/*--------------------------------*- C++ -*----------------------------------*\
  =========                 |
  \\      /  F ield         | OpenFOAM: The Open Source CFD Toolbox
   \\    /   O peration     | Website:  https://openfoam.org
    \\  /    A nd           | Version:  7
     \\/     M anipulation  |
\*---------------------------------------------------------------------------*/
FoamFile
{
    version     2.0;
    format      ascii;
    class       volScalarField;
    location    "9.7";
    object      T;
}
// * * * * * * * * * * * * * * * * * * * * * * * * * * * * * * * * * * * * * //

dimensions      [0 0 0 1 0 0 0];

internalField   nonuniform List<scalar> 
19968
(
1
1
1
1
1
1
1
1
1
1
1
1
1
1
1
1
1
1
1
1
1
1
1
1
1
1
1
1
1
1
1
1
1
1
1
1
1
1
1
1
1
1
1
1
1
1
1
1
1.27591
2.46136
2.68572
2.68868
2.69707
2.70361
2.70884
2.71251
2.71535
2.718
2.72086
2.72422
2.72823
2.73262
2.73691
2.74085
2.74437
2.74747
2.75021
2.75287
2.75572
2.75888
2.76223
2.7655
2.76843
2.77095
2.7732
2.77542
2.77772
2.78008
2.78241
2.78459
2.7866
2.78845
2.79019
2.79183
2.7934
2.79491
2.7964
2.79783
2.79916
2.80032
2.80125
2.8019
2.80227
2.8024
2.80239
2.80243
1
1
1
1
1
1
1
1
1
1
1
1
1
1
1
1
1
1
1
1
1
1
1
1
1
1
1
1
1
1
1
1
1
1
1
1
1
1
1
1
1
1
1
1
1
1
1
1
1.26363
2.45387
2.68352
2.68987
2.69796
2.70386
2.70868
2.71225
2.71512
2.71784
2.72076
2.72415
2.72815
2.7325
2.73677
2.7407
2.74419
2.74723
2.74991
2.75252
2.75534
2.75847
2.76182
2.76512
2.76808
2.77064
2.77293
2.77516
2.77745
2.7798
2.78211
2.78429
2.7863
2.78815
2.78988
2.79151
2.79306
2.79455
2.79601
2.79742
2.79873
2.79988
2.8008
2.80144
2.80181
2.80194
2.80194
2.80198
1
1
1
1
1
1
1
1
1
1
1
1
1
1
1
1
1
1
1
1
1
1
1
1
1
1
1
1
1
1
1
1
1
1
1
1
1
1
1
1
1
1
1
1
1
1
1
1
1.2331
2.43583
2.68379
2.69053
2.69771
2.70306
2.7076
2.71121
2.71431
2.7173
2.72047
2.72397
2.72794
2.73215
2.73634
2.74023
2.74369
2.74668
2.74932
2.7519
2.75468
2.7578
2.76113
2.76443
2.76742
2.77002
2.77237
2.77463
2.77694
2.77928
2.78157
2.78373
2.78573
2.78759
2.78931
2.79092
2.79244
2.79391
2.79535
2.79675
2.79805
2.79919
2.80011
2.80075
2.80113
2.80128
2.80131
2.80136
1
1
1
1
1
1
1
1
1
1
1
1
1
1
1
1
1
1
1
1
1
1
1
1
1
1
1
1
1
1
1
1
1
1
1
1
1
1
1
1
1
1
1
1
1
1
1
1
1.18763
2.40725
2.68498
2.69077
2.69668
2.70141
2.70579
2.70963
2.71314
2.7166
2.72021
2.72391
2.72779
2.73175
2.73573
2.73951
2.74291
2.74587
2.74851
2.7511
2.75389
2.75697
2.76027
2.76352
2.7665
2.76915
2.77155
2.77387
2.7762
2.77854
2.78081
2.78295
2.78493
2.78675
2.78844
2.78999
2.79144
2.79284
2.79422
2.79558
2.79687
2.79802
2.79894
2.7996
2.80002
2.80023
2.80032
2.8004
1
1
1
1
1
1
1
1
1
1
1
1
1
1
1
1
1
1
1
1
1
1
1
1
1
1
1
1
1
1
1
1
1
1
1
1
1
1
1
1
1
1
1
1
1
1
1
1
1.12509
2.36651
2.68598
2.69079
2.69538
2.69951
2.70369
2.70779
2.71182
2.71585
2.71991
2.72384
2.72768
2.73141
2.73512
2.73868
2.74195
2.74491
2.74763
2.75033
2.75317
2.75622
2.7594
2.76252
2.76542
2.76805
2.77051
2.7729
2.77529
2.77766
2.77993
2.78205
2.78401
2.78581
2.78745
2.78894
2.79032
2.79163
2.79294
2.79424
2.79547
2.79656
2.79742
2.79803
2.7984
2.7986
2.7987
2.79877
1
1
1
1
1
1
1
1
1
1
1
1
1
1
1
1
1
1
1
1
1
1
1
1
1
1
1
1
1
1
1
1
1
1
1
1
1
1
1
1
1
1
1
1
1
1
1
1
1.01627
2.30335
2.68603
2.69065
2.69423
2.698
2.70206
2.70651
2.7112
2.71584
2.7202
2.72421
2.72796
2.73146
2.73472
2.73783
2.74084
2.74374
2.7466
2.74947
2.75239
2.75538
2.75835
2.7612
2.76387
2.76638
2.76882
2.77124
2.77368
2.77607
2.77833
2.78042
2.78233
2.78407
2.78565
2.78707
2.78839
2.78966
2.79094
2.79225
2.79352
2.79464
2.79552
2.79613
2.79651
2.79673
2.79684
2.79691
1
1
1
1
1
1
1
1
1
1
1
1
1
1
1
1
1
1
1
1
1
1
1
1
1
1
1
1
1
1
1
1
1
1
1
1
1
1
1
1
1
1
1
1
1
1
1
1
1.00013
2.21859
2.6822
2.68782
2.69055
2.6944
2.69848
2.70313
2.70812
2.71308
2.71767
2.7219
2.72577
2.72919
2.73216
2.73494
2.73776
2.74071
2.74383
2.74707
2.75029
2.75337
2.75622
2.75883
2.76127
2.76364
2.76605
2.76854
2.77107
2.77354
2.77585
2.77794
2.77983
2.78153
2.78306
2.78443
2.7857
2.78694
2.78822
2.78955
2.79084
2.79198
2.79286
2.79345
2.79381
2.79402
2.79413
2.79418
1
1
1
1
1
1
1
1
1
1
1
1
1
1
1
1
1
1
1
1
1
1
1
1
1
1
1
1
1
1
1
1
1
1
1
1
1
1
1
1
1
1
1
1
1
1
1
1
1
2.09167
2.67156
2.68406
2.68673
2.69133
2.69576
2.7005
2.70532
2.71012
2.71468
2.71903
2.72301
2.72646
2.7294
2.73207
2.73479
2.7377
2.74093
2.74441
2.74787
2.75107
2.75386
2.75628
2.7585
2.76072
2.76308
2.76559
2.76817
2.77068
2.77299
2.77506
2.77689
2.77854
2.78
2.78132
2.78254
2.78375
2.78502
2.78634
2.78762
2.78873
2.78958
2.79014
2.79047
2.79066
2.79074
2.79077
1
1
1
1
1
1
1
1
1
1
1
1
1
1
1
1
1
1
1
1
1
1
1
1
1
1
1
1
1
1
1
1
1
1
1
1
1
1
1
1
1
1
1
1
1
1
1
1
1
1.91594
2.64207
2.6763
2.68108
2.68696
2.69184
2.69659
2.70113
2.70567
2.71011
2.7145
2.71868
2.72236
2.7255
2.7282
2.73088
2.73371
2.7369
2.74047
2.74407
2.74738
2.75017
2.75249
2.75458
2.75671
2.75902
2.76152
2.7641
2.7666
2.76889
2.77092
2.77271
2.77431
2.77575
2.77704
2.77826
2.77948
2.78075
2.78206
2.78332
2.78439
2.7852
2.78574
2.78606
2.78623
2.7863
2.78633
1
1
1
1
1
1
1
1
1
1
1
1
1
1
1
1
1
1
1
1
1
1
1
1
1
1
1
1
1
1
1
1
1
1
1
1
1
1
1
1
1
1
1
1
1
1
1
1
1
1.68672
2.58595
2.66911
2.67651
2.6827
2.68743
2.69201
2.69632
2.7006
2.70485
2.70915
2.71348
2.71748
2.72092
2.72379
2.72649
2.72926
2.73231
2.73579
2.73939
2.74273
2.74557
2.7479
2.74995
2.752
2.75421
2.75659
2.75903
2.76139
2.76357
2.76552
2.76727
2.76886
2.77031
2.77165
2.77293
2.7742
2.77548
2.77673
2.77788
2.77881
2.77949
2.77992
2.78018
2.78033
2.78036
2.78039
1
1
1
1
1
1
1
1
1
1
1
1
1
1
1
1
1
1
1
1
1
1
1
1
1
1
1
1
1
1
1
1
1
1
1
1
1
1
1
1
1
1
1
1
1
1
1
1
1
1.37428
2.47851
2.67156
2.67189
2.67724
2.68189
2.68661
2.69094
2.69508
2.69915
2.70328
2.70762
2.71186
2.71561
2.7187
2.72143
2.72413
2.72702
2.7303
2.73381
2.73716
2.74013
2.74262
2.74479
2.74685
2.74898
2.75119
2.75342
2.75555
2.75751
2.75925
2.76082
2.76225
2.76357
2.7648
2.76598
2.76714
2.76828
2.7694
2.77042
2.77125
2.77186
2.77227
2.77252
2.7727
2.77277
2.77284
1
1
1
1
1
1
1
1
1
1
1
1
1
1
1
1
1
1
1
1
1
1
1
1
1
1
1
1
1
1
1
1
1
1
1
1
1
1
1
1
1
1
1
1
1
1
1
1
1
1.01519
2.29764
2.6789
2.67798
2.67933
2.68187
2.68506
2.68846
2.69192
2.69549
2.69913
2.70292
2.70673
2.7102
2.71311
2.71562
2.71804
2.72054
2.72338
2.72656
2.72975
2.73274
2.73536
2.73763
2.73971
2.74175
2.74381
2.74586
2.74782
2.74961
2.75122
2.75269
2.75405
2.75534
2.75658
2.75775
2.75886
2.75988
2.7608
2.76154
2.76203
2.76227
2.76225
2.76205
2.76189
2.76177
2.76175
1
1
1
1
1
1
1
1
1
1
1
1
1
1
1
1
1
1
1
1
1
1
1
1
1
1
1
1
1
1
1
1
1
1
1
1
1
1
1
1
1
1
1
1
1
1
1
1
1
1.00003
2.01526
2.64709
2.66214
2.66611
2.67101
2.67536
2.67929
2.68292
2.68649
2.69009
2.69376
2.69747
2.70094
2.70385
2.70631
2.70859
2.71096
2.71362
2.71666
2.71984
2.72287
2.7256
2.72797
2.73011
2.73214
2.73413
2.73604
2.73784
2.73947
2.74091
2.7422
2.74338
2.74446
2.74545
2.74629
2.74694
2.7474
2.74773
2.74795
2.74808
2.74812
2.74804
2.74777
2.74746
2.7471
2.74694
1
1
1
1
1
1
1
1
1
1
1
1
1
1
1
1
1
1
1
1
1
1
1
1
1
1
1
1
1
1
1
1
1
1
1
1
1
1
1
1
1
1
1
1
1
1
1
1
1
1
1.54335
2.51548
2.64728
2.65461
2.66216
2.66727
2.67157
2.67542
2.67913
2.68289
2.68671
2.69049
2.69389
2.69661
2.69875
2.70069
2.70276
2.70519
2.708
2.71097
2.71376
2.71622
2.7183
2.72014
2.72188
2.72354
2.72512
2.72654
2.72778
2.72885
2.72978
2.7306
2.73131
2.73196
2.73246
2.73274
2.73276
2.73265
2.73245
2.73217
2.73158
2.73051
2.72856
2.72579
2.72267
2.72017
1
1
1
1
1
1
1
1
1
1
1
1
1
1
1
1
1
1
1
1
1
1
1
1
1
1
1
1
1
1
1
1
1
1
1
1
1
1
1
1
1
1
1
1
1
1
1
1
1
1
1.02762
2.25039
2.65638
2.65615
2.65849
2.6608
2.6633
2.66612
2.66936
2.67306
2.67706
2.68096
2.6843
2.68681
2.68867
2.69028
2.69208
2.69431
2.69691
2.69964
2.70218
2.70432
2.70607
2.70754
2.70889
2.71017
2.71135
2.71234
2.71304
2.71354
2.71383
2.71397
2.71404
2.71405
2.71385
2.71315
2.71181
2.7099
2.70751
2.70466
2.70134
2.6976
2.69391
2.68993
2.68705
2.68538
1
1
1
1
1
1
1
1
1
1
1
1
1
1
1
1
1
1
1
1
1
1
1
1
1
1
1
1
1
1
1
1
1
1
1
1
1
1
1
1
1
1
1
1
1
1
1
1
1
1
1.00005
1.75485
2.56065
2.63779
2.64244
2.64541
2.64818
2.65136
2.65506
2.65932
2.66389
2.66834
2.67214
2.67499
2.67703
2.67862
2.68017
2.68202
2.68428
2.68675
2.68909
2.69105
2.69254
2.69367
2.69452
2.69515
2.69569
2.69603
2.69603
2.69568
2.69488
2.69383
2.69274
2.69162
2.69023
2.68821
2.6853
2.68148
2.67694
2.67192
2.66648
2.66083
2.65529
2.65285
2.64983
2.66388
1
1
1
1
1
1
1
1
1
1
1
1
1
1
1
1
1
1
1
1
1
1
1
1
1
1
1
1
1
1
1
1
1
1
1
1
1
1
1
1
1
1
1
1
1
1
1
1
1
1
1
1.11515
2.34255
2.63312
2.63291
2.63464
2.6373
2.63997
2.64321
2.64729
2.65199
2.6567
2.66076
2.66379
2.6659
2.66745
2.66886
2.67037
2.67229
2.67446
2.67651
2.67824
2.67961
2.68052
2.68063
2.68058
2.68048
2.68021
2.67953
2.67826
2.67637
2.67403
2.67149
2.66884
2.66585
2.66211
2.65704
2.65024
2.64127
2.62999
2.61497
2.59499
2.56561
2.52397
2.46002
2.33061
1
1
1
1
1
1
1
1
1
1
1
1
1
1
1
1
1
1
1
1
1
1
1
1
1
1
1
1
1
1
1
1
1
1
1
1
1
1
1
1
1
1
1
1
1
1
1
1
1
1
1
1.00105
2.01868
2.61047
2.61462
2.61782
2.62204
2.62598
2.63001
2.63428
2.63884
2.64333
2.64744
2.65085
2.65358
2.65578
2.6576
2.65904
2.6607
2.66252
2.66441
2.66606
2.66738
2.66808
2.66788
2.66742
2.66678
2.66585
2.66448
2.66249
2.65981
2.65645
2.65253
2.6482
2.64334
2.63765
2.63024
2.62047
2.6071
2.59014
2.56718
2.53756
2.49428
2.43667
2.32798
2.16613
1
1
1
1
1
1
1
1
1
1
1
1
1
1
1
1
1
1
1
1
1
1
1
1
1
1
1
1
1
1
1
1
1
1
1
1
1
1
1
1
1
1
1
1
1
1
1
1
1
1
1
0.999999
1.40871
2.44666
2.59751
2.60456
2.61032
2.61404
2.6181
2.62234
2.62694
2.63123
2.63505
2.63835
2.64123
2.64377
2.64575
2.64724
2.64883
2.65052
2.65217
2.6536
2.65467
2.65509
2.6548
2.65406
2.65287
2.65115
2.64889
2.64606
2.64256
2.63827
2.63302
2.62697
2.62001
2.61216
2.60237
2.5899
2.57314
2.55165
2.52381
2.48725
2.43874
2.36737
2.26235
2.13462
1
1
1
1
1
1
1
1
1
1
1
1
1
1
1
1
1
1
1
1
1
1
1
1
1
1
1
1
1
1
1
1
1
1
1
1
1
1
1
1
1
1
1
1
1
1
1
1
1
1
1
1
1.01643
2.13333
2.59892
2.59682
2.59769
2.60083
2.60505
2.60971
2.61502
2.6195
2.62263
2.62518
2.62735
2.62952
2.63147
2.63328
2.63517
2.637
2.63856
2.63972
2.64041
2.64063
2.64031
2.63945
2.63793
2.63565
2.63262
2.62899
2.62468
2.61954
2.61316
2.60564
2.59683
2.58693
2.5751
2.56044
2.54154
2.51738
2.48705
2.44785
2.39805
2.33049
2.2451
2.14912
1
1
1
1
1
1
1
1
1
1
1
1
1
1
1
1
1
1
1
1
1
1
1
1
1
1
1
1
1
1
1
1
1
1
1
1
1
1
1
1
1
1
1
1
1
1
1
1
1
1
1
1
1.00001
1.47708
2.44978
2.58274
2.58669
2.59063
2.59349
2.5978
2.60337
2.60807
2.61127
2.61323
2.61446
2.61552
2.61691
2.61866
2.62068
2.62264
2.62415
2.62503
2.62539
2.62534
2.62487
2.62382
2.62202
2.6194
2.61593
2.61178
2.60682
2.60093
2.59359
2.58485
2.57462
2.56305
2.54963
2.53347
2.51347
2.48845
2.45818
2.41917
2.37272
2.31548
2.24792
2.17228
1
1
1
1
1
1
1
1
1
1
1
1
1
1
1
1
1
1
1
1
1
1
1
1
1
1
1
1
1
1
1
1
1
1
1
1
1
1
1
1
1
1
1
1
1
1
1
1
1
1
1
1
1
1.02237
2.1265
2.58113
2.58384
2.58422
2.58538
2.58874
2.59354
2.59739
2.59986
2.60105
2.60151
2.60168
2.60248
2.60402
2.6061
2.60808
2.60944
2.60989
2.60986
2.60952
2.60861
2.60712
2.60495
2.60213
2.59856
2.59425
2.58897
2.58253
2.57446
2.56485
2.5537
2.54105
2.52657
2.50952
2.48918
2.46435
2.43554
2.39898
2.35771
2.31038
2.25472
2.19489
1
1
1
1
1
1
1
1
1
1
1
1
1
1
1
1
1
1
1
1
1
1
1
1
1
1
1
1
1
1
1
1
1
1
1
1
1
1
1
1
1
1
1
1
1
1
1
1
1
1
1
1
1
1.00003
1.41167
2.41086
2.5745
2.57314
2.57629
2.58102
2.58515
2.58774
2.58893
2.58913
2.58886
2.58832
2.58853
2.58959
2.59141
2.59317
2.59415
2.59415
2.59383
2.59313
2.5918
2.58983
2.58721
2.58416
2.58055
2.57624
2.57084
2.5641
2.55573
2.54582
2.53435
2.52126
2.50628
2.48887
2.46878
2.44443
2.41753
2.38438
2.34862
2.30844
2.26101
2.21301
1
1
1
1
1
1
1
1
1
1
1
1
1
1
1
1
1
1
1
1
1
1
1
1
1
1
1
1
1
1
1
1
1
1
1
1
1
1
1
1
1
1
1
1
1
1
1
1
1
1
1
1
1
1
1.01507
2.03188
2.55169
2.56635
2.56824
2.57209
2.57609
2.57849
2.57934
2.57922
2.57861
2.5775
2.57715
2.57764
2.57867
2.57966
2.57987
2.57946
2.57846
2.57707
2.57515
2.57265
2.56959
2.56622
2.56251
2.55813
2.5525
2.54547
2.53706
2.52729
2.51608
2.50321
2.48848
2.47124
2.45182
2.4282
2.40315
2.37359
2.34221
2.30702
2.26707
2.22704
1
1
1
1
1
1
1
1
1
1
1
1
1
1
1
1
1
1
1
1
1
1
1
1
1
1
1
1
1
1
1
1
1
1
1
1
1
1
1
1
1
1
1
1
1
1
1
1
1
1
1
1
1
1
1.00001
1.22473
2.33558
2.55984
2.55835
2.56123
2.56437
2.56672
2.56748
2.56736
2.56684
2.56579
2.56519
2.56539
2.56572
2.56575
2.56553
2.56468
2.56297
2.56094
2.55842
2.55551
2.55218
2.54856
2.54465
2.54005
2.53403
2.52677
2.51846
2.50902
2.4984
2.48623
2.47241
2.45581
2.43725
2.4149
2.39197
2.36516
2.33679
2.30562
2.27237
2.23721
1
1
1
1
1
1
1
1
1
1
1
1
1
1
1
1
1
1
1
1
1
1
1
1
1
1
1
1
1
1
1
1
1
1
1
1
1
1
1
1
1
1
1
1
1
1
1
1
1
1
1
1
1
1
1
1.0036
1.84099
2.49301
2.53809
2.54701
2.5512
2.55286
2.55368
2.55398
2.55391
2.55343
2.55294
2.55309
2.55309
2.55276
2.55214
2.55095
2.54859
2.54587
2.54254
2.53904
2.53538
2.53159
2.52745
2.52243
2.516
2.50856
2.50023
2.49097
2.4809
2.46957
2.45698
2.44147
2.42406
2.40383
2.38283
2.35801
2.33254
2.3054
2.2764
2.24428
1
1
1
1
1
1
1
1
1
1
1
1
1
1
1
1
1
1
1
1
1
1
1
1
1
1
1
1
1
1
1
1
1
1
1
1
1
1
1
1
1
1
1
1
1
1
1
1
1
1
1
1
1
1
1
1
1.09754
2.19265
2.53451
2.53943
2.53917
2.53926
2.53984
2.54043
2.54082
2.54095
2.54082
2.54118
2.54113
2.54057
2.5397
2.53821
2.53543
2.53198
2.5278
2.52367
2.51968
2.51564
2.51126
2.50589
2.49918
2.49168
2.48332
2.47404
2.46418
2.45331
2.44166
2.4273
2.41141
2.39363
2.37414
2.35174
2.32981
2.30532
2.27826
2.25001
1
1
1
1
1
1
1
1
1
1
1
1
1
1
1
1
1
1
1
1
1
1
1
1
1
1
1
1
1
1
1
1
1
1
1
1
1
1
1
1
1
1
1
1
1
1
1
1
1
1
1
1
1
1
1
1
1.00063
1.44556
2.36363
2.51652
2.51695
2.52009
2.52234
2.5239
2.52504
2.52587
2.52645
2.52736
2.52824
2.52779
2.52688
2.52524
2.52235
2.5185
2.51388
2.50936
2.5051
2.50049
2.49569
2.49016
2.48349
2.47625
2.46789
2.45853
2.44863
2.43772
2.42651
2.41322
2.39892
2.38311
2.36545
2.34636
2.32672
2.30363
2.27956
2.25563
1
1
1
1
1
1
1
1
1
1
1
1
1
1
1
1
1
1
1
1
1
1
1
1
1
1
1
1
1
1
1
1
1
1
1
1
1
1
1
1
1
1
1
1
1
1
1
1
1
1
1
1
1
1
1
1
1
1.01789
1.89258
2.47161
2.50018
2.50596
2.5082
2.50927
2.51026
2.51101
2.5117
2.51276
2.51435
2.5142
2.51342
2.51181
2.50908
2.50526
2.50078
2.49612
2.49175
2.48676
2.48148
2.47584
2.46931
2.46213
2.45416
2.44502
2.4351
2.42386
2.41261
2.40013
2.38682
2.37243
2.35695
2.34048
2.32168
2.30119
2.28082
2.25965
1
1
1
1
1
1
1
1
1
1
1
1
1
1
1
1
1
1
1
1
1
1
1
1
1
1
1
1
1
1
1
1
1
1
1
1
1
1
1
1
1
1
1
1
1
1
1
1
1
1
1
1
1
1
1
1
1
1.00003
1.11752
2.12338
2.4813
2.49789
2.49631
2.49712
2.4977
2.49788
2.49817
2.49881
2.50018
2.50025
2.49956
2.49796
2.49537
2.49175
2.48763
2.48316
2.47889
2.47401
2.46861
2.46285
2.45637
2.44911
2.44127
2.43254
2.42279
2.41176
2.40043
2.38854
2.37587
2.36256
2.34869
2.33344
2.31619
2.29912
2.28135
2.26206
1
1
1
1
1
1
1
1
1
1
1
1
1
1
1
1
1
1
1
1
1
1
1
1
1
1
1
1
1
1
1
1
1
1
1
1
1
1
1
1
1
1
1
1
1
1
1
1
1
1
1
1
1
1
1
1
1
1
1.00093
1.26708
2.26888
2.48088
2.48039
2.48108
2.48128
2.48169
2.48221
2.48301
2.48431
2.48475
2.48434
2.48301
2.48076
2.47762
2.47395
2.46991
2.46576
2.46138
2.45613
2.4506
2.4444
2.4374
2.42964
2.42107
2.4117
2.40129
2.39036
2.37905
2.36697
2.3544
2.34148
2.32717
2.31209
2.29745
2.28157
2.2643
1
1
1
1
1
1
1
1
1
1
1
1
1
1
1
1
1
1
1
1
1
1
1
1
1
1
1
1
1
1
1
1
1
1
1
1
1
1
1
1
1
1
1
1
1
1
1
1
1
1
1
1
1
1
1
1
1
1
1
1.00514
1.65586
2.37623
2.45717
2.455
2.45683
2.45917
2.46166
2.46393
2.46605
2.4673
2.46734
2.46674
2.46507
2.46261
2.45956
2.45601
2.45221
2.44831
2.44361
2.43855
2.43284
2.42633
2.41897
2.41067
2.40163
2.39187
2.38175
2.37106
2.35951
2.34791
2.33595
2.32303
2.31035
2.29786
2.28354
2.26857
1
1
1
1
1
1
1
1
1
1
1
1
1
1
1
1
1
1
1
1
1
1
1
1
1
1
1
1
1
1
1
1
1
1
1
1
1
1
1
1
1
1
1
1
1
1
1
1
1
1
1
1
1
1
1
1
1
1
1
1.00001
1.04876
1.907
2.41596
2.44429
2.44414
2.44611
2.44771
2.44914
2.45031
2.45082
2.45068
2.45012
2.44887
2.44688
2.44475
2.4417
2.4384
2.43494
2.43083
2.42629
2.42121
2.41543
2.4089
2.40129
2.39282
2.38383
2.37442
2.36414
2.35358
2.34358
2.33321
2.32286
2.31239
2.30133
2.28886
2.27618
1
1
1
1
1
1
1
1
1
1
1
1
1
1
1
1
1
1
1
1
1
1
1
1
1
1
1
1
1
1
1
1
1
1
1
1
1
1
1
1
1
1
1
1
1
1
1
1
1
1
1
1
1
1
1
1
1
1
1
1
1.00021
1.13186
2.02351
2.41092
2.4354
2.43809
2.43883
2.43842
2.4378
2.43696
2.43582
2.43446
2.43281
2.43079
2.42888
2.42635
2.42359
2.42059
2.41715
2.41332
2.40906
2.40419
2.39857
2.39178
2.38409
2.37601
2.36759
2.35886
2.35065
2.34327
2.33486
2.32632
2.31804
2.30854
2.29775
2.28674
1
1
1
1
1
1
1
1
1
1
1
1
1
1
1
1
1
1
1
1
1
1
1
1
1
1
1
1
1
1
1
1
1
1
1
1
1
1
1
1
1
1
1
1
1
1
1
1
1
1
1
1
1
1
1
1
1
1
1
1
1
1.00122
1.21137
2.10108
2.39793
2.4292
2.42867
2.42817
2.42707
2.42543
2.42349
2.42134
2.41896
2.41645
2.41418
2.4117
2.40915
2.40641
2.40342
2.40019
2.39656
2.3924
2.38749
2.38171
2.37551
2.36954
2.36355
2.3578
2.35231
2.34655
2.33973
2.33314
2.32627
2.31763
2.30799
2.2981
1
1
1
1
1
1
1
1
1
1
1
1
1
1
1
1
1
1
1
1
1
1
1
1
1
1
1
1
1
1
1
1
1
1
1
1
1
1
1
1
1
1
1
1
1
1
1
1
1
1
1
1
1
1
1
1
1
1
1
1
1
1
1.00314
1.29373
2.15402
2.38928
2.41038
2.41326
2.41318
2.4126
2.41121
2.40919
2.40657
2.40382
2.4011
2.3983
2.39554
2.39279
2.39006
2.38719
2.38396
2.38066
2.37725
2.37371
2.37023
2.36709
2.36389
2.36013
2.35657
2.3519
2.34606
2.34066
2.33429
2.32604
2.31749
2.30859
1
1
1
1
1
1
1
1
1
1
1
1
1
1
1
1
1
1
1
1
1
1
1
1
1
1
1
1
1
1
1
1
1
1
1
1
1
1
1
1
1
1
1
1
1
1
1
1
1
1
1
1
1
1
1
1
1
1
1
1
1
1
1
1.0064
1.37678
2.19393
2.37619
2.39046
2.39463
2.39577
2.3957
2.39478
2.39303
2.39082
2.38831
2.38566
2.38301
2.38037
2.37781
2.37529
2.37308
2.37168
2.37059
2.36998
2.36963
2.36854
2.36654
2.36418
2.36122
2.35664
2.35163
2.34686
2.34056
2.33299
2.32572
2.31771
1
1
1
1
1
1
1
1
1
1
1
1
1
1
1
1
1
1
1
1
1
1
1
1
1
1
1
1
1
1
1
1
1
1
1
1
1
1
1
1
1
1
1
1
1
1
1
1
1
1
1
1
1
1
1
1
1
1
1
1
1
1
1
1.00001
1.0116
1.45102
2.22597
2.36663
2.37013
2.37321
2.37457
2.37537
2.37498
2.37403
2.37262
2.37099
2.3693
2.36748
2.36603
2.3656
2.36626
2.36805
2.37046
2.37208
2.37267
2.37197
2.37043
2.36832
2.3648
2.36008
2.35579
2.35121
2.34506
2.33867
2.33249
2.32514
1
1
1
1
1
1
1
1
1
1
1
1
1
1
1
1
1
1
1
1
1
1
1
1
1
1
1
1
1
1
1
1
1
1
1
1
1
1
1
1
1
1
1
1
1
1
1
1
1
1
1
1
1
1
1
1
1
1
1
1
1
1
1
1
1.00003
1.01839
1.55106
2.25233
2.35379
2.35249
2.35375
2.35383
2.35395
2.35381
2.35363
2.35337
2.3535
2.35459
2.35729
2.3616
2.36677
2.37134
2.3752
2.37782
2.37776
2.37635
2.37443
2.37175
2.3674
2.36293
2.35918
2.35452
2.34884
2.3437
2.33814
2.33117
1
1
1
1
1
1
1
1
1
1
1
1
1
1
1
1
1
1
1
1
1
1
1
1
1
1
1
1
1
1
1
1
1
1
1
1
1
1
1
1
1
1
1
1
1
1
1
1
1
1
1
1
1
1
1
1
1
1
1
1
1
1
1
1
1
1.00005
1.03172
1.61538
2.26228
2.34083
2.33816
2.33633
2.33525
2.33438
2.33444
2.33582
2.33922
2.3446
2.35344
2.36305
2.37095
2.37722
2.38216
2.38293
2.38191
2.37951
2.37707
2.37373
2.36908
2.36535
2.36187
2.35714
2.3522
2.34793
2.34263
2.33607
1
1
1
1
1
1
1
1
1
1
1
1
1
1
1
1
1
1
1
1
1
1
1
1
1
1
1
1
1
1
1
1
1
1
1
1
1
1
1
1
1
1
1
1
1
1
1
1
1
1
1
1
1
1
1
1
1
1
1
1
1
1
1
1
1
1
1.00012
1.04407
1.63435
2.25475
2.32815
2.32499
2.3222
2.32004
2.32078
2.32381
2.33225
2.3449
2.35741
2.36812
2.37632
2.38214
2.38484
2.38431
2.38252
2.38012
2.37792
2.37466
2.37062
2.36776
2.36439
2.35973
2.3554
2.35144
2.34624
2.34018
1
1
1
1
1
1
1
1
1
1
1
1
1
1
1
1
1
1
1
1
1
1
1
1
1
1
1
1
1
1
1
1
1
1
1
1
1
1
1
1
1
1
1
1
1
1
1
1
1
1
1
1
1
1
1
1
1
1
1
1
1
1
1
1
1
1
1
1.00021
1.04913
1.6194
2.23661
2.31575
2.31263
2.31344
2.31682
2.32705
2.34111
2.35515
2.36692
2.37568
2.38161
2.38411
2.38393
2.3828
2.38075
2.37874
2.37687
2.37395
2.37073
2.36857
2.36548
2.36142
2.35782
2.35406
2.34919
2.34378
1
1
1
1
1
1
1
1
1
1
1
1
1
1
1
1
1
1
1
1
1
1
1
1
1
1
1
1
1
1
1
1
1
1
1
1
1
1
1
1
1
1
1
1
1
1
1
1
1
1
1
1
1
1
1
1
1
1
1
1
1
1
1
1
1
1
1
1
1.00026
1.04664
1.59948
2.21429
2.30137
2.31066
2.32362
2.34428
2.36085
2.37182
2.37843
2.38267
2.38324
2.3827
2.38161
2.37976
2.37792
2.37669
2.37515
2.37255
2.37003
2.36801
2.36491
2.3613
2.35828
2.35476
2.35041
2.3459
1
1
1
1
1
1
1
1
1
1
1
1
1
1
1
1
1
1
1
1
1
1
1
1
1
1
1
1
1
1
1
1
1
1
1
1
1
1
1
1
1
1
1
1
1
1
1
1
1
1
1
1
1
1
1
1
1
1
1
1
1
1
1
1
1
1
1
1
1
1.00024
1.04261
1.56368
2.18881
2.31648
2.34884
2.36729
2.37787
2.38446
2.38559
2.38453
2.38265
2.38085
2.3787
2.3761
2.37478
2.37408
2.37231
2.3697
2.36809
2.36666
2.3639
2.36079
2.35809
2.35459
2.35034
2.3464
1
1
1
1
1
1
1
1
1
1
1
1
1
1
1
1
1
1
1
1
1
1
1
1
1
1
1
1
1
1
1
1
1
1
1
1
1
1
1
1
1
1
1
1
1
1
1
1
1
1
1
1
1
1
1
1
1
1
1
1
1
1
1
1
1
1
1
1
1
1
1.00021
1.0357
1.51991
2.26223
2.39242
2.39215
2.39259
2.3918
2.39002
2.38706
2.38407
2.38184
2.37917
2.37616
2.3745
2.37308
2.37004
2.36674
2.36547
2.36438
2.36152
2.35833
2.35616
2.35341
2.34978
2.34623
1
1
1
1
1
1
1
1
1
1
1
1
1
1
1
1
1
1
1
1
1
1
1
1
1
1
1
1
1
1
1
1
1
1
1
1
1
1
1
1
1
1
1
1
1
1
1
1
1
1
1
1
1
1
1
1
1
1
1
1
1
1
1
1
1
1
1
1
1
1
1
1.00017
1.029
1.92235
2.46183
2.4523
2.43811
2.42351
2.41105
2.40065
2.39314
2.38802
2.38309
2.37878
2.37625
2.37428
2.37092
2.36759
2.36592
2.36429
2.36044
2.35617
2.35398
2.35184
2.3483
2.34467
1
1
1
1
1
1
1
1
1
1
1
1
1
1
1
1
1
1
1
1
1
1
1
1
1
1
1
1
1
1
1
1
1
1
1
1
1
1
1
1
1
1
1
1
1
1
1
1
1
1
1
1
1
1
1
1
1
1
1
1
1
1
1
1
1
1
1
1
1
1
1
1
1.00009
1.16122
2.30978
2.52559
2.49761
2.47332
2.45307
2.43663
2.4237
2.41259
2.40177
2.39306
2.38696
2.3817
2.37597
2.37116
2.36807
2.36541
2.36122
2.35707
2.35477
2.35253
2.3483
2.34422
1
1
1
1
1
1
1
1
1
1
1
1
1
1
1
1
1
1
1
1
1
1
1
1
1
1
1
1
1
1
1
1
1
1
1
1
1
1
1
1
1
1
1
1
1
1
1
1
1
1
1
1
1
1
1
1
1
1
1
1
1
1
1
1
1
1
1
1
1
1
1
1
1
1.00164
1.82743
2.49434
2.52233
2.51548
2.50443
2.48956
2.47274
2.45629
2.44096
2.42818
2.41706
2.40601
2.39562
2.387
2.3805
2.37461
2.36806
2.36227
2.35841
2.35475
2.34983
2.3457
1
1
1
1
1
1
1
1
1
1
1
1
1
1
1
1
1
1
1
1
1
1
1
1
1
1
1
1
1
1
1
1
1
1
1
1
1
1
1
1
1
1
1
1
1
1
1
1
1
1
1
1
1
1
1
1
1
1
1
1
1
1
1
1
1
1
1
1
1
1
1
1
1
1
1.08728
2.29542
2.56774
2.56212
2.55048
2.53711
2.52261
2.50722
2.49215
2.47696
2.46174
2.44679
2.4331
2.42113
2.41037
2.39971
2.38922
2.38013
2.37317
2.36623
2.3592
2.35305
1
1
1
1
1
1
1
1
1
1
1
1
1
1
1
1
1
1
1
1
1
1
1
1
1
1
1
1
1
1
1
1
1
1
1
1
1
1
1
1
1
1
1
1
1
1
1
1
1
1
1
1
1
1
1
1
1
1
1
1
1
1
1
1
1
1
1
1
1
1
1
1
1
1
1.00048
1.78351
2.51075
2.56752
2.56345
2.5577
2.55075
2.54208
2.53195
2.52029
2.50725
2.49346
2.47953
2.46554
2.45169
2.43822
2.42563
2.4146
2.40453
2.39385
2.3836
2.3741
1
1
1
1
1
1
1
1
1
1
1
1
1
1
1
1
1
1
1
1
1
1
1
1
1
1
1
1
1
1
1
1
1
1
1
1
1
1
1
1
1
1
1
1
1
1
1
1
1
1
1
1
1
1
1
1
1
1
1
1
1
1
1
1
1
1
1
1
1
1
1
1
1
1
1
1.0775
2.31264
2.58935
2.58306
2.57642
2.57115
2.56532
2.55827
2.55009
2.54105
2.53115
2.52039
2.50877
2.49651
2.48411
2.47169
2.45911
2.44631
2.43358
2.42137
2.40996
1
1
1
1
1
1
1
1
1
1
1
1
1
1
1
1
1
1
1
1
1
1
1
1
1
1
1
1
1
1
1
1
1
1
1
1
1
1
1
1
1
1
1
1
1
1
1
1
1
1
1
1
1
1
1
1
1
1
1
1
1
1
1
1
1
1
1
1
1
1
1
1
1
1
1
1.00038
1.88524
2.54872
2.58472
2.58152
2.57811
2.57415
2.56974
2.56466
2.55905
2.55288
2.54606
2.53847
2.53005
2.52085
2.51093
2.5002
2.48868
2.4768
2.4647
2.45262
1
1
1
1
1
1
1
1
1
1
1
1
1
1
1
1
1
1
1
1
1
1
1
1
1
1
1
1
1
1
1
1
1
1
1
1
1
1
1
1
1
1
1
1
1
1
1
1
1
1
1
1
1
1
1
1
1
1
1
1
1
1
1
1
1
1
1
1
1
1
1
1
1
1
1
1
1.24103
2.39099
2.59912
2.59157
2.5872
2.5832
2.5795
2.57591
2.57216
2.56805
2.56345
2.55825
2.55235
2.54552
2.53802
2.52999
2.52134
2.51217
2.50248
2.49235
1
1
1
1
1
1
1
1
1
1
1
1
1
1
1
1
1
1
1
1
1
1
1
1
1
1
1
1
1
1
1
1
1
1
1
1
1
1
1
1
1
1
1
1
1
1
1
1
1
1
1
1
1
1
1
1
1
1
1
1
1
1
1
1
1
1
1
1
1
1
1
1
1
1
1
1
1.00423
2.12277
2.60823
2.60553
2.60017
2.5948
2.59
2.58585
2.58189
2.5779
2.57374
2.56931
2.56456
2.55951
2.55409
2.54817
2.54184
2.53516
2.52813
2.52066
1
1
1
1
1
1
1
1
1
1
1
1
1
1
1
1
1
1
1
1
1
1
1
1
1
1
1
1
1
1
1
1
1
1
1
1
1
1
1
1
1
1
1
1
1
1
1
1
1
1
1
1
1
1
1
1
1
1
1
1
1
1
1
1
1
1
1
1
1
1
1
1
1
1
1
1
1
1.62105
2.51382
2.61907
2.61365
2.60887
2.6035
2.59849
2.59357
2.58874
2.58395
2.5792
2.57451
2.5699
2.56525
2.56058
2.55579
2.55075
2.54546
2.53981
1
1
1
1
1
1
1
1
1
1
1
1
1
1
1
1
1
1
1
1
1
1
1
1
1
1
1
1
1
1
1
1
1
1
1
1
1
1
1
1
1
1
1
1
1
1
1
1
1
1
1
1
1
1
1
1
1
1
1
1
1
1
1
1
1
1
1
1
1
1
1
1
1
1
1
1
1
1.04702
2.32659
2.63471
2.62729
2.62076
2.61528
2.61001
2.60477
2.59949
2.59422
2.58903
2.584
2.57912
2.57438
2.56977
2.5652
2.56059
2.55589
2.55104
1
1
1
1
1
1
1
1
1
1
1
1
1
1
1
1
1
1
1
1
1
1
1
1
1
1
1
1
1
1
1
1
1
1
1
1
1
1
1
1
1
1
1
1
1
1
1
1
1
1
1
1
1
1
1
1
1
1
1
1
1
1
1
1
1
1
1
1
1
1
1
1
1
1
1
1
1
1.00014
2.04433
2.61304
2.62506
2.62338
2.62064
2.61637
2.61199
2.60742
2.60272
2.59791
2.59307
2.5882
2.58338
2.57865
2.57396
2.56935
2.56476
2.56019
1
1
1
1
1
1
1
1
1
1
1
1
1
1
1
1
1
1
1
1
1
1
1
1
1
1
1
1
1
1
1
1
1
1
1
1
1
1
1
1
1
1
1
1
1
1
1
1
1
1
1
1
1
1
1
1
1
1
1
1
1
1
1
1
1
1
1
1
1
1
1
1
1
1
1
1
1
1
1.60964
2.52174
2.63628
2.63099
2.62801
2.62414
2.62046
2.61658
2.61251
2.60819
2.60368
2.59896
2.59413
2.58926
2.58437
2.57955
2.57476
2.57001
1
1
1
1
1
1
1
1
1
1
1
1
1
1
1
1
1
1
1
1
1
1
1
1
1
1
1
1
1
1
1
1
1
1
1
1
1
1
1
1
1
1
1
1
1
1
1
1
1
1
1
1
1
1
1
1
1
1
1
1
1
1
1
1
1
1
1
1
1
1
1
1
1
1
1
1
1
1
1.10789
2.35228
2.64198
2.63501
2.6308
2.62761
2.62435
2.62087
2.61726
2.61352
2.60964
2.60554
2.60127
2.59687
2.59237
2.58782
2.58321
2.57852
1
1
1
1
1
1
1
1
1
1
1
1
1
1
1
1
1
1
1
1
1
1
1
1
1
1
1
1
1
1
1
1
1
1
1
1
1
1
1
1
1
1
1
1
1
1
1
1
1
1
1
1
1
1
1
1
1
1
1
1
1
1
1
1
1
1
1
1
1
1
1
1
1
1
1
1
1
1
1.00088
2.15051
2.64292
2.64132
2.63752
2.63432
2.63039
2.62638
2.62245
2.61862
2.6148
2.61092
2.60696
2.60294
2.59885
2.59468
2.59041
2.58599
1
1
1
1
1
1
1
1
1
1
1
1
1
1
1
1
1
1
1
1
1
1
1
1
1
1
1
1
1
1
1
1
1
1
1
1
1
1
1
1
1
1
1
1
1
1
1
1
1
1
1
1
1
1
1
1
1
1
1
1
1
1
1
1
1
1
1
1
1
1
1
1
1
1
1
1
1
1
1
1.84575
2.60077
2.64494
2.64036
2.63733
2.63346
2.62983
2.62614
2.6224
2.6186
2.6148
2.611
2.60721
2.60342
2.59959
2.59568
2.59165
1
1
1
1
1
1
1
1
1
1
1
1
1
1
1
1
1
1
1
1
1
1
1
1
1
1
1
1
1
1
1
1
1
1
1
1
1
1
1
1
1
1
1
1
1
1
1
1
1
1
1
1
1
1
1
1
1
1
1
1
1
1
1
1
1
1
1
1
1
1
1
1
1
1
1
1
1
1
1
1.46317
2.48814
2.6559
2.65011
2.64664
2.64246
2.63847
2.63444
2.63034
2.62621
2.6221
2.61806
2.61409
2.61017
2.60627
2.60237
2.59843
1
1
1
1
1
1
1
1
1
1
1
1
1
1
1
1
1
1
1
1
1
1
1
1
1
1
1
1
1
1
1
1
1
1
1
1
1
1
1
1
1
1
1
1
1
1
1
1
1
1
1
1
1
1
1
1
1
1
1
1
1
1
1
1
1
1
1
1
1
1
1
1
1
1
1
1
1
1
1
1.06614
2.3366
2.66027
2.65364
2.64881
2.6455
2.64251
2.63933
2.63583
2.63211
2.62825
2.62431
2.62034
2.61635
2.61236
2.60837
2.60437
1
1
1
1
1
1
1
1
1
1
1
1
1
1
1
1
1
1
1
1
1
1
1
1
1
1
1
1
1
1
1
1
1
1
1
1
1
1
1
1
1
1
1
1
1
1
1
1
1
1
1
1
1
1
1
1
1
1
1
1
1
1
1
1
1
1
1
1
1
1
1
1
1
1
1
1
1
1
1
1.00038
2.17398
2.65823
2.65754
2.65359
2.65072
2.64754
2.64429
2.64091
2.63743
2.63381
2.63009
2.62625
2.62229
2.61828
2.61421
2.61009
1
1
1
1
1
1
1
1
1
1
1
1
1
1
1
1
1
1
1
1
1
1
1
1
1
1
1
1
1
1
1
1
1
1
1
1
1
1
1
1
1
1
1
1
1
1
1
1
1
1
1
1
1
1
1
1
1
1
1
1
1
1
1
1
1
1
1
1
1
1
1
1
1
1
1
1
1
1
1
1
1.96241
2.63356
2.66194
2.65793
2.65502
2.65144
2.64803
2.64465
2.6413
2.63785
2.63432
2.63065
2.62683
2.62292
2.61892
2.61483
1
1
1
1
1
1
1
1
1
1
1
1
1
1
1
1
1
1
1
1
1
1
1
1
1
1
1
1
1
1
1
1
1
1
1
1
1
1
1
1
1
1
1
1
1
1
1
1
1
1
1
1
1
1
1
1
1
1
1
1
1
1
1
1
1
1
1
1
1
1
1
1
1
1
1
1
1
1
1
1
1.7095
2.5762
2.66385
2.65868
2.6558
2.65218
2.64872
2.6453
2.64195
2.63856
2.63512
2.63165
2.62812
2.62452
2.62084
2.61711
1
1
1
1
1
1
1
1
1
1
1
1
1
1
1
1
1
1
1
1
1
1
1
1
1
1
1
1
1
1
1
1
1
1
1
1
1
1
1
1
1
1
1
1
1
1
1
1
1
1
1
1
1
1
1
1
1
1
1
1
1
1
1
1
1
1
1
1
1
1
1
1
1
1
1
1
1
1
1
1
1.42994
2.49431
2.66321
2.65813
2.65632
2.65374
2.65089
2.6478
2.64458
2.64127
2.63789
2.63449
2.63105
2.62758
2.62407
2.62052
1
1
1
1
1
1
1
1
1
1
1
1
1
1
1
1
1
1
1
1
1
1
1
1
1
1
1
1
1
1
1
1
1
1
1
1
1
1
1
1
1
1
1
1
1
1
1
1
1
1
1
1
1
1
1
1
1
1
1
1
1
1
1
1
1
1
1
1
1
1
1
1
1
1
1
1
1
1
1
1
1.17585
2.39494
2.66841
2.66173
2.65828
2.65535
2.65253
2.64958
2.6465
2.64329
2.63995
2.6366
2.63324
2.62984
2.62641
2.62297
1
1
1
1
1
1
1
1
1
1
1
1
1
1
1
1
1
1
1
1
1
1
1
1
1
1
1
1
1
1
1
1
1
1
1
1
1
1
1
1
1
1
1
1
1
1
1
1
1
1
1
1
1
1
1
1
1
1
1
1
1
1
1
1
1
1
1
1
1
1
1
1
1
1
1
1
1
1
1
1
1.00384
2.29359
2.67309
2.66985
2.66438
2.66049
2.65691
2.65351
2.65015
2.6468
2.64337
2.63997
2.63659
2.63318
2.62973
2.62629
1
1
1
1
1
1
1
1
1
1
1
1
1
1
1
1
1
1
1
1
1
1
1
1
1
1
1
1
1
1
1
1
1
1
1
1
1
1
1
1
1
1
1
1
1
1
1
1
1
1
1
1
1
1
1
1
1
1
1
1
1
1
1
1
1
1
1
1
1
1
1
1
1
1
1
1
1
1
1
1
1
2.17618
2.66796
2.67123
2.66716
2.6643
2.66088
2.65754
2.65419
2.65086
2.64748
2.6441
2.64068
2.63726
2.63377
2.63028
1
1
1
1
1
1
1
1
1
1
1
1
1
1
1
1
1
1
1
1
1
1
1
1
1
1
1
1
1
1
1
1
1
1
1
1
1
1
1
1
1
1
1
1
1
1
1
1
1
1
1
1
1
1
1
1
1
1
1
1
1
1
1
1
1
1
1
1
1
1
1
1
1
1
1
1
1
1
1
1
1
2.04278
2.65164
2.67294
2.66882
2.66649
2.66346
2.66043
2.65728
2.6541
2.65085
2.64754
2.64415
2.64076
2.63728
2.63379
1
1
1
1
1
1
1
1
1
1
1
1
1
1
1
1
1
1
1
1
1
1
1
1
1
1
1
1
1
1
1
1
1
1
1
1
1
1
1
1
1
1
1
1
1
1
1
1
1
1
1
1
1
1
1
1
1
1
1
1
1
1
1
1
1
1
1
1
1
1
1
1
1
1
1
1
1
1
1
1
1
1.90845
2.62779
2.67425
2.66938
2.66707
2.6642
2.66134
2.65837
2.65532
2.6522
2.649
2.64574
2.64245
2.63908
2.63567
1
1
1
1
1
1
1
1
1
1
1
1
1
1
1
1
1
1
1
1
1
1
1
1
1
1
1
1
1
1
1
1
1
1
1
1
1
1
1
1
1
1
1
1
1
1
1
1
1
1
1
1
1
1
1
1
1
1
1
1
1
1
1
1
1
1
1
1
1
1
1
1
1
1
1
1
1
1
1
1
1
1.78062
2.60344
2.67541
2.66963
2.66704
2.6641
2.66124
2.65831
2.65531
2.65231
2.64919
2.64608
2.64289
2.63963
2.63632
1
1
1
1
1
1
1
1
1
1
1
1
1
1
1
1
1
1
1
1
1
1
1
1
1
1
1
1
1
1
1
1
1
1
1
1
1
1
1
1
1
1
1
1
1
1
1
1
1
1
1
1
1
1
1
1
1
1
1
1
1
1
1
1
1
1
1
1
1
1
1
1
1
1
1
1
1
1
1
1
1
1.65506
2.58098
2.67617
2.67019
2.66751
2.6645
2.66158
2.65863
2.65562
2.65265
2.64956
2.6465
2.64333
2.64013
2.63687
1
1
1
1
1
1
1
1
1
1
1
1
1
1
1
1
1
1
1
1
1
1
1
1
1
1
1
1
1
1
1
1
1
1
1
1
1
1
1
1
1
1
1
1
1
1
1
1
1
1
1
1
1
1
1
1
1
1
1
1
1
1
1
1
1
1
1
1
1
1
1
1
1
1
1
1
1
1
1
1
1
1.54568
2.55446
2.67789
2.67176
2.66899
2.6659
2.66289
2.65987
2.6568
2.65379
2.65065
2.64754
2.64433
2.64111
2.63782
1
1
1
1
1
1
1
1
1
1
1
1
1
1
1
1
1
1
1
1
1
1
1
1
1
1
1
1
1
1
1
1
1
1
1
1
1
1
1
1
1
1
1
1
1
1
1
1
1
1
1
1
1
1
1
1
1
1
1
1
1
1
1
1
1
1
1
1
1
1
1
1
1
1
1
1
1
1
1
1
1
1.45923
2.52913
2.67961
2.67358
2.67076
2.66765
2.66461
2.66155
2.65844
2.65538
2.6522
2.64905
2.64578
2.64251
2.63918
1
1
1
1
1
1
1
1
1
1
1
1
1
1
1
1
1
1
1
1
1
1
1
1
1
1
1
1
1
1
1
1
1
1
1
1
1
1
1
1
1
1
1
1
1
1
1
1
1
1
1
1
1
1
1
1
1
1
1
1
1
1
1
1
1
1
1
1
1
1
1
1
1
1
1
1
1
1
1
1
1
1.39356
2.50632
2.68029
2.67464
2.67188
2.66881
2.66581
2.66279
2.6597
2.65664
2.6535
2.65034
2.64705
2.64376
2.64041
1
1
1
1
1
1
1
1
1
1
1
1
1
1
1
1
1
1
1
1
1
1
1
1
1
1
1
1
1
1
1
1
1
1
1
1
1
1
1
1
1
1
1
1
1
1
1
1
1
1
1
1
1
1
1
1
1
1
1
1
1
1
1
1
1
1
1
1
1
1
1
1
1
1
1
1
1
1
1
1
1
1.3452
2.48691
2.68027
2.67501
2.67232
2.66931
2.66639
2.66342
2.66039
2.65732
2.65423
2.65108
2.64782
2.64454
2.64121
1
1
1
1
1
1
1
1
1
1
1
1
1
1
1
1
1
1
1