/*--------------------------------*- C++ -*----------------------------------*\
  =========                 |
  \\      /  F ield         | OpenFOAM: The Open Source CFD Toolbox
   \\    /   O peration     | Website:  https://openfoam.org
    \\  /    A nd           | Version:  7
     \\/     M anipulation  |
\*---------------------------------------------------------------------------*/
FoamFile
{
    version     2.0;
    format      ascii;
    class       volScalarField;
    location    "2.74";
    object      T;
}
// * * * * * * * * * * * * * * * * * * * * * * * * * * * * * * * * * * * * * //

dimensions      [0 0 0 1 0 0 0];

internalField   nonuniform List<scalar> 
1000
(
0.035709
0.0357112
0.0357157
0.0357224
0.0357314
0.0357426
0.035756
0.0357717
0.0357896
0.0358097
0.0358321
0.0358567
0.0358836
0.0359127
0.035944
0.0359776
0.0360134
0.0360514
0.0360917
0.0361342
0.0361789
0.0362258
0.036275
0.0363264
0.0363801
0.036436
0.036494
0.0365544
0.0366169
0.0366817
0.0367487
0.0368179
0.0368893
0.0369629
0.0370388
0.0371168
0.0371971
0.0372796
0.0373643
0.0374512
0.0375403
0.0376316
0.0377252
0.0378209
0.0379188
0.0380189
0.0381212
0.0382257
0.0383324
0.0384413
0.0385524
0.0386656
0.0387811
0.0388987
0.0390185
0.0391404
0.0392646
0.0393909
0.0395194
0.03965
0.0397828
0.0399178
0.0400549
0.0401942
0.0403356
0.0404792
0.0406249
0.0407727
0.0409227
0.0410749
0.0412291
0.0413855
0.0415441
0.0417047
0.0418675
0.0420324
0.0421993
0.0423685
0.0425397
0.042713
0.0428884
0.0430659
0.0432455
0.0434272
0.0436109
0.0437968
0.0439847
0.0441747
0.0443667
0.0445608
0.044757
0.0449552
0.0451555
0.0453578
0.0455622
0.0457686
0.045977
0.0461874
0.0463999
0.0466144
0.0468309
0.0470494
0.0472699
0.0474924
0.0477169
0.0479434
0.0481718
0.0484022
0.0486346
0.048869
0.0491053
0.0493436
0.0495838
0.049826
0.0500701
0.0503161
0.0505641
0.0508139
0.0510657
0.0513194
0.051575
0.0518324
0.0520918
0.052353
0.0526162
0.0528811
0.053148
0.0534167
0.0536872
0.0539596
0.0542338
0.0545098
0.0547876
0.0550673
0.0553488
0.055632
0.0559171
0.0562039
0.0564925
0.0567829
0.057075
0.0573689
0.0576645
0.0579618
0.0582609
0.0585617
0.0588642
0.0591684
0.0594743
0.0597819
0.0600911
0.060402
0.0607146
0.0610289
0.0613447
0.0616622
0.0619814
0.0623021
0.0626244
0.0629484
0.0632739
0.063601
0.0639297
0.0642599
0.0645917
0.064925
0.0652599
0.0655962
0.0659341
0.0662735
0.0666143
0.0669567
0.0673005
0.0676457
0.0679924
0.0683406
0.0686901
0.0690411
0.0693935
0.0697473
0.0701025
0.070459
0.0708169
0.0711761
0.0715367
0.0718986
0.0722618
0.0726264
0.0729922
0.0733593
0.0737276
0.0740973
0.0744681
0.0748402
0.0752135
0.0755881
0.0759638
0.0763407
0.0767187
0.077098
0.0774783
0.0778598
0.0782425
0.0786262
0.079011
0.0793969
0.0797839
0.0801719
0.080561
0.0809511
0.0813422
0.0817343
0.0821274
0.0825214
0.0829165
0.0833124
0.0837093
0.0841072
0.0845059
0.0849055
0.085306
0.0857073
0.0861095
0.0865125
0.0869164
0.087321
0.0877264
0.0881326
0.0885396
0.0889473
0.0893557
0.0897649
0.0901747
0.0905852
0.0909964
0.0914083
0.0918207
0.0922338
0.0926475
0.0930618
0.0934767
0.0938921
0.0943081
0.0947246
0.0951416
0.0955591
0.095977
0.0963955
0.0968143
0.0972336
0.0976533
0.0980735
0.0984939
0.0989148
0.099336
0.0997575
0.100179
0.100601
0.101024
0.101447
0.101869
0.102293
0.102716
0.10314
0.103563
0.103987
0.104411
0.104835
0.10526
0.105684
0.106108
0.106533
0.106957
0.107382
0.107806
0.108231
0.108655
0.10908
0.109504
0.109928
0.110352
0.110776
0.1112
0.111624
0.112047
0.112471
0.112894
0.113317
0.113739
0.114162
0.114584
0.115006
0.115427
0.115848
0.116269
0.116689
0.117109
0.117529
0.117948
0.118366
0.118784
0.119202
0.119619
0.120036
0.120452
0.120867
0.121282
0.121696
0.12211
0.122523
0.122935
0.123347
0.123758
0.124168
0.124578
0.124987
0.125395
0.125802
0.126208
0.126614
0.127018
0.127422
0.127825
0.128227
0.128628
0.129028
0.129427
0.129826
0.130223
0.130619
0.131014
0.131408
0.131801
0.132193
0.132584
0.132973
0.133362
0.133749
0.134135
0.13452
0.134904
0.135286
0.135667
0.136047
0.136426
0.136803
0.137179
0.137553
0.137927
0.138298
0.138669
0.139038
0.139405
0.139771
0.140136
0.140499
0.14086
0.14122
0.141579
0.141935
0.142291
0.142644
0.142996
0.143347
0.143695
0.144042
0.144388
0.144731
0.145073
0.145413
0.145751
0.146088
0.146423
0.146756
0.147087
0.147416
0.147743
0.148069
0.148392
0.148714
0.149034
0.149351
0.149667
0.149981
0.150293
0.150603
0.15091
0.151216
0.15152
0.151821
0.152121
0.152418
0.152713
0.153006
0.153297
0.153586
0.153872
0.154157
0.154439
0.154719
0.154996
0.155272
0.155545
0.155815
0.156084
0.15635
0.156614
0.156875
0.157134
0.157391
0.157645
0.157897
0.158147
0.158394
0.158638
0.15888
0.15912
0.159357
0.159592
0.159824
0.160054
0.160281
0.160506
0.160728
0.160947
0.161164
0.161378
0.16159
0.161799
0.162005
0.162209
0.16241
0.162609
0.162804
0.162998
0.163188
0.163376
0.163561
0.163743
0.163922
0.164099
0.164273
0.164445
0.164613
0.164779
0.164942
0.165102
0.165259
0.165414
0.165565
0.165714
0.16586
0.166003
0.166144
0.166281
0.166416
0.166547
0.166676
0.166802
0.166925
0.167045
0.167162
0.167276
0.167388
0.167496
0.167601
0.167704
0.167803
0.1679
0.167994
0.168084
0.168172
0.168257
0.168338
0.168417
0.168493
0.168565
0.168635
0.168702
0.168766
0.168826
0.168884
0.168939
0.16899
0.169039
0.169085
0.169127
0.169167
0.169203
0.169237
0.169267
0.169294
0.169319
0.16934
0.169358
0.169374
0.169386
0.169395
0.169401
0.169404
0.169404
0.169401
0.169395
0.169386
0.169374
0.169358
0.16934
0.169319
0.169294
0.169267
0.169237
0.169203
0.169167
0.169127
0.169085
0.169039
0.16899
0.168939
0.168884
0.168826
0.168766
0.168702
0.168635
0.168565
0.168493
0.168417
0.168338
0.168257
0.168172
0.168084
0.167994
0.1679
0.167803
0.167704
0.167601
0.167496
0.167388
0.167276
0.167162
0.167045
0.166925
0.166802
0.166676
0.166547
0.166416
0.166281
0.166144
0.166003
0.16586
0.165714
0.165565
0.165414
0.165259
0.165102
0.164942
0.164779
0.164613
0.164445
0.164273
0.164099
0.163922
0.163743
0.163561
0.163376
0.163188
0.162998
0.162804
0.162609
0.16241
0.162209
0.162005
0.161799
0.16159
0.161378
0.161164
0.160947
0.160728
0.160506
0.160281
0.160054
0.159824
0.159592
0.159357
0.15912
0.15888
0.158638
0.158394
0.158147
0.157897
0.157645
0.157391
0.157134
0.156875
0.156614
0.15635
0.156084
0.155815
0.155545
0.155272
0.154996
0.154719
0.154439
0.154157
0.153872
0.153586
0.153297
0.153006
0.152713
0.152418
0.152121
0.151821
0.15152
0.151216
0.15091
0.150603
0.150293
0.149981
0.149667
0.149351
0.149034
0.148714
0.148392
0.148069
0.147743
0.147416
0.147087
0.146756
0.146423
0.146088
0.145751
0.145413
0.145073
0.144731
0.144388
0.144042
0.143695
0.143347
0.142996
0.142644
0.142291
0.141935
0.141579
0.14122
0.14086
0.140499
0.140136
0.139771
0.139405
0.139038
0.138669
0.138298
0.137927
0.137553
0.137179
0.136803
0.136426
0.136047
0.135667
0.135286
0.134904
0.13452
0.134135
0.133749
0.133362
0.132973
0.132584
0.132193
0.131801
0.131408
0.131014
0.130619
0.130223
0.129826
0.129427
0.129028
0.128628
0.128227
0.127825
0.127422
0.127018
0.126614
0.126208
0.125802
0.125395
0.124987
0.124578
0.124168
0.123758
0.123347
0.122935
0.122523
0.12211
0.121696
0.121282
0.120867
0.120452
0.120036
0.119619
0.119202
0.118784
0.118366
0.117948
0.117529
0.117109
0.116689
0.116269
0.115848
0.115427
0.115006
0.114584
0.114162
0.113739
0.113317
0.112894
0.112471
0.112047
0.111624
0.1112
0.110776
0.110352
0.109928
0.109504
0.10908
0.108655
0.108231
0.107806
0.107382
0.106957
0.106533
0.106108
0.105684
0.10526
0.104835
0.104411
0.103987
0.103563
0.10314
0.102716
0.102293
0.101869
0.101447
0.101024
0.100601
0.100179
0.0997575
0.099336
0.0989148
0.0984939
0.0980735
0.0976533
0.0972336
0.0968143
0.0963955
0.095977
0.0955591
0.0951416
0.0947246
0.0943081
0.0938921
0.0934767
0.0930618
0.0926475
0.0922338
0.0918207
0.0914083
0.0909964
0.0905852
0.0901747
0.0897649
0.0893557
0.0889473
0.0885396
0.0881326
0.0877264
0.087321
0.0869164
0.0865125
0.0861095
0.0857073
0.085306
0.0849055
0.0845059
0.0841072
0.0837093
0.0833124
0.0829165
0.0825214
0.0821274
0.0817343
0.0813422
0.0809511
0.080561
0.0801719
0.0797839
0.0793969
0.079011
0.0786262
0.0782425
0.0778598
0.0774783
0.077098
0.0767187
0.0763407
0.0759638
0.0755881
0.0752135
0.0748402
0.0744681
0.0740973
0.0737276
0.0733593
0.0729922
0.0726264
0.0722618
0.0718986
0.0715367
0.0711761
0.0708169
0.070459
0.0701025
0.0697473
0.0693935
0.0690411
0.0686901
0.0683406
0.0679924
0.0676457
0.0673005
0.0669567
0.0666143
0.0662735
0.0659341
0.0655962
0.0652599
0.064925
0.0645917
0.0642599
0.0639297
0.063601
0.0632739
0.0629484
0.0626244
0.0623021
0.0619814
0.0616622
0.0613447
0.0610289
0.0607146
0.060402
0.0600911
0.0597819
0.0594743
0.0591684
0.0588642
0.0585617
0.0582609
0.0579618
0.0576645
0.0573689
0.057075
0.0567829
0.0564925
0.0562039
0.0559171
0.055632
0.0553488
0.0550673
0.0547876
0.0545098
0.0542338
0.0539596
0.0536872
0.0534167
0.053148
0.0528811
0.0526162
0.052353
0.0520918
0.0518324
0.051575
0.0513194
0.0510657
0.0508139
0.0505641
0.0503161
0.0500701
0.049826
0.0495838
0.0493436
0.0491053
0.048869
0.0486346
0.0484022
0.0481718
0.0479434
0.0477169
0.0474924
0.0472699
0.0470494
0.0468309
0.0466144
0.0463999
0.0461874
0.045977
0.0457686
0.0455622
0.0453578
0.0451555
0.0449552
0.044757
0.0445608
0.0443667
0.0441747
0.0439847
0.0437968
0.0436109
0.0434272
0.0432455
0.0430659
0.0428884
0.042713
0.0425397
0.0423685
0.0421993
0.0420324
0.0418675
0.0417047
0.0415441
0.0413855
0.0412291
0.0410749
0.0409227
0.0407727
0.0406249
0.0404792
0.0403356
0.0401942
0.0400549
0.0399178
0.0397828
0.03965
0.0395194
0.0393909
0.0392646
0.0391404
0.0390185
0.0388987
0.0387811
0.0386656
0.0385524
0.0384413
0.0383324
0.0382257
0.0381212
0.0380189
0.0379188
0.0378209
0.0377252
0.0376316
0.0375403
0.0374512
0.0373643
0.0372796
0.0371971
0.0371168
0.0370388
0.0369629
0.0368893
0.0368179
0.0367487
0.0366817
0.0366169
0.0365544
0.036494
0.036436
0.0363801
0.0363264
0.036275
0.0362258
0.0361789
0.0361342
0.0360917
0.0360514
0.0360134
0.0359776
0.035944
0.0359127
0.0358836
0.0358567
0.0358321
0.0358097
0.0357896
0.0357717
0.035756
0.0357426
0.0357314
0.0357224
0.0357157
0.0357112
0.035709
)
;

boundaryField
{
    sides
    {
        type            zeroGradient;
    }
    empty
    {
        type            empty;
    }
}


// ************************************************************************* //
