/*--------------------------------*- C++ -*----------------------------------*\
  =========                 |
  \\      /  F ield         | OpenFOAM: The Open Source CFD Toolbox
   \\    /   O peration     | Website:  https://openfoam.org
    \\  /    A nd           | Version:  7
     \\/     M anipulation  |
\*---------------------------------------------------------------------------*/
FoamFile
{
    version     2.0;
    format      ascii;
    class       volScalarField;
    location    "12";
    object      p;
}
// * * * * * * * * * * * * * * * * * * * * * * * * * * * * * * * * * * * * * //

dimensions      [0 2 -2 0 0 0 0];

internalField   nonuniform List<scalar> 
8800
(
0.439191
0.391448
0.352848
0.323937
0.303176
0.288471
0.278021
0.270675
0.265931
0.263817
0.26484
0.268683
0.274968
0.283953
0.296464
0.313993
0.338617
0.372443
0.414859
0.473556
0.27026
0.277949
0.285598
0.289006
0.287627
0.282726
0.276436
0.270517
0.265889
0.263036
0.262593
0.264795
0.268931
0.274522
0.280951
0.286923
0.290333
0.289464
0.283826
0.275019
0.248562
0.254789
0.259034
0.262179
0.264419
0.265203
0.264279
0.262352
0.260428
0.259434
0.260137
0.262132
0.264503
0.266289
0.266561
0.265061
0.262438
0.258809
0.254139
0.250343
0.242366
0.245097
0.248179
0.250934
0.252888
0.254314
0.255278
0.255562
0.255331
0.2552
0.255649
0.256404
0.256806
0.256421
0.255382
0.25386
0.251601
0.248594
0.245905
0.244409
0.236956
0.238443
0.240644
0.243188
0.245436
0.247147
0.248365
0.249282
0.24995
0.250416
0.250719
0.250743
0.250375
0.249634
0.248409
0.246574
0.244239
0.24179
0.240147
0.239355
0.232073
0.232951
0.234893
0.237281
0.239617
0.241788
0.243574
0.244859
0.245746
0.246369
0.246728
0.24668
0.246126
0.244959
0.243203
0.241113
0.238856
0.236634
0.23535
0.23496
0.229347
0.229799
0.231163
0.232943
0.234666
0.236229
0.237731
0.239176
0.240411
0.24132
0.241687
0.241464
0.240753
0.239739
0.238544
0.237108
0.235457
0.233874
0.233045
0.232886
0.227939
0.228185
0.228961
0.230072
0.231336
0.232767
0.234207
0.235539
0.236737
0.237719
0.238237
0.238196
0.237725
0.236891
0.235794
0.234694
0.233715
0.232846
0.232408
0.232325
0.22612
0.226259
0.226671
0.22733
0.22808
0.228989
0.230141
0.231399
0.232663
0.233784
0.234458
0.23457
0.234273
0.23376
0.233255
0.232792
0.232276
0.231864
0.231651
0.231597
0.223412
0.223492
0.223788
0.2243
0.224947
0.225621
0.226615
0.227742
0.228964
0.230189
0.231095
0.231518
0.231578
0.231414
0.231248
0.230962
0.230667
0.230411
0.230297
0.230267
0.220208
0.220248
0.220476
0.220918
0.221435
0.222302
0.223167
0.224269
0.225572
0.226984
0.22817
0.228893
0.22924
0.22935
0.229258
0.2292
0.229026
0.228872
0.228822
0.228809
0.216745
0.21677
0.216954
0.21734
0.217872
0.218569
0.219468
0.220621
0.222048
0.223711
0.225251
0.22634
0.227021
0.227418
0.227599
0.227644
0.227598
0.227547
0.227542
0.227533
0.212945
0.212971
0.213128
0.213465
0.213977
0.21469
0.215661
0.216955
0.218612
0.220631
0.222606
0.224091
0.225096
0.225744
0.226128
0.226337
0.226431
0.226477
0.226503
0.226494
0.208684
0.208708
0.20887
0.209202
0.209727
0.2105
0.211595
0.213098
0.215087
0.217577
0.220091
0.222057
0.223424
0.224355
0.224959
0.225332
0.225552
0.225675
0.225727
0.225717
0.203861
0.203886
0.204071
0.204437
0.205031
0.205924
0.20722
0.209033
0.211469
0.214569
0.217745
0.220257
0.22209
0.223335
0.224167
0.224704
0.225037
0.225227
0.225301
0.22529
0.198373
0.198403
0.198622
0.199061
0.19977
0.200851
0.202434
0.204669
0.207697
0.21158
0.215597
0.218821
0.22114
0.222754
0.223841
0.224552
0.225
0.225256
0.225354
0.22534
0.192061
0.192099
0.192375
0.19292
0.1938
0.195147
0.197121
0.199918
0.203717
0.208599
0.213658
0.217718
0.220658
0.222709
0.224095
0.225005
0.22558
0.225909
0.226034
0.226018
0.184711
0.184758
0.185107
0.1858
0.186937
0.188651
0.191147
0.194676
0.199471
0.205618
0.211974
0.217068
0.220756
0.22333
0.225073
0.226218
0.226942
0.227354
0.227511
0.227491
0.176035
0.176095
0.176547
0.177449
0.178912
0.181106
0.1843
0.188812
0.194891
0.20264
0.210606
0.216967
0.221566
0.224776
0.22695
0.228379
0.229279
0.229789
0.229984
0.229959
0.165631
0.165711
0.166304
0.167485
0.169399
0.172251
0.176393
0.182177
0.189907
0.199674
0.209631
0.217541
0.223247
0.227229
0.22993
0.231706
0.232824
0.233457
0.233694
0.233659
0.152956
0.153069
0.153855
0.15543
0.157963
0.161726
0.167119
0.17458
0.184448
0.19675
0.20915
0.218938
0.225984
0.230904
0.234249
0.236456
0.237846
0.238628
0.238924
0.238876
0.137229
0.13739
0.138454
0.140599
0.14402
0.14903
0.156148
0.165871
0.178491
0.193942
0.209296
0.22133
0.229984
0.23604
0.240175
0.242918
0.244652
0.245613
0.245974
0.245913
0.117264
0.117495
0.119001
0.122032
0.126778
0.13363
0.143195
0.155939
0.17207
0.191375
0.210237
0.224912
0.23547
0.242896
0.248003
0.251426
0.253616
0.254839
0.255276
0.255196
0.0911719
0.0915265
0.0938055
0.0983376
0.105203
0.114866
0.127918
0.144714
0.16529
0.189222
0.212151
0.229857
0.242631
0.2517
0.25802
0.262319
0.265114
0.266692
0.267258
0.26715
0.0557989
0.0564539
0.0602955
0.0676199
0.0780756
0.0921166
0.110158
0.132318
0.158374
0.187697
0.215198
0.236279
0.251566
0.262579
0.270423
0.275904
0.279566
0.281666
0.282406
0.282258
0.00491033
0.00687416
0.0147506
0.0278089
0.0445861
0.0653776
0.090312
0.119241
0.151746
0.187088
0.219515
0.244204
0.26223
0.275458
0.285167
0.292245
0.297223
0.300254
0.301348
0.301139
-0.0716876
-0.0614125
-0.0433519
-0.0200248
0.00629372
0.0360792
0.0694118
0.106113
0.14577
0.18769
0.225506
0.254247
0.275492
0.291478
0.30369
0.313153
0.32041
0.325353
0.327514
0.327724
-0.153251
-0.130533
-0.101809
-0.0681872
-0.0321621
0.00668026
0.0484493
0.0930759
0.140263
0.189468
0.233689
0.267539
0.292989
0.312643
0.328206
0.340798
0.350994
0.359722
0.364101
0.364463
-0.21643
-0.191488
-0.154494
-0.11271
-0.0682092
-0.0210717
0.0286604
0.0808597
0.135236
0.19128
0.2413
0.279531
0.308344
0.330702
0.348472
0.362859
0.374472
0.38386
0.387869
0.388496
-0.267419
-0.24036
-0.198797
-0.151157
-0.100211
-0.0463286
0.0102568
0.0692225
0.13014
0.192407
0.247522
0.289274
0.320437
0.344329
0.363045
0.377997
0.389994
0.399223
0.403519
0.404139
-0.308602
-0.28095
-0.23598
-0.184
-0.128117
-0.0688607
-0.00659402
0.0582028
0.124919
0.192721
0.252244
0.296877
0.329787
0.354693
0.373949
0.389103
0.401093
0.410115
0.414617
0.415242
-0.343478
-0.315564
-0.26821
-0.212792
-0.152899
-0.0891639
-0.0220623
0.0478118
0.119696
0.192567
0.256171
0.303381
0.33776
0.363428
0.382981
0.398144
0.410014
0.418814
0.423328
0.423964
-0.373957
-0.34599
-0.296888
-0.238674
-0.175428
-0.107869
-0.0365522
0.0378604
0.114479
0.192047
0.259421
0.309014
0.344747
0.371103
0.390942
0.406152
0.417941
0.426522
0.431011
0.431666
-0.401612
-0.373595
-0.323017
-0.262518
-0.19645
-0.125595
-0.0505423
0.0279563
0.108898
0.190888
0.261991
0.314031
0.351191
0.378315
0.398507
0.413818
0.42556
0.434043
0.438435
0.439106
-0.427237
-0.399114
-0.347368
-0.284891
-0.216394
-0.142678
-0.064355
0.0178175
0.102829
0.189151
0.264036
0.318658
0.35739
0.385403
0.406045
0.421533
0.433285
0.44167
0.445936
0.446679
-0.451491
-0.423181
-0.370411
-0.306226
-0.235631
-0.159415
-0.0781557
0.00739997
0.0962324
0.186764
0.265514
0.322934
0.363467
0.392559
0.413789
0.42955
0.441374
0.449695
0.453825
0.454586
-0.474642
-0.446119
-0.392417
-0.326843
-0.254376
-0.175937
-0.0920646
-0.00344887
0.0889452
0.183604
0.266356
0.326843
0.369472
0.399882
0.421879
0.438033
0.450001
0.458298
0.462285
0.46301
-0.497039
-0.468192
-0.413684
-0.346883
-0.272786
-0.192413
-0.10622
-0.0148305
0.0808995
0.179566
0.266447
0.330297
0.375371
0.407406
0.430393
0.447092
0.459305
0.467631
0.471463
0.472104
-0.518703
-0.489558
-0.434471
-0.366448
-0.290943
-0.208884
-0.120639
-0.0267488
0.072051
0.174569
0.265643
0.333158
0.381059
0.415085
0.439343
0.456779
0.469351
0.477749
0.481465
0.481942
-0.539712
-0.510236
-0.454618
-0.385559
-0.308847
-0.225323
-0.135299
-0.0392065
0.0623842
0.168547
0.263811
0.335238
0.386346
0.422776
0.448648
0.467069
0.480152
0.488692
0.492317
0.49259
-0.560132
-0.530333
-0.474161
-0.404232
-0.326497
-0.241719
-0.15017
-0.0521609
0.0519191
0.161451
0.260816
0.336314
0.390982
0.430266
0.458185
0.477896
0.491679
0.500413
0.503937
0.504004
-0.580013
-0.549841
-0.493126
-0.422447
-0.34384
-0.258017
-0.16518
-0.0655474
0.0406964
0.153266
0.256528
0.336139
0.394693
0.437341
0.467838
0.489196
0.503842
0.512782
0.5161
0.515989
-0.599182
-0.568673
-0.511466
-0.440163
-0.36082
-0.274134
-0.180252
-0.079271
0.0287998
0.144039
0.250871
0.334499
0.397149
0.443657
0.477363
0.500916
0.516615
0.525678
0.528671
0.528343
-0.617642
-0.586808
-0.529162
-0.45732
-0.377376
-0.290006
-0.19529
-0.093236
0.016333
0.133818
0.243823
0.331207
0.397922
0.448662
0.486368
0.513012
0.530138
0.538963
0.541248
0.540682
-0.635416
-0.604195
-0.546195
-0.473883
-0.39345
-0.305548
-0.210201
-0.107332
0.00341052
0.12271
0.235376
0.326147
0.396663
0.451697
0.494178
0.525313
0.545026
0.553158
0.55345
0.552505
-0.652373
-0.620865
-0.562503
-0.489795
-0.408986
-0.320686
-0.224888
-0.121441
-0.00983865
0.110851
0.225618
0.319233
0.393117
0.452033
0.499674
0.537021
0.562037
0.570831
0.566567
0.563741
-0.668611
-0.63678
-0.578114
-0.505077
-0.424017
-0.335468
-0.239412
-0.135621
-0.0234739
0.0981802
0.214465
0.310258
0.387021
0.448941
0.501076
0.545847
0.58008
0.59702
0.591258
0.567758
-0.684083
-0.651966
-0.593135
-0.519896
-0.438807
-0.350196
-0.254157
-0.150337
-0.0380312
0.0840437
0.20121
0.298384
0.377476
0.441191
0.495162
0.545874
0.587778
0.606507
0.593464
0.56563
-0.698666
-0.666612
-0.607404
-0.534005
-0.453085
-0.364545
-0.268903
-0.165261
-0.053178
0.0687793
0.186093
0.283561
0.364118
0.428697
0.478181
0.527132
0.562456
0.568547
0.50193
0.45678
-0.711764
-0.681385
-0.620505
-0.546847
-0.466224
-0.378089
-0.283377
-0.180186
-0.0686939
0.0525763
0.169183
0.265811
0.346437
0.412322
0.452201
0.479128
0.49966
0.459825
0.38299
0.332111
-0.763995
-0.692994
-0.632299
-0.559906
-0.479575
-0.392117
-0.297667
-0.195355
-0.0848733
0.0350976
0.150115
0.244909
0.322747
0.392939
0.407261
0.408671
0.380795
0.31329
0.224364
0.175032
-0.720719
-0.706927
-0.648693
-0.578466
-0.498485
-0.411882
-0.318964
-0.218102
-0.109543
0.00778659
0.118948
0.209076
0.279173
0.33498
0.340951
0.214794
0.093505
0.0100684
-0.0775694
-0.0294575
-0.747564
-0.720606
-0.663179
-0.592547
-0.513327
-0.427396
-0.334789
-0.235128
-0.128222
-0.0133155
0.0942317
0.17943
0.24199
0.270123
0.211822
0.0358101
-0.126551
-0.240236
-0.363599
-0.288332
-0.767368
-0.736781
-0.679415
-0.608315
-0.529517
-0.444124
-0.352183
-0.253937
-0.149014
-0.0370622
0.0662389
0.145342
0.197707
0.198604
0.0702163
-0.166283
-0.370075
-0.525764
-0.70373
-0.634856
-0.785883
-0.753909
-0.69572
-0.62415
-0.545562
-0.460715
-0.369811
-0.273114
-0.170347
-0.0616627
0.0368269
0.109457
0.149406
0.110317
-0.0971
-0.375215
-0.640217
-0.876088
-1.13936
-1.11453
-0.802903
-0.770989
-0.712253
-0.640394
-0.562017
-0.477803
-0.388061
-0.293017
-0.192592
-0.0874672
0.00580367
0.0718333
0.0954693
0.00947091
-0.259873
-0.571098
-0.893784
-1.18725
-1.53955
-1.91413
-0.819487
-0.788013
-0.729193
-0.657306
-0.579168
-0.495598
-0.407008
-0.31365
-0.215668
-0.114235
-0.0263703
0.0325518
0.0399515
-0.0974405
-0.407153
-0.728873
-1.05856
-1.34179
-1.46878
-1.66663
-0.836253
-0.805223
-0.746719
-0.675027
-0.597277
-0.514488
-0.427188
-0.335748
-0.240577
-0.143331
-0.0614715
-0.0105144
-0.0218381
-0.223108
-0.538191
-0.85022
-1.12453
-1.30166
-1.34061
-1.37445
-0.85344
-0.822853
-0.764724
-0.693483
-0.616286
-0.534477
-0.448736
-0.359581
-0.267615
-0.175168
-0.0998907
-0.0576644
-0.0988375
-0.346112
-0.654322
-0.954746
-1.18083
-1.26277
-1.29152
-1.29808
-0.871174
-0.840931
-0.783141
-0.712464
-0.635962
-0.555374
-0.471492
-0.384996
-0.29673
-0.209703
-0.141508
-0.109409
-0.181281
-0.462059
-0.757547
-1.06026
-1.27122
-1.29114
-1.28556
-1.28357
-0.889215
-0.859302
-0.801869
-0.731735
-0.65608
-0.576935
-0.495192
-0.411752
-0.327722
-0.246657
-0.186459
-0.166882
-0.271449
-0.572303
-0.842084
-1.1419
-1.36594
-1.32025
-1.2891
-1.27645
-0.907225
-0.877619
-0.820569
-0.750986
-0.676331
-0.598789
-0.51959
-0.439696
-0.360442
-0.285881
-0.234731
-0.226467
-0.367476
-0.677474
-0.890538
-1.09707
-1.25159
-1.25014
-1.23498
-1.2277
-0.924516
-0.895212
-0.838745
-0.769705
-0.696178
-0.620526
-0.544162
-0.46838
-0.394477
-0.326631
-0.285963
-0.285883
-0.48309
-0.794352
-0.910943
-0.867116
-1.00943
-1.13999
-1.20674
-1.21824
-0.940449
-0.91151
-0.855607
-0.787226
-0.714873
-0.641328
-0.568222
-0.497123
-0.42897
-0.368349
-0.338995
-0.349664
-0.625297
-1.00022
-1.14494
-0.907122
-1.06116
-1.26519
-1.38255
-1.41073
-0.95426
-0.925733
-0.870298
-0.802506
-0.731487
-0.660296
-0.590936
-0.5251
-0.463277
-0.410086
-0.390513
-0.422718
-0.80095
-1.37341
-1.92726
-1.96462
-1.86795
-1.84018
-1.85599
-1.87618
-0.964557
-0.936576
-0.881654
-0.814449
-0.744893
-0.676344
-0.611281
-0.551419
-0.497028
-0.450763
-0.438854
-0.494618
-0.957705
-1.77184
-2.77005
-3.35631
-3.18271
-2.84303
-2.60079
-2.54553
-0.969872
-0.942569
-0.88822
-0.82171
-0.753756
-0.688132
-0.627914
-0.575647
-0.53128
-0.491476
-0.478272
-0.563485
-0.999223
-1.80896
-2.83357
-3.65329
-3.77168
-3.5303
-3.16258
-2.96655
-0.968594
-0.942037
-0.888397
-0.82275
-0.756578
-0.69414
-0.639449
-0.596787
-0.567317
-0.539287
-0.518791
-0.595288
-0.891765
-1.43925
-2.02287
-2.51303
-2.6965
-2.65827
-2.46186
-2.33141
-0.959132
-0.933272
-0.880544
-0.816042
-0.751854
-0.692893
-0.644893
-0.615102
-0.60995
-0.613968
-0.594325
-0.587934
-0.694091
-0.799619
-0.85676
-0.876556
-0.831616
-0.744155
-0.614432
-0.525137
-0.939731
-0.914644
-0.863165
-0.800242
-0.738232
-0.683004
-0.642588
-0.630119
-0.666431
-0.76056
-0.808815
-0.678152
-0.475454
-0.184699
0.228422
0.642767
0.96243
1.16122
1.27075
1.31729
-0.909064
-0.885039
-0.835096
-0.774315
-0.71468
-0.663048
-0.630546
-0.640386
-0.745981
-1.04348
-1.28591
-0.930288
-0.431656
0.194994
0.891624
1.46543
1.90535
2.14234
2.24044
2.27165
-0.86676
-0.84301
-0.795085
-0.737509
-0.680353
-0.631586
-0.605422
-0.637017
-0.8337
-1.44868
-2.06574
-1.38465
-0.52858
0.293517
1.04789
1.61852
2.0096
2.19685
2.26962
2.28855
-0.811083
-0.78907
-0.744522
-0.689564
-0.634719
-0.587278
-0.562072
-0.599297
-0.823086
-1.60231
-2.44715
-1.57305
-0.613109
0.274838
0.953817
1.39945
1.67087
1.79999
1.86028
1.87265
-0.741982
-0.721948
-0.681456
-0.630433
-0.577889
-0.529958
-0.49914
-0.51858
-0.690563
-1.22408
-1.63238
-1.01223
-0.278483
0.389409
0.845451
1.12587
1.28929
1.38238
1.42678
1.43209
-0.660798
-0.642605
-0.607169
-0.560868
-0.511013
-0.462026
-0.421415
-0.406915
-0.461362
-0.633877
-0.656472
-0.273817
0.167807
0.524056
0.761181
0.914288
1.01388
1.07815
1.11361
1.12474
-0.570806
-0.557968
-0.525381
-0.483632
-0.437264
-0.388303
-0.339656
-0.296829
-0.267237
-0.237761
-0.128762
0.117678
0.354581
0.52244
0.643008
0.728653
0.791077
0.834
0.857312
0.863815
-0.460942
-0.454236
-0.431221
-0.397766
-0.358598
-0.314551
-0.266087
-0.214096
-0.157301
-0.081854
0.0392046
0.205297
0.354401
0.460601
0.537917
0.592861
0.631872
0.659529
0.67632
0.679079
-0.356334
-0.353128
-0.337046
-0.311978
-0.281361
-0.245018
-0.202239
-0.151969
-0.0909497
-0.00921479
0.0986415
0.216918
0.318095
0.391808
0.444245
0.480436
0.504742
0.519741
0.526839
0.528327
-0.259854
-0.258185
-0.248383
-0.230884
-0.208426
-0.18043
-0.145543
-0.101918
-0.0460649
0.0287514
0.118752
0.206032
0.27724
0.329144
0.365164
0.388949
0.403718
0.412115
0.415834
0.416061
-0.171841
-0.171525
-0.166306
-0.155971
-0.141452
-0.121785
-0.0953841
-0.0601619
-0.013221
0.0496982
0.122235
0.188053
0.23979
0.276929
0.301973
0.317798
0.326934
0.331557
0.333245
0.333061
-0.0962783
-0.096788
-0.0957091
-0.0917854
-0.0840823
-0.0716094
-0.052938
-0.026129
0.0112373
0.0619097
0.119104
0.16898
0.206961
0.233653
0.251109
0.261585
0.267212
0.269717
0.270456
0.270181
-0.0393474
-0.0402072
-0.0415189
-0.0416525
-0.0389154
-0.0319546
-0.0193794
0.000350677
0.0290672
0.0685833
0.112711
0.150337
0.178384
0.197601
0.209822
0.216958
0.22052
0.22186
0.222147
0.221865
-0.000938363
-0.00178966
-0.00383369
-0.00561992
-0.00545771
-0.0021328
0.00579014
0.0197915
0.0413214
0.071591
0.105291
0.133526
0.154153
0.16812
0.176826
0.181624
0.183794
0.184428
0.184456
0.184201
0.0228699
0.0221963
0.0203189
0.018349
0.0177103
0.0193631
0.0243603
0.0340449
0.0498002
0.0725455
0.0979815
0.119155
0.134431
0.144476
0.150467
0.153628
0.154894
0.15506
0.154927
0.15471
0.0368499
0.0363821
0.0349828
0.0333596
0.0325719
0.0334403
0.0368612
0.0437886
0.0552883
0.072192
0.0912093
0.106872
0.11792
0.125078
0.129293
0.13137
0.132028
0.131923
0.131719
0.131545
0.0447833
0.044472
0.0435292
0.0423752
0.041736
0.04218
0.0444305
0.0493632
0.0578115
0.0703164
0.084369
0.0959224
0.104054
0.109243
0.112158
0.113492
0.113804
0.113592
0.113384
0.113248
0.0491141
0.0489023
0.0482676
0.0474695
0.0470203
0.0473386
0.0489255
0.0524099
0.0585062
0.0677137
0.0781332
0.0866418
0.0925187
0.096173
0.0981739
0.0990259
0.0991378
0.0988956
0.0987079
0.0986015
0.0510651
0.0509134
0.0504502
0.049854
0.0494988
0.0496906
0.0508182
0.0533578
0.0578085
0.0645312
0.0721356
0.0783161
0.0825617
0.0851743
0.0865581
0.0870974
0.0871053
0.0868758
0.0867161
0.0866318
0.0512298
0.0511189
0.0507673
0.0503023
0.0500104
0.0501122
0.0508838
0.0526813
0.0559
0.0608105
0.0663761
0.0708808
0.0739403
0.075782
0.0767241
0.0770556
0.0770076
0.0768012
0.0766678
0.0766013
0.0500217
0.0499402
0.0496738
0.0493115
0.0490727
0.0491214
0.0496607
0.0509483
0.0532688
0.0568276
0.0608635
0.0641134
0.0662972
0.0675893
0.0682253
0.0684186
0.0683404
0.0681582
0.0680477
0.0679954
0.0477895
0.0477283
0.0475278
0.0472488
0.0470554
0.0470677
0.0474342
0.0483448
0.0500128
0.0525839
0.0555008
0.0578384
0.0593928
0.0602939
0.0607168
0.0608201
0.0607305
0.0605747
0.0604845
0.0604434
0.0448201
0.0447732
0.0446236
0.0444128
0.0442609
0.0442555
0.0445042
0.0451469
0.046338
0.0481861
0.0502831
0.0519534
0.05305
0.0536714
0.0539471
0.0539933
0.0539034
0.0537722
0.0536986
0.0536661
0.0413296
0.0412931
0.0411804
0.041021
0.040902
0.0408867
0.0410532
0.0415032
0.0423494
0.0436707
0.0451684
0.0463538
0.047122
0.0475456
0.0477203
0.0477318
0.0476483
0.04754
0.0474802
0.0474545
0.0374692
0.0374403
0.0373543
0.0372326
0.0371383
0.0371172
0.037226
0.0375379
0.0381345
0.0390719
0.0401354
0.0409705
0.0415033
0.0417881
0.0418946
0.0418855
0.0418102
0.0417208
0.0416723
0.0416521
0.0333436
0.0333208
0.033254
0.0331598
0.033084
0.0330598
0.0331277
0.0333402
0.0337561
0.0344156
0.035164
0.0357475
0.0361134
0.0363007
0.0363612
0.0363402
0.0362738
0.0362006
0.0361615
0.0361456
0.0290264
0.0290083
0.028956
0.0288818
0.0288196
0.0287935
0.0288323
0.0289738
0.0292605
0.0297202
0.0302412
0.0306436
0.0308908
0.0310109
0.0310411
0.0310144
0.0309569
0.0308969
0.0308653
0.0308528
0.0245692
0.024555
0.0245137
0.0244549
0.0244036
0.0243771
0.0243961
0.0244875
0.0246813
0.0249969
0.025355
0.0256284
0.0257914
0.0258646
0.0258753
0.0258467
0.0257974
0.0257485
0.0257231
0.0257134
0.0200109
0.0199996
0.0199671
0.0199204
0.019878
0.0198527
0.0198589
0.0199157
0.0200435
0.0202552
0.020496
0.0206776
0.020782
0.020824
0.0208226
0.0207943
0.0207526
0.0207132
0.020693
0.0206856
0.0153785
0.01537
0.0153447
0.0153077
0.0152732
0.0152501
0.0152484
0.0152809
0.0153617
0.0154995
0.0156565
0.0157733
0.0158376
0.0158592
0.0158512
0.0158251
0.0157904
0.0157587
0.0157428
0.0157373
0.0106912
0.010685
0.0106656
0.010637
0.0106104
0.0105916
0.0105867
0.0106038
0.0106516
0.0107356
0.0108316
0.0109015
0.0109378
0.0109468
0.010937
0.0109156
0.0108884
0.0108636
0.0108516
0.0108477
0.00596163
0.00595737
0.00594416
0.00592549
0.00590843
0.00589636
0.00589217
0.00590004
0.00592449
0.00596751
0.00601658
0.00605142
0.00606829
0.00607101
0.00606371
0.00604955
0.00603145
0.00601465
0.00600633
0.00600367
0.00120061
0.00120036
0.00119968
0.00119475
0.00118952
0.00118555
0.00118295
0.00118236
0.00118436
0.00118956
0.00119756
0.0012049
0.00120908
0.00121038
0.0012091
0.00120587
0.00120139
0.00119596
0.00119282
0.00119273
-0.814341
-0.565075
-0.285574
-0.0602278
0.122365
0.270317
0.396208
0.502823
0.552883
0.530257
-0.368018
-0.199917
-0.0257869
0.123439
0.250149
0.356781
0.444034
0.506824
0.53974
0.550594
-0.0674287
0.0430055
0.158554
0.261254
0.349952
0.424514
0.483905
0.527318
0.557449
0.574209
0.139945
0.215247
0.29604
0.368709
0.432015
0.485617
0.52929
0.563498
0.590124
0.607648
0.294931
0.349
0.405847
0.459671
0.507076
0.548107
0.58273
0.610976
0.633723
0.651096
0.417683
0.457136
0.50162
0.54379
0.581956
0.615756
0.644918
0.669024
0.688414
0.705542
0.520996
0.553495
0.592063
0.628169
0.66161
0.691671
0.7177
0.739083
0.75563
0.772643
0.616387
0.647962
0.684816
0.719345
0.751099
0.779503
0.803827
0.823383
0.837477
0.854533
0.715921
0.750586
0.788958
0.824067
0.855454
0.882769
0.905648
0.923609
0.935993
0.953455
0.833484
0.872232
0.911879
0.947038
0.977204
1.00267
1.02363
1.03998
1.05181
1.06996
0.979951
1.01903
1.05579
1.08705
1.11324
1.13579
1.15522
1.17105
1.18371
1.20177
1.15601
1.18794
1.21449
1.23728
1.25757
1.27656
1.29449
1.31114
1.32665
1.34478
1.3452
1.36256
1.37781
1.39428
1.41036
1.42503
1.43838
1.45242
1.47004
1.49024
1.52722
1.53686
1.54852
1.55941
1.56876
1.57846
1.58939
1.60084
1.61227
1.62765
1.73474
1.73842
1.72349
1.7087
1.70257
1.70833
1.72685
1.7572
1.78941
1.81609
2.04103
1.90618
1.82967
1.78748
1.77003
1.77401
1.80146
1.85787
1.96051
2.18488
0.329781
0.327704
0.323213
0.31466
0.302554
0.290571
0.280498
0.272748
0.267234
0.263986
0.263474
0.265885
0.27062
0.277486
0.286562
0.297837
0.31027
0.321145
0.32722
0.330201
0.254005
0.259874
0.266334
0.270981
0.273616
0.273462
0.270912
0.267289
0.263905
0.26164
0.261308
0.263183
0.26645
0.270336
0.273778
0.275359
0.274169
0.270455
0.265086
0.258387
0.245339
0.247651
0.251215
0.25446
0.256794
0.258541
0.259534
0.259407
0.258483
0.25757
0.257542
0.25863
0.260046
0.260929
0.260689
0.259403
0.257485
0.254805
0.251274
0.248232
0.239595
0.240654
0.242736
0.245519
0.247924
0.249662
0.250908
0.251835
0.252386
0.252666
0.252957
0.253286
0.253364
0.252954
0.252104
0.250807
0.248852
0.246259
0.24374
0.242231
0.234366
0.234949
0.23643
0.238838
0.241312
0.243576
0.245359
0.246598
0.247473
0.248091
0.248527
0.248731
0.24853
0.247884
0.246666
0.244806
0.242539
0.240146
0.238145
0.23723
0.2304
0.230642
0.231747
0.233789
0.235909
0.237864
0.239701
0.241349
0.242662
0.243625
0.24421
0.244285
0.243825
0.242823
0.241411
0.239762
0.237876
0.235841
0.234205
0.23368
0.228622
0.228733
0.22939
0.230697
0.232181
0.233646
0.235084
0.236456
0.23773
0.238816
0.23953
0.239679
0.239312
0.238586
0.237607
0.236447
0.235155
0.233858
0.232882
0.232599
0.227137
0.227196
0.227544
0.228251
0.229113
0.230364
0.231625
0.232971
0.23428
0.235455
0.236309
0.236598
0.236368
0.235786
0.235005
0.234024
0.233332
0.232674
0.232204
0.232059
0.224858
0.224895
0.225101
0.22555
0.226164
0.226838
0.227736
0.228816
0.230023
0.231236
0.232249
0.232775
0.232839
0.232631
0.232315
0.232028
0.231663
0.231317
0.23108
0.231004
0.221847
0.221861
0.222007
0.222394
0.222952
0.223622
0.224426
0.225491
0.226691
0.227994
0.22921
0.23002
0.230376
0.23041
0.230318
0.230223
0.22998
0.229723
0.229573
0.229539
0.218508
0.218508
0.218614
0.218929
0.219423
0.220044
0.220847
0.221841
0.223079
0.224534
0.226021
0.227169
0.227862
0.22825
0.228401
0.22838
0.228334
0.228215
0.228155
0.228148
0.214898
0.2149
0.214978
0.215246
0.215687
0.21629
0.217099
0.218167
0.219539
0.221225
0.223072
0.224617
0.225662
0.226324
0.226715
0.226909
0.226977
0.22698
0.226988
0.226992
0.210879
0.210873
0.210963
0.211205
0.211623
0.212239
0.21311
0.214307
0.215901
0.217931
0.220237
0.222255
0.223694
0.22466
0.225284
0.225667
0.225884
0.226001
0.226065
0.226079
0.206351
0.206344
0.206443
0.206697
0.207142
0.20782
0.208812
0.210215
0.212127
0.214616
0.217508
0.220107
0.221972
0.223307
0.224192
0.224765
0.225122
0.225334
0.225443
0.225465
0.201213
0.201202
0.201315
0.201615
0.20213
0.202928
0.204113
0.205814
0.208162
0.211254
0.214889
0.218182
0.220638
0.222342
0.223512
0.224285
0.224781
0.225082
0.225233
0.225264
0.195334
0.19532
0.19546
0.195823
0.196454
0.197433
0.198892
0.201001
0.203929
0.207803
0.212377
0.216547
0.219642
0.221832
0.223334
0.224335
0.224983
0.225379
0.225575
0.225616
0.188532
0.188514
0.188694
0.189159
0.189953
0.191171
0.193003
0.195659
0.199348
0.204226
0.209982
0.21523
0.219123
0.221885
0.223782
0.225051
0.225877
0.226383
0.226632
0.226683
0.18056
0.180538
0.180773
0.181368
0.182375
0.183936
0.186281
0.189664
0.194332
0.20049
0.207729
0.214307
0.219177
0.222631
0.225006
0.226598
0.227637
0.228277
0.228591
0.228652
0.171081
0.171054
0.171365
0.17214
0.173447
0.175468
0.178493
0.182818
0.188772
0.196568
0.205661
0.213876
0.219937
0.224233
0.227186
0.229168
0.230467
0.231273
0.231667
0.231742
0.159625
0.159591
0.160014
0.161045
0.162765
0.165412
0.16934
0.174938
0.182573
0.192449
0.203844
0.214057
0.221565
0.226881
0.230536
0.23299
0.234601
0.235607
0.236095
0.236191
0.14551
0.145468
0.14606
0.147465
0.149773
0.153299
0.158501
0.165816
0.17563
0.18814
0.202368
0.214996
0.224243
0.230792
0.235302
0.238332
0.240325
0.241574
0.242184
0.242302
0.12776
0.127717
0.12858
0.130541
0.133716
0.13853
0.145515
0.155149
0.167833
0.183669
0.201343
0.216849
0.228164
0.236194
0.24175
0.245501
0.247977
0.249536
0.250316
0.250461
0.104913
0.104897
0.106209
0.109036
0.113548
0.120292
0.129851
0.14271
0.159163
0.179133
0.200917
0.219781
0.233513
0.243305
0.250143
0.254811
0.257921
0.259891
0.260876
0.261063
0.0745336
0.074605
0.0767422
0.0811089
0.0878971
0.0977393
0.111158
0.128477
0.149773
0.174751
0.201298
0.223967
0.240447
0.252296
0.260696
0.266541
0.270511
0.273066
0.274341
0.274578
0.0321397
0.0324943
0.0365356
0.0441307
0.0551645
0.070177
0.0893373
0.112673
0.140009
0.170852
0.202717
0.22954
0.249038
0.26322
0.273492
0.280851
0.286018
0.289472
0.291214
0.291512
-0.0303787
-0.0284069
-0.0189242
-0.00445234
0.0144916
0.0377226
0.0649123
0.0959096
0.130395
0.167783
0.205329
0.236494
0.259165
0.275872
0.288282
0.297527
0.304349
0.309112
0.311694
0.312027
-0.105029
-0.101779
-0.0842854
-0.0586055
-0.029081
0.00363363
0.039581
0.0787463
0.120888
0.165525
0.209733
0.246406
0.273438
0.293854
0.309567
0.321827
0.331524
0.338566
0.341357
0.342624
-0.181743
-0.172026
-0.146054
-0.110279
-0.0712347
-0.0293724
0.0151714
0.0623805
0.11211
0.163972
0.214866
0.257025
0.288288
0.312218
0.331017
0.346069
0.358215
0.367521
0.372598
0.374674
-0.239592
-0.228692
-0.197693
-0.155487
-0.109103
-0.0597317
-0.00768147
0.0468855
0.103686
0.16227
0.219248
0.26615
0.300767
0.327137
0.347706
0.364002
0.377001
0.386989
0.392895
0.395169
-0.286123
-0.274784
-0.24042
-0.193551
-0.141794
-0.0865898
-0.0283866
0.03245
0.0954796
0.16011
0.222479
0.273314
0.310424
0.338337
0.359827
0.376658
0.389933
0.400068
0.406042
0.408296
-0.324328
-0.313042
-0.276657
-0.226216
-0.170265
-0.110427
-0.0471643
0.0190349
0.0875413
0.157558
0.224763
0.279092
0.318303
0.347421
0.369536
0.386613
0.399897
0.409975
0.415935
0.418118
-0.357257
-0.346103
-0.30827
-0.255095
-0.195694
-0.131929
-0.0643441
0.00649717
0.0798836
0.154857
0.226575
0.284096
0.325161
0.355274
0.377845
0.395061
0.408317
0.418327
0.424311
0.426359
-0.386497
-0.375469
-0.336601
-0.281212
-0.218988
-0.151915
-0.08056
-0.00556155
0.0722707
0.151799
0.22773
0.288331
0.331231
0.362359
0.385427
0.402835
0.416116
0.426046
0.432067
0.434011
-0.413309
-0.402366
-0.362679
-0.305398
-0.240779
-0.170857
-0.0962125
-0.0175298
0.0643217
0.148158
0.228273
0.292041
0.336889
0.369134
0.392787
0.410452
0.423814
0.433729
0.439765
0.441604
-0.438378
-0.427477
-0.387043
-0.328159
-0.261499
-0.189117
-0.111603
-0.0296086
0.0559914
0.143957
0.228234
0.295296
0.342279
0.375819
0.400192
0.418212
0.431712
0.44162
0.447685
0.449408
-0.462162
-0.451264
-0.410191
-0.349941
-0.281503
-0.20695
-0.126869
-0.0418798
0.0471711
0.139057
0.227497
0.298069
0.347454
0.382535
0.407817
0.426322
0.440043
0.450017
0.456031
0.457696
-0.485034
-0.474085
-0.432398
-0.37098
-0.300973
-0.224511
-0.142166
-0.0545009
0.037719
0.133359
0.225968
0.300286
0.352395
0.389313
0.415742
0.434898
0.44894
0.459018
0.464991
0.466627
-0.50718
-0.49609
-0.45379
-0.391448
-0.320031
-0.24193
-0.157597
-0.0675288
0.027601
0.126797
0.223554
0.301822
0.357002
0.396102
0.423967
0.44399
0.458506
0.468781
0.474703
0.476322
-0.528613
-0.517367
-0.474591
-0.41137
-0.338736
-0.259208
-0.173138
-0.0809533
0.0167932
0.119297
0.22013
0.302516
0.361111
0.402794
0.432448
0.453601
0.468767
0.479335
0.485244
0.486811
-0.549468
-0.538008
-0.494827
-0.430743
-0.357096
-0.276337
-0.188776
-0.0947541
0.0053143
0.110853
0.215586
0.302181
0.364509
0.409244
0.441108
0.463697
0.479701
0.490667
0.496597
0.498041
-0.569671
-0.558025
-0.514445
-0.449611
-0.375091
-0.293291
-0.204462
-0.108873
-0.00678321
0.10147
0.209862
0.30064
0.36694
0.415178
0.449738
0.474165
0.491252
0.502717
0.508681
0.509942
-0.589273
-0.577402
-0.533403
-0.467943
-0.392677
-0.310004
-0.220126
-0.123225
-0.0194268
0.0911912
0.202915
0.297734
0.368094
0.42017
0.458023
0.484844
0.503344
0.515357
0.521262
0.522296
-0.608101
-0.596107
-0.55167
-0.485689
-0.409791
-0.3264
-0.235687
-0.137726
-0.0325239
0.0800962
0.194738
0.293314
0.367687
0.423832
0.465614
0.49561
0.516021
0.528576
0.53414
0.534818
-0.626284
-0.614088
-0.569246
-0.502818
-0.426394
-0.342433
-0.251054
-0.152281
-0.0459657
0.0682934
0.185397
0.287296
0.365477
0.425752
0.471958
0.506156
0.529481
0.542644
0.547115
0.54704
-0.643679
-0.631278
-0.586115
-0.519283
-0.442416
-0.35802
-0.266145
-0.166766
-0.0596256
0.0558832
0.17498
0.279685
0.361261
0.425397
0.476202
0.515731
0.543889
0.558859
0.560863
0.558345
-0.660343
-0.64778
-0.602225
-0.535033
-0.457819
-0.373101
-0.280879
-0.181099
-0.0733843
0.0430301
0.163621
0.270492
0.354947
0.422331
0.477204
0.522725
0.558302
0.579184
0.580508
0.569011
-0.676214
-0.663513
-0.617677
-0.550202
-0.472789
-0.38794
-0.295576
-0.195675
-0.0877004
0.029203
0.150728
0.259072
0.345803
0.415809
0.473332
0.524239
0.568841
0.600026
0.605388
0.597872
-0.691273
-0.678332
-0.632481
-0.564751
-0.487323
-0.402541
-0.310212
-0.210495