/*--------------------------------*- C++ -*----------------------------------*\
  =========                 |
  \\      /  F ield         | OpenFOAM: The Open Source CFD Toolbox
   \\    /   O peration     | Website:  https://openfoam.org
    \\  /    A nd           | Version:  7
     \\/     M anipulation  |
\*---------------------------------------------------------------------------*/
FoamFile
{
    version     2.0;
    format      ascii;
    class       volScalarField;
    location    "11";
    object      p;
}
// * * * * * * * * * * * * * * * * * * * * * * * * * * * * * * * * * * * * * //

dimensions      [0 2 -2 0 0 0 0];

internalField   nonuniform List<scalar> 
16000
(
1.2123889e-05
-0.00012166795
-0.00042821228
-0.00082566755
-0.0012391651
-0.0016232759
-0.0019471606
-0.0021920055
-0.0023473123
-0.002407442
-0.0023694292
-0.0022318253
-0.0019940793
-0.0016564438
-0.0012203127
-0.00068872897
-6.7036507e-05
0.00063651024
0.0014102063
0.0022384652
0.0031018038
0.0039770014
0.004837741
0.0056556043
0.0064014276
0.0070469533
0.0075667426
0.007940088
0.0081528327
0.0081989049
0.0080814538
0.0078134244
0.0074176136
0.0069262477
0.0063799426
0.005825892
0.0053189578
0.0049151331
0.0046759674
0.0046368718
0.00016207617
1.9746006e-05
-0.00022662153
-0.00053160006
-0.00084986218
-0.0011471479
-0.0013991825
-0.0015899439
-0.0017091947
-0.0017505044
-0.0017099231
-0.0015851112
-0.001374832
-0.0010788634
-0.00069825452
-0.00023565944
0.00030418743
0.00091397626
0.0015834434
0.002298996
0.003043749
0.0037977944
0.0045385644
0.0052418406
0.0058829088
0.0064379726
0.0068857996
0.0072093534
0.0073973335
0.007445433
0.0073572521
0.007144682
0.0068277632
0.0064340743
0.0059976128
0.0055571659
0.0051537787
0.0048306173
0.0046327016
0.0045969279
0.00048185756
0.00026605742
1.3026218e-05
-0.00026278435
-0.00053959872
-0.00079294441
-0.0010051697
-0.001164364
-0.0012623623
-0.0012936488
-0.0012545279
-0.0011424791
-0.00095587601
-0.00069399816
-0.00035726424
5.2448641e-05
0.00053138119
0.0010734047
0.0016696787
0.0023083087
0.0029743903
0.0036500726
0.0043151139
0.0049476312
0.0055252048
0.0060262059
0.0064313235
0.0067250839
0.0068972907
0.0069441797
0.006869223
0.0066834081
0.0064049387
0.0060584597
0.0056737711
0.0052841304
0.0049240084
0.0046274869
0.0044307119
0.004363163
0.00090276293
0.00057373108
0.00027561271
-7.2481751e-06
-0.00027462647
-0.00051041005
-0.00070318907
-0.00084578521
-0.00093314174
-0.0009615838
-0.00092831325
-0.0008310506
-0.00066795506
-0.00043775281
-0.00014001691
0.00022444282
0.00065311828
0.0011412789
0.0016815727
0.0022636813
0.0028742716
0.003496988
0.0041129674
0.0047015251
0.0052412143
0.0057111261
0.0060923955
0.0063697279
0.0065328516
0.0065776827
0.0065070903
0.0063311345
0.0060666658
0.0057363957
0.0053674376
0.0049895071
0.0046331508
0.0043281397
0.0041007257
0.0039653414
0.0013515566
0.00089479683
0.00053437556
0.000226985
-4.7600616e-05
-0.00028048087
-0.00046603744
-0.0006019809
-0.00068666811
-0.00071854968
-0.00069595262
-0.00061699512
-0.00047965651
-0.00028201648
-2.2624161e-05
0.000298993
0.00068177743
0.0011225771
0.0016156442
0.0021522122
0.0027203385
0.0033048753
0.0038878339
0.0044490755
0.0049673353
0.0054215272
0.0057922849
0.0060635651
0.0062241744
0.0062690229
0.0061999249
0.0060258376
0.0057624096
0.0054309318
0.0050567012
0.0046671016
0.0042902761
0.0039533189
0.0036717363
0.0034480976
0.0017759239
0.0011865168
0.00075501938
0.00041200374
0.00011850411
-0.00012269918
-0.00031129307
-0.00044969337
-0.00053956684
-0.00058147876
-0.00057494103
-0.00051847261
-0.00040979461
-0.00024621497
-2.5109169e-05
0.00025546258
0.00059607793
0.00099531212
0.0014491131
0.0019502687
0.0024881196
0.0030484605
0.0036137979
0.0041640083
0.0046773373
0.0051317379
0.0055064806
0.0057838877
0.0059509971
0.006000972
0.0059340197
0.0057576959
0.0054864686
0.0051406038
0.004744358
0.0043239419
0.003906642
0.0035188711
0.0031675177
0.0028404868
0.0021312215
0.0014108847
0.00090488134
0.00051979127
0.00019960457
-5.8283926e-05
-0.000258344
-0.00040728638
-0.00050984116
-0.00056852588
-0.00058390987
-0.0005547917
-0.00047849774
-0.00035139902
-0.00016953199
7.0689447e-05
0.00037166736
0.0007338684
0.001155053
0.0016296146
0.0021481466
0.002697246
0.0032596506
0.0038148471
0.0043400395
0.004811527
0.0052064059
0.0055044795
0.005690117
0.0057538837
0.0056936783
0.0055151944
0.0052315768
0.0048623139
0.0044312882
0.0039646318
0.0034902747
0.0030357756
0.002601138
0.0021610768
0.0023792577
0.001533333
0.00095322054
0.00052333375
0.00017192745
-0.00010845467
-0.00032659582
-0.00049305537
-0.00061529485
-0.00069753941
-0.0007411795
-0.00074507116
-0.00070595547
-0.00061907692
-0.00047893769
-0.00028010258
-1.8133126e-05
0.00030953245
0.00070265059
0.0011573662
0.0016656131
0.002214801
0.0027877946
0.0033634397
0.0039174761
0.0044239568
0.0048570413
0.0051930999
0.0054128407
0.005503233
0.0054589641
0.0052831805
0.0049873421
0.004590216
0.0041158301
0.0035912211
0.0030463776
0.0025117467
0.0019822827
0.0014215254
0.0024865072
0.0015223951
0.00087099082
0.00039600671
1.100952e-05
-0.0002958984
-0.00053741966
-0.00072758859
-0.00087624638
-0.00098900764
-0.001067802
-0.0011112884
-0.0011153985
-0.0010740366
-0.00097994533
-0.00082560481
-0.00060428363
-0.00031105885
5.6092446e-05
0.00049533422
0.0010001826
0.0015590446
0.0021549753
0.0027661048
0.0033664332
0.0039272638
0.0044190882
0.004813884
0.0050875668
0.0052223014
0.0052083943
0.0050454713
0.004742669
0.0043178454
0.0037955092
0.0032044604
0.0025780845
0.0019514096
0.0013158314
0.0006246144
0.0024227715
0.0013493057
0.00063090835
0.00011199227
-0.000307582
-0.00064391036
-0.00091331674
-0.0011329708
-0.0013147551
-0.0014653468
-0.0015869307
-0.0016777105
-0.0017325748
-0.0017438627
-0.0017023053
-0.0015980264
-0.0014216994
-0.0011656991
-0.00082534995
-0.0004000572
0.00010568666
0.00068170895
0.0013114893
0.0019725707
0.0026371201
0.0032733086
0.0038472683
0.0043255699
0.0046780374
0.0048805593
0.0049175581
0.0047837849
0.0044850426
0.0040377694
0.0034670489
0.0028041408
0.002087105
0.0013572315
0.00060348507
-0.00023080495
0.002160564
0.00098768103
0.00020759408
-0.00035314927
-0.00080744772
-0.0011754484
-0.0014768614
-0.0017316718
-0.0019534939
-0.0021497756
-0.0023227044
-0.0024698018
-0.0025846841
-0.0026578931
-0.0026778906
-0.0026321479
-0.002508391
-0.0022958658
-0.0019867344
-0.0015773942
-0.0010697482
-0.00047184801
0.0002006374
0.00092505753
0.0016718879
0.0024059614
0.003088437
0.0036794351
0.0041412283
0.0044416543
0.0045573323
0.0044762941
0.0041995031
0.003741025
0.0031262688
0.0023894306
0.0015744705
0.0007306398
-0.00015472729
-0.0011484664
0.0016749377
0.0004136029
-0.00042211053
-0.0010219956
-0.0015107308
-0.0019123796
-0.0022498296
-0.0025455939
-0.0028147572
-0.0030653084
-0.0032992285
-0.0035131683
-0.0036992728
-0.0038460738
-0.0039395205
-0.0039641242
-0.0039042626
-0.0037455407
-0.0034763239
-0.0030892189
-0.0025825683
-0.001962039
-0.0012410331
-0.00044184322
0.00040471499
0.0012601895
0.0020803194
0.0028177637
0.0034256547
0.0038616916
0.0040922919
0.0040963182
0.0038677291
0.0034166459
0.0027680655
0.0019592941
0.0010413222
7.316384e-05
-0.00095893702
-0.0021328017
0.00094365717
-0.00039410171
-0.0012787788
-0.0019147956
-0.0024375021
-0.0028747206
-0.0032523177
-0.0035950932
-0.0039194009
-0.0042336057
-0.0045393274
-0.0048322099
-0.0051027871
-0.0053374146
-0.0055193141
-0.0056297328
-0.0056492709
-0.0055593148
-0.0053436911
-0.0049903444
-0.0044931278
-0.0038536971
-0.0030825056
-0.0022003138
-0.0012383774
-0.00023801006
0.00075095231
0.0016728474
0.0024700393
0.0030877246
0.0034792024
0.0036109945
0.0034670448
0.003051118
0.0023863576
0.0015128931
0.00048970799
-0.00061253106
-0.0018081256
-0.0031872098
-5.235556e-05
-0.0014535025
-0.002380007
-0.0030489555
-0.0036050926
-0.0040798217
-0.0045018051
-0.0048979289
-0.0052856631
-0.0056736479
-0.0060630639
-0.0064484843
-0.0068187692
-0.0071580011
-0.0074465066
-0.007661993
-0.0077808536
-0.0077796478
-0.0076368474
-0.0073347127
-0.0068613811
-0.0062130239
-0.0053956768
-0.004427055
-0.0033375455
-0.0021704065
-0.00098074739
0.00016691874
0.0012026797
0.0020566996
0.0026657421
0.0029800105
0.0029693899
0.0026277743
0.0019740084
0.0010500699
-7.6400526e-05
-0.0013210507
-0.0026983833
-0.0043122836
-0.0013284977
-0.002779117
-0.0037399338
-0.0044384711
-0.0050274311
-0.0055415889
-0.0060122306
-0.0064681647
-0.006927881
-0.0074002632
-0.0078860636
-0.0083788124
-0.0088657239
-0.0093285977
-0.0097447682
-0.010088182
-0.01033064
-0.010443284
-0.010398393
-0.010171431
-0.0097434062
-0.0091034109
-0.0082511324
-0.0071992935
-0.005975545
-0.0046235405
-0.0032027176
-0.001786408
-0.00045794437
0.00069532268
0.0015898272
0.0021546554
0.0023403858
0.0021261233
0.0015225949
0.00057159945
-0.0006503986
-0.0020432983
-0.0036214172
-0.005504032
-0.0028959583
-0.0043814619
-0.0053687767
-0.0060934074
-0.0067144251
-0.0072697369
-0.007793083
-0.0083150686
-0.0088551746
-0.0094225768
-0.01001771
-0.010633197
-0.011254735
-0.011861922
-0.012429103
-0.012926335
-0.01332053
-0.013576891
-0.013660708
-0.013539525
-0.01318574
-0.012579549
-0.011712114
-0.010588773
-0.0092319724
-0.0076834653
-0.0060052362
-0.0042785672
-0.0026006655
-0.0010784986
0.00018013351
0.0010777049
0.0015389526
0.0015215628
0.0010225485
7.9880702e-05
-0.0012218317
-0.0027648073
-0.004562718
-0.0067518945
-0.0047611578
-0.0062666217
-0.0072724572
-0.0080194975
-0.0086714652
-0.0092691374
-0.0098485575
-0.010442048
-0.011070138
-0.011742449
-0.012459309
-0.013212676
-0.013986965
-0.014759763
-0.015502542
-0.016181472
-0.016758402
-0.017192201
-0.017440478
-0.017461823
-0.017218571
-0.016680131
-0.01582679
-0.01465375
-0.013175217
-0.011427965
-0.0094737509
-0.0073998218
-0.0053166348
-0.0033520454
-0.0016416513
-0.00031547172
0.00051764472
0.00078542582
0.00046325471
-0.00042044675
-0.0017751581
-0.0034639516
-0.0054993886
-0.0080363898
-0.0069253579
-0.0084360017
-0.0094523909
-0.0102179
-0.010899093
-0.011539335
-0.012176871
-0.012845745
-0.013567696
-0.014353054
-0.015202366
-0.016107271
-0.017051242
-0.018010171
-0.018952903
-0.019841857
-0.020633808
-0.021281063
-0.021733043
-0.021938517
-0.021848469
-0.021419725
-0.020619308
-0.019429354
-0.017852353
-0.015916287
-0.013678866
-0.011229984
-0.0086912372
-0.006211256
-0.0039560155
-0.0020937297
-0.00077543682
-0.00011385119
-0.00016588735
-0.00092129279
-0.0022880764
-0.0041097653
-0.0063975605
-0.0093262844
-0.0093844709
-0.010886324
-0.011905537
-0.012685191
-0.013392872
-0.014074257
-0.014769773
-0.015515319
-0.016334134
-0.017237653
-0.018227077
-0.019294188
-0.020421969
-0.021585035
-0.022749975
-0.023875741
-0.024914187
-0.025811029
-0.026507236
-0.026941157
-0.027051412
-0.026780699
-0.026080583
-0.024917256
-0.023277801
-0.021177065
-0.018663925
-0.015826198
-0.012792709
-0.0097307916
-0.0068376205
-0.0043242796
-0.0023927107
-0.0012082373
-0.00087370058
-0.0014093049
-0.0027292981
-0.0046591865
-0.0072091913
-0.010575101
-0.012129133
-0.013609864
-0.014624695
-0.015413636
-0.016143553
-0.016862218
-0.017612358
-0.018432036
-0.019346463
-0.020368723
-0.021501248
-0.022736529
-0.024057611
-0.025438346
-0.026843536
-0.028229061
-0.029542169
-0.030722161
-0.031701549
-0.032408003
-0.032767153
-0.032706429
-0.032160108
-0.031076067
-0.029422249
-0.027195843
-0.024431442
-0.021208785
-0.017658102
-0.013960919
-0.010343869
-0.0070634462
-0.0043803097
-0.0025253622
-0.0016638626
-0.0018630532
-0.0030555752
-0.0050536015
-0.0078681366
-0.011716852
-0.015145151
-0.016595098
-0.017599211
-0.018391847
-0.019137611
-0.019886276
-0.020683205
-0.021569195
-0.022572138
-0.023707522
-0.024979734
-0.026382656
-0.027900016
-0.029505477
-0.031162568
-0.032824574
-0.03443456
-0.035925767
-0.0372225
-0.038241828
-0.038896209
-0.039097208
-0.038760574
-0.037814257
-0.036203632
-0.033904011
-0.030930064
-0.027346575
-0.023277644
-0.018911854
-0.014500324
-0.010344141
-0.006768095
-0.0040811554
-0.0025295946
-0.0022488245
-0.0032076836
-0.0052144682
-0.008285295
-0.01266081
-0.018414274
-0.019827732
-0.020816083
-0.021605832
-0.022358139
-0.023124911
-0.02395483
-0.024892381
-0.025969189
-0.027204156
-0.02860453
-0.030166362
-0.031874728
-0.033703673
-0.035615971
-0.037562786
-0.039483467
-0.041305652
-0.042945889
-0.044311032
-0.04530062
-0.045810518
-0.045738087
-0.044987749
-0.043482542
-0.0411718
-0.038044894
-0.034144547
-0.029580022
-0.024537501
-0.019284056
-0.014160267
-0.0095563484
-0.0058694001
-0.003445883
-0.0025146403
-0.003105121
-0.005037859
-0.0083426991
-0.013285218
-0.021915476
-0.023292282
-0.024261614
-0.025040519
-0.025786138
-0.026553037
-0.027394447
-0.028360058
-0.029486742
-0.030798162
-0.032305525
-0.034007909
-0.035892395
-0.037933922
-0.040094931
-0.042324866
-0.044559764
-0.046722131
-0.048721288
-0.050454474
-0.051808927
-0.0526652
-0.05290199
-0.052402366
-0.051063694
-0.048807428
-0.045593612
-0.041436472
-0.036421471
-0.030721367
-0.024607424
-0.018449829
-0.012699941
-0.0078483178
-0.0043589821
-0.0025821434
-0.0026392133
-0.0043876849
-0.0078863721
-0.013429807
-0.025626758
-0.026974283
-0.027923654
-0.028681771
-0.029402167
-0.030143283
-0.030964958
-0.03192441
-0.033065893
-0.034419568
-0.036001905
-0.037815915
-0.039851263
-0.042084151
-0.044476922
-0.046977506
-0.049518874
-0.052018746
-0.054379707
-0.056490042
-0.058225513
-0.059452299
-0.060031415
-0.05982484
-0.058705008
-0.056564312
-0.053330882
-0.048985506
-0.043581837
-0.037267896
-0.030305191
-0.023079172
-0.016091628
-0.0099249717
-0.0051733068
-0.0023361668
-0.0016644002
-0.0030873919
-0.0067177455
-0.012886991
-0.029527635
-0.030863326
-0.031794586
-0.032518937
-0.033188327
-0.033867442
-0.034626043
-0.035532299
-0.036640759
-0.037990282
-0.039604081
-0.041489972
-0.043640621
-0.046033598
-0.048631094
-0.051379422
-0.054208443
-0.057031188
-0.059743809
-0.062226181
-0.064343424
-0.065948447
-0.066885953
-0.066998173
-0.066133469
-0.064156168
-0.060961666
-0.056494426
-0.050770325
-0.043902609
-0.03612866
-0.027831746
-0.019547187
-0.011939206
-0.0057364783
-0.0016120766
1.2480559e-05
-0.00090988583
-0.0045833555
-0.011391531
-0.033602537
-0.034957204
-0.035875269
-0.03654802
-0.037130518
-0.037697963
-0.038335176
-0.039126163
-0.040139614
-0.04142573
-0.04301604
-0.044923874
-0.047144999
-0.049658075
-0.05242466
-0.055388926
-0.058477174
-0.061597476
-0.064639541
-0.067475091
-0.069959252
-0.071932686
-0.073225258
-0.073661323
-0.073066248
-0.071278811
-0.068162598
-0.063625239
-0.057641661
-0.050283009
-0.041749824
-0.032404939
-0.022795751
-0.01364972
-0.0058240311
-0.00018144684
0.002644937
0.0024345811
-0.0011624329
-0.008608319
-0.037845683
-0.039267805
-0.04018036
-0.04077561
-0.041220907
-0.041609284
-0.042048347
-0.042644666
-0.043485909
-0.044636587
-0.046137991
-0.048009288
-0.050248931
-0.052835813
-0.055729834
-0.05887197
-0.062184019
-0.06556837
-0.068907865
-0.072065929
-0.074888001
-0.077203208
-0.078827668
-0.079569186
-0.079233703
-0.07763538
-0.07460869
-0.070026186
-0.063821685
-0.056020552
-0.046777309
-0.036418025
-0.025479056
-0.014725715
-0.0051262157
0.0022628028
0.00656141
0.0073129876
0.0039484006
-0.0041175077
-0.042268412
-0.043829717
-0.044745634
-0.045223751
-0.045460484
-0.045578792
-0.045720292
-0.046022959
-0.046599123
-0.04753055
-0.048869223
-0.050639728
-0.052841986
-0.055453504
-0.058430785
-0.061709958
-0.065206825
-0.068816849
-0.072415196
-0.075856338
-0.078975955
-0.081591866
-0.083507147
-0.084514359
-0.084401581
-0.082961096
-0.080001094
-0.075362047
-0.068938963
-0.060711503
-0.050783607
-0.039432606
-0.027162534
-0.014747773
-0.0032400972
0.006119911
0.01218131
0.014187225
0.011254762
0.0026047915
-0.04691098
-0.048713386
-0.049638336
-0.049936049
-0.049861607
-0.049587191
-0.049304045
-0.049192474
-0.049395446
-0.050014208
-0.051111202
-0.052714773
-0.054823925
-0.057412174
-0.060430088
-0.063806626
-0.067449492
-0.071245365
-0.075061714
-0.07874105
-0.082109903
-0.084974415
-0.087124632
-0.088338483
-0.088387525
-0.087043636
-0.084091599
-0.079343106
-0.072657949
-0.063972934
-0.05334134
-0.040985376
-0.027360345
-0.013221766
0.00032883384
0.011890344
0.020031485
0.023635746
0.021390855
0.012213776
-0.051862725
-0.054045912
-0.054972174
-0.05498541
-0.054450365
-0.053618021
-0.052749724
-0.052080323
-0.051788455
-0.051995147
-0.052770972
-0.054144464
-0.056109771
-0.058632609
-0.061654253
-0.065093409
-0.06884703
-0.072790114
-0.076786733
-0.080656555
-0.084221874
-0.08727562
-0.089594112
-0.090940451
-0.091071163
-0.089736556
-0.086700641
-0.081748888
-0.074709225
-0.065479428
-0.054064882
-0.040631291
-0.025574985
-0.0096091125
0.0061505441
0.020175864
0.030761191
0.036380675
0.035157199
0.02553904
-0.057298328
-0.060044949
-0.060929277
-0.0604837
-0.059268367
-0.057655976
-0.056002393
-0.054608317
-0.053689853
-0.053384344
-0.053764784
-0.054853696
-0.056634482
-0.059059896
-0.062057962
-0.065533136
-0.069369898
-0.073431329
-0.07756151
-0.081579869
-0.085288811
-0.088469015
-0.090883194
-0.092279219
-0.09239499
-0.090964165
-0.087727436
-0.082444838
-0.07491437
-0.064997437
-0.052654364
-0.037995243
-0.021351842
-0.0033768833
0.014833399
0.031663264
0.045151002
0.053321173
0.053576422
0.043658641
-0.063545794
-0.067074919
-0.067792044
-0.066592964
-0.064372776
-0.061683068
-0.058998455
-0.056691297
-0.055009981
-0.054098385
-0.054021337
-0.054785945
-0.056356541
-0.058666754
-0.061625529
-0.065120555
-0.069019998
-0.073172246
-0.077405956
-0.081529016
-0.085328848
-0.088572319
-0.091007359
-0.092365591
-0.092366563
-0.090724034
-0.087155183
-0.08139348
-0.07320584
-0.062416595
-0.048940716
-0.032831271
-0.01434967
0.0059283242
0.02695841
0.047081724
0.064107626
0.075572302
0.0779769
0.068033822
-0.071218492
-0.07574074
-0.075987406
-0.073535877
-0.069831609
-0.065670192
-0.061658684
-0.058233134
-0.055656534
-0.054060017
-0.053483137
-0.053905018
-0.055258815
-0.057452657
-0.060371223
-0.063881123
-0.06783185
-0.072055265
-0.076364681
-0.080553552
-0.084395006
-0.087641453
-0.0900254
-0.091261524
-0.091050322
-0.089083767
-0.085053482
-0.078663483
-0.069645394
-0.057781089
-0.042933326
-0.025089941
-0.0044302605
0.018574856
0.042969755
0.067113584
0.088624405
0.10450039
0.11012028
0.10076749
-0.081483389
-0.087041723
-0.086138238
-0.081594354
-0.075704538
-0.069556134
-0.063871214
-0.059114657
-0.055526469
-0.053192858
-0.052103767
-0.052189743
-0.053344795
-0.055440767
-0.058333355
-0.061864978
-0.065864708
-0.070146861
-0.0745091
-0.078730457
-0.082570003
-0.085765891
-0.08803544
-0.089076456
-0.08857011
-0.086185569
-0.081586523
-0.07444384
-0.064447251
-0.051326146
-0.03487661
-0.01500038
0.0082352641
0.034496179
0.062993489
0.092209151
0.11964888
0.14171679
0.15239909
0.14511168
-0.096629007
-0.10261349
-0.099081394
-0.091050245
-0.08197123
-0.073183261
-0.065439337
-0.059153048
-0.054474742
-0.051396506
-0.049824632
-0.049620723
-0.050624236
-0.05266398
-0.055562407
-0.059135869
-0.063192551
-0.067529559
-0.07192978
-0.07615897
-0.079963472
-0.083068589
-0.085177872
-0.085973577
-0.08511864
-0.082259658
-0.077031454
-0.069068415
-0.058011305
-0.043524222
-0.025315406
-0.0031677499
0.023012297
0.053105324
0.086594847
0.12224643
0.15774916
0.18892593
0.2080742
0.20629809
-0.12122698
-0.12507857
-0.11577251
-0.10199343
-0.088344735
-0.076139862
-0.0659575
-0.058008351
-0.052245352
-0.048495967
-0.046540465
-0.046147388
-0.047088872
-0.049145455
-0.052104862
-0.055758048
-0.059894148
-0.064295397
-0.068732482
-0.072960551
-0.076716018
-0.079714196
-0.081647807
-0.082186532
-0.080978068
-0.077648128
-0.071805475
-0.063046354
-0.050957933
-0.035127484
-0.015152211
0.0093452618
0.038688419
0.073083913
0.11246971
0.15621241
0.20258413
0.24748126
0.28126198
0.2923137
-0.1643608
-0.15833828
-0.13706177
-0.11408458
-0.094050611
-0.077589228
-0.064706135
-0.055134079
-0.048459538
-0.044252235
-0.042119259
-0.041715544
-0.042739772
-0.044925197
-0.048028913
-0.05182164
-0.056078713
-0.060572504
-0.065066181
-0.069308683
-0.07303078
-0.075942091
-0.077729003
-0.078053666
-0.07655416
-0.0728351
-0.066490132
-0.057078721
-0.044135632
-0.027167249
-0.0056439709
0.021009674
0.053425168
0.092282927
0.13824183
0.19177037
0.25261251
0.31745918
0.3762188
0.41531865
-0.24620824
-0.20623173
-0.16205191
-0.12546502
-0.097096698
-0.075846325
-0.060466029
-0.049734797
-0.04263996
-0.038406927
-0.036446803
-0.036303613
-0.037614811
-0.040080789
-0.043441409
-0.047458566
-0.051903231
-0.056545737
-0.061148361
-0.065459637
-0.069209974
-0.072108364
-0.073840047
-0.074065802
-0.072422817
-0.068493222
-0.061873604
-0.052092574
-0.038644043
-0.020965317
0.0015912931
0.029803185
0.06465025
0.10741843
0.15981793
0.22412111
0.30284773
0.39547537
0.49618799
0.60315508
-0.42535569
-0.26564405
-0.17714363
-0.12457379
-0.089072232
-0.065074291
-0.049306628
-0.039172916
-0.032969413
-0.029651618
-0.0285347
-0.029133053
-0.031082685
-0.034094026
-0.037920113
-0.042335623
-0.047122833
-0.052061775
-0.056923036
-0.061462356
-0.065416507
-0.06850011
-0.070402932
-0.07078657
-0.069273138
-0.065514811
-0.059040352
-0.049385006
-0.036030932
-0.018382176
0.0042721694
0.032830211
0.068511108
0.11309957
0.16938664
0.24196266
0.33800928
0.46585825
0.64299685
0.92080394
-0.79322402
-0.32435195
-0.14891551
-0.087659727
-0.055299405
-0.03597094
-0.025076272
-0.019192719
-0.016347309
-0.015604254
-0.016466984
-0.018609627
-0.021788317
-0.025801488
-0.030466012
-0.035603005
-0.041029148
-0.046550701
-0.051958919
-0.057026406
-0.061504172
-0.065119252
-0.067573033
-0.068541522
-0.067682407
-0.064585764
-0.058842386
-0.049997247
-0.037542468
-0.020899583
0.00061676527
0.027868604
0.062030685
0.10487325
0.15940275
0.23147419
0.33379496
0.49403464
0.78995842
1.38372
3.3717507e-05
-0.00010862105
-0.00041919821
-0.00081933079
-0.0012347207
-0.0016201817
-0.001945076
-0.0021907421
-0.0023466721
-0.0024072171
-0.0023694869
-0.0022320661
-0.0019944145
-0.0016568271
-0.0012207296
-0.00068917427
-6.7480727e-05
0.00063610883
0.0014098634
0.0022382107
0.0031016508
0.0039769593
0.0048378177
0.0056557949
0.0064017066
0.0070473037
0.0075671541
0.0079405451
0.0081533113
0.0081993809
0.0080818928
0.0078137962
0.0074178991
0.006926421
0.0063799896
0.0058258255
0.0053187653
0.0049148013
0.0046754859
0.0046366216
0.00017502216
3.0272151e-05
-0.00021858685
-0.00052549392
-0.0008451588
-0.0011434406
-0.0013963306
-0.0015877878
-0.0017075296
-0.0017491887
-0.0017088718
-0.0015842392
-0.0013740828
-0.001078241
-0.00069776984
-0.00023531495
0.00030440097
0.00091408151
0.0015834277
0.0022988682
0.0030435184
0.0037974623
0.0045381264
0.0052412949
0.0058822489
0.00643721
0.0068849631
0.0072084729
0.0073964287
0.0074445322
0.0073563803
0.0071438598
0.0068270224
0.0064334327
0.0059970797
0.0055567511
0.0051534891
0.004830386
0.0046324305
0.0045968939
0.00049108257
0.000273916
1.9517137e-05
-0.0002576788
-0.00053564518
-0.00078999068
-0.0010030705
-0.0011629087
-0.0012613771
-0.0012930106
-0.0012541209
-0.0011422098
-0.00095570249
-0.00069392507
-0.0003572833
5.2361428e-05
0.00053124233
0.0010732403
0.0016694917
0.0023081187
0.0029742133
0.0036499137
0.0043149617
0.0049474748
0.0055250341
0.0060260235
0.0064311401
0.0067249073
0.0068971103
0.0069439919
0.0068690305
0.0066832047
0.0064047281
0.0060582412
0.0056735404
0.0052838919
0.004923766
0.0046272293
0.0044303976
0.0043629972
0.00090951741
0.00057943589
0.00028071268
-3.0061918e-06
-0.00027135198
-0.00050799863
-0.00070147059
-0.00084460671
-0.0009323835
-0.00096112207
-0.00092803568
-0.00083089532
-0.00066789932
-0.0004377927
-0.00014013459
0.00022427694
0.00065291986
0.0011410658
0.0016813548
0.0022634863
0.002874113
0.0034968615
0.0041128576
0.0047014231
0.0052411171
0.0057110362
0.0060923157
0.0063696609
0.0065327857
0.0065776061
0.0065070017
0.0063310264
0.0060665362
0.0057362409
0.0053672533
0.0049892961
0.0046329056
0.0043278708
0.0041004466
0.0039650683
0.0013566673
0.0008988513
0.00053835908
0.00023037896
-4.4977968e-05
-0.00027849529
-0.0004645706
-0.00060094899
-0.00068597051
-0.00071807216
-0.0006956182
-0.00061677895
-0.00047954803
-0.00028200011
-2.2679872e-05
0.00029888374
0.00068162737
0.0011224033
0.0016154586
0.0021520397
0.0027201852
0.0033047279
0.0038876769
0.0044489054
0.0049671558
0.0054213449
0.0057921021
0.0060633833
0.0062239888
0.0062688272
0.0061997224
0.0060256267
0.005762191
0.0054307047
0.005056466
0.0046668595
0.0042900072
0.0039530602
0.0036715844
0.0034477437
0.0017799157
0.001189348
0.00075801534
0.00041459078
0.00012051312
-0.00012115267
-0.00031014339
-0.00044887381
-0.0005389865
-0.00058106298
-0.00057464979
-0.00051829317
-0.00040971636
-0.00024621696
-2.5171618e-05
0.00025534804
0.00059592393
0.00099514149
0.0014489407
0.001950111
0.0024879732
0.003048308
0.0036136285
0.0041638251
0.0046771467
0.0051315442
0.0055062847
0.0057836891
0.0059507932
0.006000759
0.0059338007
0.0057574704
0.005486239
0.0051403682
0.004744118
0.0043236956
0.0039063594
0.0035186158
0.0031674595
0.0028400423
0.0021343868
0.0014126464
0.00090702503
0.00052172198
0.00020109397
-5.7139117e-05
-0.00025748486
-0.00040665395
-0.0005093721
-0.00056818715
-0.00058368729
-0.00055467074
-0.00047846182
-0.00035143184
-0.00016961793
7.0556171e-05
0.00037150378
0.0007337009
0.001154894
0.0016294687
0.002148004
0.0026970897
0.0032594759
0.0038146628
0.0043398533
0.0048113378
0.0052062132
0.0055042831
0.0056899152
0.0057536743
0.0056934644
0.0055149749
0.0052313537
0.0048620832
0.0044310532
0.0039643883
0.0034899822
0.0030355217
0.0026011785
0.0021605514
0.0023817671
0.0015342158
0.00095472313
0.00052476313
0.00017299529
-0.00010763143
-0.00032594773
-0.0004925534
-0.00061491651
-0.00069727275
-0.00074101576
-0.00074499334
-0.00070594602
-0.000619129
-0.0004790394
-0.00028024362
-1.829046e-05
0.00030938214
0.00070251053
0.0011572289
0.001665468
0.0022146385
0.002787614
0.0033632498
0.0039172863
0.0044237629
0.0048568398
0.0051928928
0.005412629
0.0055030159
0.0054587447
0.0052829566
0.0049871161
0.0045899834
0.0041155974
0.0035909794
0.0030460739
0.0025114946
0.0019824293
0.0014209095
0.0024885401
0.001522638
0.00087203397
0.00039705462
1.1763295e-05
-0.00029529794
-0.00053691804
-0.00072718954
-0.00087595216
-0.00098880936
-0.0010676879
-0.001111245
-0.0011154125
-0.0010741067
-0.00098005823
-0.00082574296
-0.00060442285
-0.000311187
5.5968556e-05
0.00049520081
0.0010000321
0.0015588762
0.0021547928
0.0027659118
0.0033662376
0.0039270624
0.0044188757
0.0048136648
0.0050873455
0.0052220776
0.0052081698
0.0050452417
0.0047424375
0.004317609
0.0037952784
0.0032042174
0.0025777631
0.0019511571
0.001316085
0.00062390363
0.0024245116
0.0013490712
0.00063161185
0.00011277536
-0.0003070339
-0.00064345546
-0.00091292647
-0.001132665
-0.0013145388
-0.0014652073
-0.0015868543
-0.0016776943
-0.0017326118
-0.0017439467
-0.0017024172
-0.001598147
-0.0014218119
-0.0011658053
-0.00082546275
-0.00040018888
0.00010553442
0.00068153889
0.0013113084
0.0019723766
0.0026369171
0.0032730977
0.0038470451
0.0043253383
0.0046778051
0.0048803276
0.0049173287
0.0047835517
0.004484808
0.0040375325
0.0034668237
0.0028038998
0.002086768
0.0013569794
0.00060386503
-0.00023159446
0.0021621338
0.0009870894
0.00020807714
-0.00035252022
-0.00080703045
-0.0011751016
-0.001476567
-0.001731448
-0.0019533398
-0.0021496818
-0.0023226607
-0.0024698109
-0.0025847395
-0.0026579799
-0.0026779861
-0.0026322401
-0.0025084757
-0.0022959554
-0.0019868406
-0.0015775231
-0.0010698958
-0.00047201498
0.00020045923
0.00092486374
0.0016716779
0.0024057403
0.0030882046
0.0036791946
0.004140987
0.0044414134
0.0045570937
0.0044760534
0.0041992617
0.0037407821
0.0031260419
0.0023891866
0.0015741032
0.0007303665
-0.00015420975
-0.001149346
0.0016764111
0.00041276732
-0.00042175069
-0.0010214567
-0.001510413
-0.0019121282
-0.002249618
-0.0025454355
-0.0028146489
-0.0030652496
-0.0032992145
-0.0035131975
-0.0036993325
-0.0038461454
-0.0039395869
-0.0039641855
-0.0039043248
-0.0037456187
-0.0034764239
-0.003089343
-0.0025827136
-0.0019622
-0.0012412082
-0.00044203712
0.00040449889
0.0012599585
0.0020800784
0.0028175162
0.0034254072
0.0038614445
0.0040920474
0.004096075
0.0038674866
0.0034164014
0.0027678409
0.0019590492
0.0010409132
7.2813293e-05
-0.00095834065
-0.0021338216
0.00094509917
-0.00039510147
-0.0012785036
-0.0019143321
-0.0024372724
-0.0028745497
-0.0032521688
-0.0035949829
-0.0039193294
-0.0042335761
-0.0045393349
-0.0048322449
-0.0051028323
-0.005337456
-0.005519347
-0.0056297681
-0.0056493177
-0.0055593837
-0.0053437816
-0.0049904567
-0.0044932597
-0.0038538473
-0.0030826761
-0.0022005071
-0.0012385961
-0.00023824716
0.0007507035
0.0016725904
0.0024697803
0.0030874663
0.0034789479
0.0036107464
0.0034668027
0.0030508802
0.0023861532
0.0015126832
0.00048931992
-0.0006128078
-0.0018073715
-0.0031883858
-5.0915637e-05
-0.0014546342
-0.0023798114
-0.0030485622
-0.0036049358
-0.0040797107
-0.0045016999
-0.0048978533
-0.0052856217
-0.0056736395
-0.006063077
-0.006448505
-0.0068187846
-0.007158008
-0.0074465115
-0.0076620097
-0.0077808889
-0.0077797062
-0.007636924
-0.0073348083
-0.0068614967
-0.006213162
-0.0053958406
-0.0044272451
-0.0033377623
-0.0021706431
-0.00098099742
0.00016665691
0.0012024105
0.0020564275
0.0026654704
0.0029797428
0.0029691267
0.0026275129
0.0019737833
0.0010498338
-7.6831399e-05
-0.0013213127
-0.0026974376
-0.0043136334
-0.0013270739
-0.0027803706
-0.0037398112
-0.0044381318
-0.005027323
-0.0055415173
-0.006012158
-0.0064681163
-0.0069278594
-0.0074002596
-0.0078860616
-0.0083788025
-0.0088657051
-0.0093285763
-0.0097447549
-0.010088186
-0.010330663
-0.010443327
-0.010398452
-0.010171508
-0.0097435071
-0.0091035395
-0.0082512903
-0.007199479
-0.0059757576
-0.0046237742
-0.0032029656
-0.001786668
-0.0004582119
0.00069505402
0.001589562
0.0021543968
0.0023401349
0.002125877
0.0015224058
0.00057137608
-0.00065086905
-0.002043568
-0.0036202634
-0.0055055865
-0.0028945625
-0.0043828074
-0.0053687048
-0.0060931009
-0.0067143453
-0.0072696892
-0.007793032
-0.0083150332
-0.0088551502
-0.0094225531