/*--------------------------------*- C++ -*----------------------------------*\
  =========                 |
  \\      /  F ield         | OpenFOAM: The Open Source CFD Toolbox
   \\    /   O peration     | Website:  https://openfoam.org
    \\  /    A nd           | Version:  7
     \\/     M anipulation  |
\*---------------------------------------------------------------------------*/
FoamFile
{
    version     2.0;
    format      ascii;
    class       surfaceScalarField;
    location    "11";
    object      phi;
}
// * * * * * * * * * * * * * * * * * * * * * * * * * * * * * * * * * * * * * //

dimensions      [0 3 -1 0 0 0 0];

internalField   nonuniform List<scalar> 
45600
(
2.7175704e-07
-2.8166058e-07
-6.5858583e-10
3.983223e-07
-1.2603188e-07
-3.5223978e-10
1.2750649e-07
2.7091228e-07
-2.4336153e-10
-5.649865e-07
6.9268556e-07
-1.7107963e-10
-1.6374238e-06
1.0725763e-06
-1.1999104e-10
-3.0193682e-06
1.3819961e-06
-8.3537088e-11
-4.6364153e-06
1.6170614e-06
-5.6280357e-11
-6.4201872e-06
1.7837982e-06
-3.4107865e-11
-8.310952e-06
1.8907991e-06
-1.728397e-11
-1.025703e-05
1.9461011e-06
-6.0725203e-12
-1.2212935e-05
1.9559089e-06
1.5600908e-12
-1.4137181e-05
1.9242324e-06
6.500196e-12
-1.5990253e-05
1.8530502e-06
9.0517441e-12
-1.7733041e-05
1.7427695e-06
1.0349306e-11
-1.9325916e-05
1.5928614e-06
1.1254253e-11
-2.0728489e-05
1.4025672e-06
1.2022191e-11
-2.1900105e-05
1.171614e-06
1.1993024e-11
-2.2800997e-05
9.0089002e-07
1.0837118e-11
-2.3394011e-05
5.9301632e-07
9.2574727e-12
-2.3646832e-05
2.5281708e-07
6.870122e-12
-2.3534436e-05
-1.123996e-07
4.130741e-12
-2.3041672e-05
-4.9276807e-07
1.1365967e-12
-2.2165733e-05
-8.7594092e-07
-2.0711537e-12
-2.0918221e-05
-1.2475109e-06
-5.145073e-12
-1.9326576e-05
-1.5916382e-06
-7.531793e-12
-1.7434667e-05
-1.891902e-06
-9.4596548e-12
-1.5302301e-05
-2.1323545e-06
-1.1110191e-11
-1.3003604e-05
-2.298684e-06
-1.2342e-11
-1.0624201e-05
-2.3793877e-06
-1.2922112e-11
-8.2573495e-06
-2.3668376e-06
-1.2850321e-11
-5.9991916e-06
-2.2581432e-06
-1.1852529e-11
-3.9434583e-06
-2.0557202e-06
-1.0039275e-11
-2.175886e-06
-1.7675628e-06
-7.7086744e-12
-7.6848426e-07
-1.4073933e-06
-4.6775948e-12
2.2677278e-07
-9.952534e-07
-1.2689559e-12
7.8583724e-07
-5.5906444e-07
1.7952433e-12
9.2107538e-07
-1.352392e-07
5.1966005e-12
7.0089975e-07
2.2016794e-07
8.9567601e-12
2.8905827e-07
4.1183258e-07
1.2999624e-11
2.8905518e-07
6.3174415e-12
1.3074473e-07
-4.1187262e-07
-3.4951546e-10
-3.0404938e-07
3.0872105e-07
-2.0411206e-10
-1.6135398e-06
1.5806813e-06
-2.3302565e-10
-3.8632637e-06
2.9427341e-06
-1.7709336e-10
-6.9812481e-06
4.1907401e-06
-1.3640964e-10
-1.0834606e-05
5.2354043e-06
-1.0752242e-10
-1.5267409e-05
6.0498981e-06
-8.2710888e-11
-2.012299e-05
6.6394545e-06
-6.2533098e-11
-2.5254062e-05
7.0219645e-06
-4.8292552e-11
-3.052541e-05
7.2175159e-06
-3.8158339e-11
-3.5812696e-05
7.2432209e-06
-3.0489165e-11
-4.0999591e-05
7.1111281e-06
-2.5291226e-11
-4.5974616e-05
6.8280751e-06
-2.1729411e-11
-5.0628593e-05
6.3967612e-06
-1.8052004e-11
-5.4853253e-05
5.817545e-06
-1.4057071e-11
-5.8541252e-05
5.0905918e-06
-9.991054e-12
-6.1587699e-05
4.2180881e-06
-6.1932506e-12
-6.3893135e-05
3.2063401e-06
-3.0527219e-12
-6.5367673e-05
2.0675661e-06
4.5656554e-13
-6.5936101e-05
8.2123984e-07
3.7055426e-12
-6.554363e-05
-5.0488216e-07
6.6887092e-12
-6.4161133e-05
-1.8752817e-06
9.631802e-12
-6.1790871e-05
-3.2462209e-06
1.2703745e-11
-5.8470435e-05
-4.5679696e-06
1.5827034e-11
-5.4275505e-05
-5.7865912e-06
1.9138613e-11
-4.932058e-05
-6.8468509e-06
2.2118975e-11
-4.3757331e-05
-7.6956275e-06
2.4262681e-11
-3.7770381e-05
-8.2856593e-06
2.553491e-11
-3.1570464e-05
-8.5793261e-06
2.6243828e-11
-2.5385183e-05
-8.5521421e-06
2.612494e-11
-1.9447692e-05
-8.1956558e-06
2.5284575e-11
-1.3983874e-05
-7.5195558e-06
2.3845826e-11
-9.1984929e-06
-6.5529615e-06
2.1484898e-11
-5.2606515e-06
-5.3452477e-06
1.8610426e-11
-2.288684e-06
-3.9672303e-06
1.5459694e-11
-3.3376006e-07
-2.5139979e-06
1.203279e-11
6.4298457e-07
-1.1119848e-06
8.3991037e-12
7.947933e-07
6.8356759e-08
6.7092503e-12
4.1457321e-07
7.9205089e-07
7.8608499e-12
7.0363078e-07
9.1608425e-13
-2.7377633e-07
-1.379942e-07
-2.4905653e-10
-1.6227295e-06
1.6579474e-06
-2.2791836e-10
-4.2728246e-06
4.2309999e-06
-1.8825274e-10
-8.2387781e-06
6.9088318e-06
-1.4807386e-10
-1.3412095e-05
9.3641328e-06
-1.1466261e-10
-1.9613811e-05
1.1437182e-05
-8.5665371e-11
-2.663333e-05
1.3069478e-05
-6.0881825e-11
-3.4253096e-05
1.4259284e-05
-4.220871e-11
-4.226175e-05
1.503067e-05
-2.8572067e-11
-5.0459214e-05
1.5415004e-05
-1.8510091e-11
-5.865689e-05
1.5440896e-05
-1.1805804e-11
-6.6675424e-05
1.5129653e-05
-7.8107139e-12
-7.4341811e-05
1.4494454e-05
-5.0324928e-12
-8.1487032e-05
1.3541985e-05
-2.1196328e-12
-8.7945051e-05
1.2275575e-05
5.5273168e-13
-9.3553557e-05
1.0699109e-05
2.5293952e-12
-9.8156581e-05
8.8211283e-06
4.0273883e-12
-0.00010160894
6.6587072e-06
4.767338e-12
-0.00010378213
4.240757e-06
5.4232369e-12
-0.00010457139
1.6104887e-06
5.5130835e-12
-0.00010390307
-1.173209e-06
5.1330828e-12
-0.00010174235
-4.0360198e-06
4.6094479e-12
-9.8099798e-05
-6.8887784e-06
4.4127422e-12
-9.3036795e-05
-9.630982e-06
4.5384347e-12
-8.6668696e-05
-1.2154698e-05
4.9508573e-12
-7.9165399e-05
-1.4350154e-05
5.2902947e-12
-7.0748726e-05
-1.6112305e-05
5.3192044e-12
-6.1686351e-05
-1.7348038e-05
5.1216043e-12
-5.2282211e-05
-1.7983468e-05
5.2306959e-12
-4.2863581e-05
-1.7970774e-05
5.4462077e-12
-3.3765238e-05
-1.7294002e-05
5.5843412e-12
-2.5311334e-05
-1.597346e-05
5.898795e-12
-1.7795715e-05
-1.4068582e-05
6.1082327e-12
-1.1461292e-05
-1.1679673e-05
6.3377806e-12
-6.4789759e-06
-8.949547e-06
6.6918084e-12
-2.9260274e-06
-6.0669504e-06
6.916727e-12
-7.6380598e-07
-3.2742065e-06
7.030329e-12
1.8542415e-07
-8.80876e-07
7.4695759e-12
2.6182626e-07
7.1564485e-07
9.1157084e-12
9.6545562e-07
4.4763685e-12
-7.4300478e-07
6.0521487e-07
-1.8235718e-10
-3.165148e-06
4.0803985e-06
-1.6545361e-10
-7.3103526e-06
8.3763364e-06
-1.4791156e-10
-1.3096519e-05
1.2695034e-05
-1.2302802e-10
-2.0349828e-05
1.6617474e-05
-9.4968389e-11
-2.8839868e-05
1.9927295e-05
-6.9937193e-11
-3.8308634e-05
2.2538328e-05
-4.9840212e-11
-4.8490951e-05
2.4441666e-05
-3.4179669e-11
-5.9126433e-05
2.5666185e-05
-2.1990644e-11
-6.9964722e-05
2.6253292e-05
-1.3391307e-11
-8.0766234e-05
2.6242395e-05
-8.0503035e-12
-9.1300554e-05
2.5663962e-05
-4.5036611e-12
-0.00010134413
2.4538026e-05
-1.6165342e-12
-0.00011067857
2.2876423e-05
1.1568287e-12
-0.00011909034
2.0687363e-05
3.4127456e-12
-0.00012637246
1.7981235e-05
4.810836e-12
-0.00013232808
1.4776758e-05
5.7547433e-12
-0.00013677612
1.1106756e-05
6.1797262e-12
-0.00013955842
7.0230528e-06
6.3214642e-12
-0.00014054798
2.6000368e-06
5.6543464e-12
-0.0001396576
-2.0635933e-06
4.5988142e-12
-0.00013684871
-6.8449217e-06
3.6685752e-12
-0.00013213876
-1.1598733e-05
3.1841303e-12
-0.00012560733
-1.616242e-05
2.9557889e-12
-0.00011739965
-2.0362378e-05
2.8189938e-12
-0.00010772716
-2.4022648e-05
2.6057384e-12
-9.6864363e-05
-2.6975105e-05
2.3142616e-12
-8.5141733e-05
-2.9070669e-05
1.9432288e-12
-7.2934442e-05
-3.0190758e-05
1.9118631e-12
-6.0647049e-05
-3.0258165e-05
2.2231629e-12
-4.8694558e-05
-2.9246493e-05
2.5700661e-12
-3.7480547e-05
-2.7187468e-05
3.1338571e-12
-2.7373287e-05
-2.4175843e-05
3.75863e-12
-1.8680857e-05
-2.0372105e-05
4.4894069e-12
-1.1626365e-05
-1.6004039e-05
5.3446325e-12
-6.3241578e-06
-1.136916e-05
6.1197039e-12
-2.7578543e-06
-6.8405111e-06
7.1093146e-12
-7.6302915e-07
-2.8757033e-06
7.7999515e-12
-1.2301703e-08
-3.5085686e-08
8.0953907e-12
9.531495e-07
7.373289e-12
-1.2218229e-06
1.8271988e-06
-1.3798049e-10
-4.7626981e-06
7.6214468e-06
-1.175896e-10
-1.0464317e-05
1.4078039e-05
-1.1553176e-10
-1.8113839e-05
2.0344601e-05
-9.8433308e-11
-2.7450285e-05
2.595397e-05
-7.6063292e-11
-3.8181445e-05
3.0658538e-05
-5.7586882e-11
-5.0000974e-05
3.4357939e-05
-4.2541828e-11
-6.260146e-05
3.7042207e-05
-2.9927868e-11
-7.5682412e-05
3.8747159e-05
-2.0232049e-11
-8.8953663e-05
3.9524539e-05
-1.384905e-11
-0.00010213549
3.9424209e-05
-9.698947e-12
-0.00011495702
3.848549e-05
-6.2693173e-12
-0.00012715434
3.6735345e-05
-3.1464079e-12
-0.00013846934
3.4191432e-05
-4.7470286e-13
-0.0001486502
3.0868233e-05
1.6157679e-12
-0.00015745378
2.6784835e-05
3.1687163e-12
-0.00016465016
2.197315e-05
4.3522087e-12
-0.00017002902
1.6485616e-05
5.0410644e-12
-0.00017340763
1.0401656e-05
5.3850195e-12
-0.00017463991
3.8323064e-06
5.0039935e-12
-0.00017362593
-3.0775859e-06
4.446236e-12
-0.00017032124
-1.0149626e-05
4.274001e-12
-0.00016474518
-1.7174798e-05
4.5538379e-12
-0.00015698757
-2.3920044e-05
4.9345671e-12
-0.00014721281
-3.0137146e-05
5.2049296e-12
-0.0001356609
-3.5574567e-05
5.2863734e-12
-0.0001226445
-3.9991514e-05
5.301034e-12
-0.00010854164
-4.3173525e-05
5.2717757e-12
-9.3783788e-05
-4.4948618e-05
5.385149e-12
-7.8839088e-05
-4.5202867e-05
5.6759046e-12
-6.4191385e-05
-4.3894197e-05
5.8724317e-12
-5.0315529e-05
-4.1063325e-05
6.1185414e-12
-3.7650208e-05
-3.6841166e-05
6.3403803e-12
-2.6569698e-05
-3.1452617e-05
6.5882049e-12
-1.7356225e-05
-2.5217514e-05
6.8208934e-12
-1.0174723e-05
-1.8550665e-05
7.0211852e-12
-5.0518703e-06
-1.1963366e-05
7.8012942e-12
-1.8618394e-06
-6.0657363e-06
7.5012649e-12
-3.2357259e-07
-1.5733533e-06
4.4076663e-12
6.2957057e-07
9.5531193e-12
-1.6836181e-06
3.5108853e-06
-1.0777159e-10
-6.3346975e-06
1.227254e-05
-8.2111266e-11
-1.3592001e-05
2.1335401e-05
-8.6890329e-11
-2.3098579e-05
2.9851256e-05
-7.5030388e-11
-3.4492853e-05
3.7348317e-05
-5.8266435e-11
-4.741207e-05
4.3577829e-05
-4.4852593e-11
-6.1498374e-05
4.8444297e-05
-3.3343615e-11
-7.6403802e-05
5.1947661e-05
-2.3769089e-11
-9.179298e-05
5.413634e-05
-1.6831367e-11
-0.00010734335
5.50749e-05
-1.2058635e-11
-0.00012274361
5.4824466e-05
-8.4467372e-12
-0.00013769144
5.3433313e-05
-5.203991e-12
-0.00015189144
5.093536e-05
-2.2695615e-12
-0.00016505436
4.7354363e-05
5.7704069e-14
-0.00017689792
4.2711806e-05
1.8111974e-12
-0.00018714979
3.7036718e-05
3.3219327e-12
-0.00019555261
3.0375978e-05
4.4665545e-12
-0.00020187091
2.2803917e-05
4.9487107e-12
-0.00020589957
1.4430308e-05
4.999257e-12
-0.00020747334
5.4060703e-06
4.5749377e-12
-0.00020647692
-4.0740102e-06
4.2465771e-12
-0.00020285487
-1.3771692e-05
4.4247327e-12
-0.00019662074
-2.3408935e-05
4.9131325e-12
-0.00018786471
-3.2676087e-05
5.3136656e-12
-0.0001767588
-4.1243065e-05
5.5292578e-12
-0.00016355901
-4.8774353e-05
5.6191597e-12
-0.00014860351
-5.4947026e-05
5.6831479e-12
-0.00013230602
-5.9471014e-05
5.7611106e-12
-0.00011514417
-6.2110475e-05
5.9154619e-12
-9.7642226e-05
-6.2704816e-05
6.1777732e-12
-8.0348694e-05
-6.1187733e-05
6.3520771e-12
-6.380935e-05
-5.7602672e-05
6.53931e-12
-4.8537071e-05
-5.2113448e-05
6.6595683e-12
-3.4980277e-05
-4.5009413e-05
6.8327767e-12
-2.3492289e-05
-3.6705505e-05
6.9620391e-12
-1.430413e-05
-2.7738827e-05
7.1443764e-12
-7.5035297e-06
-1.876397e-05
8.1960662e-12
-3.0232282e-06
-1.054604e-05
7.4055863e-12
-6.4216745e-07
-3.9544139e-06
1.685894e-12
-1.2604431e-08
1.1999207e-11
-2.1200722e-06
5.6310101e-06
-8.5456348e-11
-7.8432604e-06
1.799573e-05
-5.1092783e-11
-1.6616169e-05
3.0108375e-05
-6.2172254e-11
-2.7936099e-05
4.117128e-05
-5.599543e-11
-4.1335343e-05
5.0747642e-05
-4.3196271e-11
-5.6375631e-05
5.8618175e-05
-3.320227e-11
-7.2645194e-05
6.4713885e-05
-2.4917351e-11
-8.9756211e-05
6.9058681e-05
-1.8342109e-11
-0.00010734187
7.1721995e-05
-1.3603938e-11
-0.00012505275
7.2785768e-05
-9.8242101e-12
-0.00014255281
7.2324528e-05
-6.4554977e-12
-0.0001595158
7.03963e-05
-3.5080164e-12
-0.00017562254
6.7042108e-05
-1.0416528e-12
-0.00019055992
6.2291766e-05
9.5189751e-13
-0.00020402185
5.6173752e-05
2.4925044e-12
-0.0002157123
4.8727171e-05
3.8653512e-12
-0.00022535046
4.0014148e-05
4.7439715e-12
-0.00023267787
3.0131323e-05
4.8578636e-12
-0.00023746697
1.92194e-05
4.6121087e-12
-0.00023953092
7.4700082e-06
4.229166e-12
-0.00023873407
-4.870874e-06
4.1357554e-12
-0.00023500252
-1.750325e-05
4.5334475e-12
-0.00022833441
-3.0077059e-05
5.0671648e-12
-0.00021880885
-4.220166e-05
5.3443851e-12
-0.00020659299
-5.3458928e-05
5.4020203e-12
-0.00019194617
-6.3421176e-05
5.4879336e-12
-0.00017522011
-7.1673094e-05
5.5913343e-12
-0.00015685418
-7.7836951e-05
5.6963715e-12
-0.00013736489
-8.1599766e-05
5.854293e-12
-0.00011732903
-8.2740679e-05
6.0738239e-12
-9.7360375e-05
-8.115639e-05
6.2037747e-12
-7.8080675e-05
-7.6882373e-05
6.366052e-12
-6.008631e-05
-7.0107816e-05
6.4697014e-12
-4.3912856e-05
-6.1182869e-05
6.6918749e-12
-3.0000484e-05
-5.061788e-05
6.8148908e-12
-1.866344e-05
-3.9075872e-05
7.0601399e-12
-1.0067126e-05
-2.736029e-05
8.4838507e-12
-4.2162584e-06
-1.639691e-05
7.3650354e-12
-9.5747388e-07
-7.2131972e-06
-1.1750224e-12
-9.7008776e-07
1.4186461e-11
-2.5290968e-06
8.1601685e-06
-6.7746981e-11
-9.2706358e-06
2.4737304e-05
-2.5603019e-11
-1.9493785e-05
4.0331591e-05
-4.3578933e-11
-3.2555418e-05
5.4232989e-05
-4.1455328e-11
-4.7882252e-05
6.607453e-05
-3.0970087e-11
-6.4959548e-05
7.5695501e-05
-2.3876101e-11
-8.3321224e-05
8.3075565e-05
-1.8796451e-11
-0.00010254076
8.827821e-05
-1.4558431e-11
-0.00012222286
9.1404087e-05
-1.0972951e-11
-0.00014199576
9.2558669e-05
-7.7339046e-12
-0.00016150444
9.1833214e-05
-4.7490518e-12
-0.00018040511
8.9296974e-05
-2.2571379e-12
-0.00019836142
8.4998427e-05
-2.7418721e-13
-0.00021504275
7.8973123e-05
1.5103768e-12
-0.00023012478
7.125579e-05
2.9498659e-12
-0.00024329216
6.1894558e-05
4.0904647e-12
-0.00025424349
5.0965478e-05
4.5630819e-12
-0.00026269812
3.8585943e-05
4.3594562e-12
-0.00026840461
2.4925886e-05
4.0619543e-12
-0.00027115059
1.0215977e-05
3.9828342e-12
-0.00027077357
-5.2479073e-06
4.2086206e-12
-0.00026717226
-2.1104576e-05
4.7130737e-12
-0.00026031825
-3.6931072e-05
5.2362343e-12
-0.00025026694
-5.2252987e-05
5.5066961e-12
-0.00023716705
-6.6558827e-05
5.5037973e-12
-0.0002212678
-7.932043e-05
5.6219171e-12
-0.00020292226
-9.0018639e-05
5.8445676e-12
-0.0001825856
-9.8173615e-05
6.0061141e-12
-0.00016080693
-0.00010337844
6.1413141e-12
-0.00013821368
-0.00010533393
6.2956537e-12
-0.00011548811
-0.00010388197
6.3621924e-12
-9.3336309e-05
-9.9034173e-05
6.4956914e-12
-7.2451294e-05
-9.0992835e-05
6.5538972e-12
-5.3472644e-05
-8.016152e-05
6.7471985e-12
-3.6946388e-05
-6.714414e-05
6.748117e-12
-2.3289141e-05
-5.2733121e-05
7.0084974e-12
-1.2760812e-05
-3.7888625e-05
8.8082159e-12
-5.4498369e-06
-2.3707887e-05
7.3116101e-12
-1.2743803e-06
-1.138865e-05
-4.2521939e-12
-2.2444812e-06
1.6628385e-11
-2.9097656e-06
1.1070007e-05
-5.4883067e-11
-1.0606222e-05
3.2433806e-05
-7.0447741e-12
-2.2196563e-05
5.1921984e-05
-3.025393e-11
-3.6906459e-05
6.8942926e-05
-3.0391985e-11
-5.4061857e-05
8.3229946e-05
-2.1861334e-11
-7.3074002e-05
9.4707653e-05
-1.7414678e-11
-9.3424287e-05
0.00010342584
-1.4548337e-11
-0.00011464968
0.0001095036
-1.1573211e-11
-0.00013632954
0.00011308394
-8.5331408e-12
-0.00015807397
0.00011430309
-5.7507534e-12
-0.000179514
0.00011327326
-3.3094905e-12
-0.00020029398
0.00011007697
-1.2595158e-12
-0.00022006625
0.00010477071
4.0545507e-13
-0.0002384883
9.7395183e-05
2.0312898e-12
-0.00025522241
8.7989915e-05
3.2743046e-12
-0.00026993771
7.6609855e-05
4.0066277e-12
-0.00028231431
6.334208e-05
4.0377768e-12
-0.00029204958
4.8321209e-05
3.7166626e-12
-0.00029886612
3.1742409e-05
3.5931329e-12
-0.00030252138
1.3871227e-05
3.869133e-12
-0.00030281885
-4.9504435e-06
4.3644705e-12
-0.0002996201
-2.4303335e-05
4.8847327e-12
-0.00029285826
-4.3692926e-05
5.2933679e-12
-0.00028255125
-6.2560006e-05
5.5981049e-12
-0.00026881469
-8.0295394e-05
5.6715125e-12
-0.00025187296
-9.6262161e-05
5.8416626e-12
-0.00023206695
-0.00010982466
6.163095e-12
-0.00020985658
-0.00012038399
6.3571824e-12
-0.0001858164
-0.00012741863
6.4192602e-12
-0.00016062237
-0.00013052796
6.4914728e-12
-0.00013502898
-0.00012947535
6.5121633e-12
-0.00010983658
-0.00012422658
6.6577883e-12
-8.5850323e-05
-0.0001149791
6.7144952e-12
-6.383366e-05
-0.00010217818
6.857249e-12
-4.4460677e-05
-8.6517128e-05
6.6923623e-12
-2.8272312e-05
-6.8921489e-05
7.0489739e-12
-1.5641795e-05
-5.0519149e-05
9.321788e-12
-6.7540327e-06
-3.2595648e-05
7.3252552e-12
-1.6023772e-06
-1.6540296e-05
-7.3557243e-12
-3.8468716e-06
1.918943e-11
-3.2606698e-06
1.4330744e-05
-4.6981427e-11
-1.1840719e-05
4.1013877e-05
6.8025016e-12
-2.4700921e-05
6.4782213e-05
-2.0403369e-11
-4.0947167e-05
8.5189185e-05
-2.2711592e-11
-5.9812261e-05
0.00010209503
-1.5896197e-11
-8.0638441e-05
0.00011553383
-1.3193246e-11
-0.00010285822
0.00012564562
-1.1318908e-11
-0.00012597535
0.00013262073
-8.8677505e-12
-0.00014954741
0.00013665601
-6.2745546e-12
-0.00017317049
0.00013792618
-4.0473227e-12
-0.00019646649
0.00013656926
-2.2164888e-12
-0.00021907309
0.00013268359
-4.7085483e-13
-0.00024063666
0.0001263343
1.0707587e-12
-0.00026080797
0.0001175665
2.4365097e-12
-0.0002792405
0.00010642245
3.2442905e-12
-0.0002955913
9.2960658e-05
3.4983793e-12
-0.00030952409
7.7274869e-05
3.2627278e-12
-0.00032071444
5.9511547e-05
3.0802155e-12
-0.00032885695
3.988491e-05
3.2714888e-12
-0.00033367448
1.8688741e-05
3.8190931e-12
-0.00033492948
-3.695452e-06
4.4153562e-12
-0.00033243651
-2.679631e-05
4.9322197e-12
-0.0003260781
-5.0051351e-05
5.2488946e-12
-0.00031582036
-7.2817753e-05
5.6272129e-12
-0.00030172995
-9.4385808e-05
5.8877577e-12
-0.00028399003
-0.00011400209
6.114792e-12
-0.00026291354
-0.00013090115
6.4735052e-12
-0.00023895165
-0.00014434588
6.7175692e-12
-0.00021269458
-0.0001536757
6.7387939e-12
-0.00018486249
-0.00015836005
6.7183976e-12
-0.00015628442
-0.00015805343
6.6530362e-12
-0.00012786455
-0.00015264645
6.7643307e-12
-0.00010053676
-0.00014230689
6.8044033e-12
-7.5210622e-05
-0.00012750432
6.8709947e-12
-5.2713815e-05
-0.00010901394
6.5303313e-12
-3.3737374e-05
-8.7897934e-05
6.9887825e-12
-1.8790497e-05
-6.5466034e-05
9.7747154e-12
-8.1709383e-06
-4.321521e-05
7.3123889e-12
-1.9548376e-06
-2.275639e-05
-1.1019558e-11
-5.801714e-06
2.1315232e-11
-3.5795028e-06
1.7910296e-05
-4.2379626e-11
-1.2963881e-05
5.0398233e-05
1.7158651e-11
-2.6983403e-05
7.8801736e-05
-1.4009897e-11
-4.4637003e-05
0.00010284279
-1.8244045e-11
-6.5073797e-05
0.00012253182
-1.2101953e-11
-8.7573781e-05
0.00013803381
-1.0058058e-11
-0.00011152561
0.00014959744
-8.5407632e-12
-0.00013640399
0.00015749912
-6.4908174e-12
-0.00016174871
0.00016200073
-4.4688659e-12
-0.00018714608
0.00016332357
-2.7192956e-12
-0.00021221344
0.00016163664
-1.2668691e-12
-0.00023658678
0.00015705695
2.6316651e-13
-0.00025991165
0.00014965919
1.6061038e-12
-0.00028183707
0.00013949193
2.5177907e-12
-0.00030201228
0.00012659765
2.76863e-12
-0.00032008597
0.00011103435
2.6718315e-12
-0.00033570793
9.2896815e-05
2.4580899e-12
-0.00034853275
7.2336362e-05
2.6007919e-12
-0.00035822594
4.9578083e-05
3.0809095e-12
-0.00036447218
2.4934978e-05
3.7404872e-12
-0.00036698703
-1.1806137e-06
4.2793787e-12
-0.00036552892
-2.825443e-05
4.8425046e-12
-0.00035991822
-5.5662064e-05
5.1674305e-12
-0.00035005476
-8.2681217e-05
5.6203026e-12
-0.00033593953
-0.00010850105
6.0925199e-12
-0.00031769622
-0.00013224542
6.4130774e-12
-0.00029559132
-0.00015300605
6.7414589e-12
-0.00027004998
-0.00016988722
6.9763928e-12
-0.00024166418
-0.00018206151
6.9967082e-12
-0.0002111897
-0.00018883454
6.988784e-12
-0.00017952888
-0.00018971425
6.9203477e-12
-0.00014769706
-0.00018447827
6.9792916e-12
-0.00011677303
-0.00017323093
7.0001522e-12
-8.7836287e-05
-0.00015644106
7.0452034e-12
-6.1897144e-05
-0.00013495309
6.5810213e-12
-3.9827374e-05
-0.00010996771
7.0765413e-12
-2.2300426e-05
-8.2992991e-05
1.0652315e-11
-9.7492379e-06
-5.5766403e-05
7.926541e-12
-2.3467204e-06
-3.0158915e-05
-1.5009952e-11
-8.1484616e-06
2.3746437e-11
-3.8631063e-06
2.1773435e-05
-3.9779267e-11
-1.396395e-05
6.0499025e-05
2.4233891e-11
-2.9019063e-05
9.3856841e-05
-1.0436031e-11
-4.7934295e-05
0.00012175802
-1.5629861e-11
-6.978569e-05
0.00014438321
-9.215699e-12
-9.3798851e-05
0.00016204697
-7.2915096e-12
-0.00011932445
0.00017512305
-6.1388699e-12
-0.00014581289
0.00018398756
-4.5939027e-12
-0.0001727904
0.00018897826
-3.1397192e-12
-0.00019983778
0.00019037097
-1.7065216e-12
-0.0002265723
0.00018837118
-4.0775733e-13
-0.00025263307
0.00018311773
8.4620834e-13
-0.00027766984
0.00017469596
1.7322887e-12
-0.00030133495
0.00016315704
2.0759204e-12
-0.00032327821
0.00014854091
1.9268138e-12
-0.00034314425
0.00013090039
1.780295e-12
-0.00036057226
0.00011032482
1.8024843e-12
-0.00037519801
8.69621e-05
2.2620114e-12
-0.00038665829
6.103835e-05
2.9010988e-12
-0.00039459819
3.2874869e-05
3.5993071e-12
-0.00039868107
2.9022594e-06
4.2126954e-12
-0.00039860397
-2.8331541e-05
4.6710375e-12
-0.00039411371
-6.0152331e-05
5.0781754e-12
-0.00038503034
-9.1764599e-05
5.6236152e-12
-0.00037127214
-0.00012225925
6.2675689e-12
-0.00035288351
-0.00015063405
6.6990402e-12
-0.00033006288
-0.00017582669
6.9906124e-12
-0.0003031876
-0.0001967625
7.1782264e-12
-0.00027283179
-0.00021241734
7.1782931e-12
-0.0002397721
-0.00022189423
7.1652752e-12
-0.00020497705
-0.0002245093
7.0898219e-12
-0.00016957593
-0.00021987939
7.0518764e-12
-0.00013480623
-0.00020800063
7.0348991e-12
-0.00010194176
-0.00018930554
7.0910515e-12
-7.2207786e-05
-0.00016468706
6.5127835e-12
-4.6693241e-05
-0.00013548225
7.1017913e-12
-2.6271428e-05
-0.00010341481
1.1859669e-11
-1.1540888e-05
-7.0496924e-05
1.0166747e-11
-2.7936784e-06
-3.8906098e-05
-1.7296122e-11
-1.094217e-05
2.7534895e-11
-4.1077191e-06
2.5881182e-05
-3.8931251e-11
-1.4827993e-05
7.1219248e-05
2.8995592e-11
-3.0781626e-05
0.00010981047
-7.9824107e-12
-5.0796104e-05
0.00014177251
-1.3444242e-11
-7.3885712e-05
0.00016747282
-6.6614384e-12
-9.9230061e-05
0.00018739133
-4.9590435e-12
-0.0001261481
0.00020204111
-4.3193048e-12
-0.00015407084
0.00021191032
-3.2000211e-12
-0.00018251527
0.0002174227
-2.0732414e-12
-0.00021106081
0.00021891653
-8.6066477e-13
-0.00023932901
0.00021663939
2.1879721e-13
-0.00026696675
0.00021075548
1.0150007e-12
-0.00029363301
0.00020136221
1.3111596e-12
-0.0003189887
0.00018851273
1.2000902e-12
-0.0003426895
0.00017224171
9.5532812e-13
-0.00036438108
0.00015259196
1.0232253e-12
-0.00038369669
0.00012964043
1.3573727e-12
-0.00040025709
0.00010352249
1.9969054e-12
-0.00041367298
7.4454235e-05
2.6252529e-12
-0.00042355063
4.2752503e-05
3.2569629e-12
-0.00042950076
8.8523792e-06
3.8271369e-12
-0.00043115334
-2.6678968e-05
4.3579922e-12
-0.0004281748
-6.3130879e-05
4.9452964e-12
-0.00042029333
-9.9646072e-05
5.6074728e-12
-0.00040732818
-0.00013522441
6.3436599e-12
-0.00038922364
-0.00016873859
6.8764686e-12
-0.00036608556
-0.00019896479
7.2160204e-12
-0.00033821681
-0.00022463125
7.4543457e-12
-0.00030614721
-0.00024448695
7.5112953e-12
-0.00027065143
-0.00025739001
7.4919907e-12
-0.00023274869
-0.00026241205
7.3796663e-12
-0.00019367773
-0.00025895036
7.1954842e-12
-0.00015484377
-0.0002468346
7.0222134e-12
-0.00011773792
-0.0002264114
6.8962506e-12
-8.3835525e-05
-0.00019858946
5.926405e-12
-5.4485329e-05
-0.00016483246
6.0875887e-12
-3.080496e-05
-0.0001270952
1.1255199e-11
-1.3599109e-05
-8.7702785e-05
8.0260852e-12
-3.3116927e-06
-4.9193484e-05
-2.1869683e-11
-1.4253894e-05
3.1750621e-11
-4.3093342e-06
3.0190547e-05
-3.8874998e-11
-1.5542766e-05
8.2452638e-05
3.2822764e-11
-3.2244754e-05
0.00012651246
-5.6724987e-12
-5.3179808e-05
0.00016270758
-1.1406947e-11
-7.7312072e-05
0.00019160509
-4.5481064e-12
-0.00010378366
0.00021386293
-3.218768e-12
-0.00013188803
0.0002301455
-3.0511202e-12
-0.00016104159
0.0002410639
-2.1936897e-12
-0.00019075614
0.00024713727
-1.1999661e-12
-0.00022061362
0.00024877402
-2.4526959e-13
-0.00025024396
0.00024626973
3.8095647e-13
-0.00027930634
0.00023981787
5.998681e-13
-0.00030747391
0.00022952979
4.4611537e-13
-0.00033442166
0.00021546048
1.9987113e-13
-0.00035981699
0.00019763703
1.4353429e-13
-0.00038331273
0.00017608769
4.8322054e-13
-0.00040454236
0.00015087005
1.0251903e-12
-0.00042311754
0.00012209766
1.6949421e-12
-0.00043862823
8.9964911e-05
2.2196648e-12
-0.000450646
5.4770263e-05
2.7705528e-12
-0.0004587314
1.6937778e-05
3.3520541e-12
-0.00046244679
-2.2963591e-05
4.0042067e-12
-0.00046137425
-6.4203421e-05
4.7486544e-12
-0.00045514144
-0.00010587889
5.5143845e-12
-0.00044345419
-0.00014691166
6.2887589e-12
-0.00042613624
-0.00018605655
6.8622265e-12
-0.0004031743
-0.00022192673
7.2516827e-12
-0.00037476541
-0.00025304014
7.5937949e-12
-0.00034136119
-0.00027789118
7.8077493e-12
-0.00030370183
-0.00029504937
7.8914344e-12
-0.00026283083
-0.00030328304
7.8804226e-12
-0.00022008146
-0.00030169973
7.7661674e-12
-0.00017702754
-0.00028988852
7.632175e-12
-0.00013539657
-0.00026804237
7.5821642e-12
-9.6950226e-05
-0.0002370358
6.5308491e-12
-6.3345997e-05
-0.00019843668
6.8464423e-12
-3.6000436e-05
-0.00015444077
1.2496382e-11
-1.5977073e-05
-0.00010772616
7.5984617e-12
-3.916871e-06
-6.1253653e-05
-2.7428272e-11
-1.8170802e-05
3.6440361e-11
-4.4641331e-06
3.4654719e-05
-3.8439259e-11
-1.6095911e-05
9.4084387e-05
3.6356849e-11
-3.3384083e-05
0.00014380065
-3.5531218e-12
-5.5045933e-05
0.00018436945
-9.8425931e-12
-8.000699e-05
0.00021656617
-3.1342461e-12
-0.00010738007
0.00024123603
-2.0755594e-12
-0.00013643895
0.0002592044
-2.1047853e-12
-0.00016658981
0.00027121477
-1.403921e-12
-0.00019734291
0.00027789037
-6.2711425e-13
-0.00022828619
0.00027971731
-1.0573766e-13
-0.00025906168
0.00027704523
-5.8899214e-14
-0.00028934511
0.00027010129
-2.8664037e-13
-0.00031882876
0.00025901343
-5.4547665e-13
-0.00034720731
0.00024383903
-6.2003089e-13
-0.00037416633
0.00022459604
-3.8476049e-13
-0.00039937294
0.0002012943
1.1035965e-13
-0.00042246863
0.00017396573
6.6902522e-13
-0.00044306414
0.00014269316
1.267585e-12
-0.00046073693
0.0001076377
1.7150708e-12
-0.00047503179
6.9065119e-05
2.2369514e-12
-0.00048546565
2.7371625e-05
2.9257771e-12
-0.00049153785
-1.689139e-05
3.7297358e-12
-0.00049274703
-6.299425e-05
4.5796896e-12
-0.00048861625
-0.00011000967
5.3820895e-12
-0.00047872739
-0.00015680052
6.1653222e-12
-0.00046276523
-0.00020201872
6.7777798e-12
-0.0004405705
-0.00024412146
7.1945405e-12
-0.0004121994
-0.00028141125
7.5416895e-12
-0.00037798434
-0.00031210625
7.7589947e-12
-0.00033858775
-0.00033444597
7.7916423e-12
-0.00029503788
-0.00034683292
7.6926481e-12
-0.00024873354
-0.00034800408
7.5000578e-12
-0.00020140586
-0.0003372162
7.2778071e-12
-0.00015502995
-0.00031441829
7.144819e-12
-0.00011168852
-0.00028037724
5.4845584e-12
-7.3402138e-05
-0.00023672307
6.4782462e-12
-4.1951837e-05
-0.00018589109
1.3644459e-11
-1.8726913e-05
-0.00013095108
7.8214471e-12
-4.6254038e-06
-7.5355122e-05
-3.3462962e-11
-2.2796248e-05
4.1969021e-11
-4.5689703e-06
3.9223732e-05
-3.7685526e-11
-1.6477424e-05
0.00010599282
3.9021478e-11
-3.4179844e-05
0.00016150308
-2.0869415e-12
-5.6361932e-05
0.00020655156
-8.8891341e-12
-8.1921596e-05
0.00024212585
-2.3153177e-12
-0.00010994986
0.0002692643
-1.3848539e-12
-0.00013970597
0.00028896053
-1.4777539e-12
-0.00017058957
0.00030209838
-1.0262071e-12
-0.0002021124
0.00030941321
-7.0574632e-13
-0.00023387139
0.00031147631
-6.8754259e-13
-0.00026552398
0.00030869781
-1.0014727e-12
-0.00029676633
0.00030134364
-1.3095603e-12
-0.00032731462
0.00028956171
-1.3746865e-12
-0.00035688901
0.00027341341
-1.1622172e-12
-0.00038520008
0.00025290711
-7.0327269e-13
-0.0004119373
0.00022803151
-1.9805734e-13
-0.00043675937
0.0001987878
2.5513247e-13
-0.0004592865
0.00016522029
7.4398231e-13
-0.00047909489
0.00012744608
1.1896253e-12
-0.00049571423
8.5684447e-05
1.7274958e-12
-0.00050862912
4.028651e-05
2.4891997e-12
-0.00051728597
-8.2345428e-06
3.4209354e-12
-0.00052110689
-5.9173331e-05
4.3696193e-12
-0.00051951257
-0.000111604
5.2087669e-12
-0.00051195614
-0.00016435696
6.0479086e-12
-0.00049796948
-0.00021600538
6.8380027e-12
-0.00047722253
-0.00026486841
7.4613687e-12
-0.00044959432
-0.00030903946
7.9449235e-12
-0.00041525119
-0.00034644939
8.2271383e-12
-0.00037472399
-0.00037497317
8.2779181e-12
-0.00032897118
-0.00039258573
8.0690765e-12
-0.00027941071
-0.00039756456
7.8270092e-12
-0.00022790263
-0.00038872429
7.6688502e-12
-0.00017666777
-0.00036565315
7.4263278e-12
-0.00012813885
-0.00032890616
6.0429947e-12
-8.4756852e-05
-0.00028010508
6.3811437e-12
-4.8744036e-05
-0.00022190392
1.4746523e-11
-2.189863e-05
-0.0001577965
7.9715101e-12
-5.4534993e-06
-9.1800206e-05
-4.0585784e-11
-2.8249795e-05
4.8386127e-11
-4.6219029e-06
4.384568e-05
-3.6966349e-11
-1.6681307e-05
0.00011805219
4.0446859e-11
-3.4619914e-05
0.00017944171
-1.4061718e-12
-5.7106695e-05
0.00022903836
-8.391039e-12
-8.3021878e-05
0.00026804105
-1.7865046e-12
-0.00011144114
0.00029768357
-9.8711741e-13
-0.00014161336
0.00031913277
-1.3080134e-12
-0.00017293455
0.00033341957
-1.2399606e-12
-0.00020492033
0.00034139899
-1.3912864e-12
-0.00023717898
0.00034373496
-1.6841791e-12
-0.00026938616
0.00034090499
-2.0059612e-12
-0.00030126208
0.00033321955
-2.0735297e-12
-0.00033255131
0.00032085094
-1.8468855e-12
-0.00036300521
0.00030386731
-1.4592548e-12
-0.0003923665
0.00028226839
-9.6029781e-13
-0.00042035567
0.00025602067
-5.4065884e-13
-0.00044665905
0.00022509117
-1.8050612e-13
-0.00047091847
0.0001894797
2.4420215e-13
-0.00049272277
0.00014925038
7.8539044e-13
-0.00051160181
0.00010456348
1.4150029e-12
-0.00052702389
5.5708587e-05
2.165828e-12
-0.00053839819
3.1397517e-06
3.0516289e-12
-0.0005450841
-5.2487424e-05
3.9657912e-12
-0.00054640966
-0.00011027844
4.7799e-12
-0.00054170222
-0.0001690644
5.6145249e-12
-0.00053033398
-0.00022737363
6.5187365e-12
-0.0005117846
-0.00028341778
7.3430217e-12
-0.00048572151
-0.00033510255
8.0234269e-12
-0.0004520952
-0.0003800757
8.4698892e-12
-0.0004112421
-0.00041582626
8.6217384e-12
-0.00036398101
-0.00043984682
8.2561432e-12
-0.00031168225
-0.00044986332
7.9394109e-12
-0.00025628403
-0.00044412252
7.5498819e-12
-0.00020023143
-0.00042170576
6.8107952e-12
-0.00014632407
-0.00038281352
5.5323329e-12
-9.7479626e-05
-0.00032894952
6.2536372e-12
-5.6448411e-05
-0.00026293514
1.6135797e-11
-2.5538803e-05
-0.00018870611
8.1901822e-12
-6.4172777e-06
-0.00011092168
-4.8772545e-11
-3.4667129e-05