/*--------------------------------*- C++ -*----------------------------------*\
  =========                 |
  \\      /  F ield         | OpenFOAM: The Open Source CFD Toolbox
   \\    /   O peration     | Website:  https://openfoam.org
    \\  /    A nd           | Version:  7
     \\/     M anipulation  |
\*---------------------------------------------------------------------------*/
FoamFile
{
    version     2.0;
    format      ascii;
    class       surfaceScalarField;
    location    "11";
    object      phi_0;
}
// * * * * * * * * * * * * * * * * * * * * * * * * * * * * * * * * * * * * * //

dimensions      [0 3 -1 0 0 0 0];

internalField   nonuniform List<scalar> 
45600
(
2.7695853e-07
-2.7644997e-07
-4.7432967e-10
4.011916e-07
-1.2388593e-07
-3.4439642e-10
1.2949852e-07
2.7188371e-07
-1.7567361e-10
-5.6361006e-07
6.9316962e-07
-7.8561873e-11
-1.6363962e-06
1.0728354e-06
-2.5040514e-11
-3.0185418e-06
1.382126e-06
4.2933633e-12
-4.6356781e-06
1.6171557e-06
1.9840013e-11
-6.4195328e-06
1.7838532e-06
2.6531766e-11
-8.3103712e-06
1.8908056e-06
2.9450295e-11
-1.025648e-05
1.9460789e-06
3.0657469e-11
-1.2212387e-05
1.9558738e-06
2.9108072e-11
-1.4136618e-05
1.9241921e-06
2.6250907e-11
-1.598966e-05
1.8530108e-06
2.4237717e-11
-1.7732419e-05
1.7427377e-06
2.3070055e-11
-1.9325271e-05
1.5928363e-06
2.1698245e-11
-2.0727836e-05
1.4025434e-06
1.9553559e-11
-2.1899451e-05
1.1715931e-06
1.7201547e-11
-2.2800336e-05
9.0087273e-07
1.495228e-11
-2.3393356e-05
5.9300819e-07
1.2138596e-11
-2.364618e-05
2.5281923e-07
9.3626719e-12
-2.3533798e-05
-1.1238908e-07
6.5786748e-12
-2.3041058e-05
-4.9274692e-07
3.8533265e-12
-2.216515e-05
-8.759056e-07
1.2815285e-12
-2.0917677e-05
-1.2474635e-06
-1.3777471e-12
-1.932609e-05
-1.5915815e-06
-4.425529e-12
-1.7434246e-05
-1.8918381e-06
-7.3381597e-12
-1.530195e-05
-2.1322864e-06
-9.58843e-12
-1.3003321e-05
-2.2986153e-06
-1.1079884e-11
-1.0623989e-05
-2.3793197e-06
-1.1800352e-11
-8.2572028e-06
-2.3667731e-06
-1.1713762e-11
-5.9991048e-06
-2.2580863e-06
-1.1011896e-11
-3.9434233e-06
-2.055673e-06
-9.5864636e-12
-2.1758886e-06
-1.7675282e-06
-7.3481886e-12
-7.685135e-07
-1.4073712e-06
-4.5886341e-12
2.2673136e-07
-9.9524249e-07
-1.4025322e-12
7.8579691e-07
-5.5906632e-07
1.4544699e-12
9.2104038e-07
-1.3525011e-07
4.4493233e-12
7.008819e-07
2.201507e-07
8.1519513e-12
2.8905325e-07
4.1181583e-07
1.2081939e-11
2.8904861e-07
5.4158833e-12
1.328583e-07
-4.08963e-07
-3.4257499e-10
-3.0178491e-07
3.1101029e-07
-2.5030104e-10
-1.6117096e-06
1.5819383e-06
-1.4490596e-10
-3.8618355e-06
2.943399e-06
-7.2601303e-11
-6.9800822e-06
4.1910647e-06
-3.2895628e-11
-1.083352e-05
5.2355775e-06
-1.2151908e-11
-1.526636e-05
6.0499639e-06
-4.162359e-12
-2.0121964e-05
6.639422e-06
-2.919065e-13
-2.5253013e-05
7.0218658e-06
2.437519e-12
-3.0524292e-05
7.2173821e-06
2.0239058e-12
-3.5811483e-05
7.2430653e-06
-1.2622491e-12
-4.0998263e-05
7.1109657e-06
-3.8149326e-12
-4.5973162e-05
6.8279198e-06
-4.2423658e-12
-5.0627032e-05
6.3966163e-06
-3.8559492e-12
-5.4851609e-05
5.8174125e-06
-3.2100645e-12
-5.8539542e-05
5.0904743e-06
-2.3049235e-12
-6.1585944e-05
4.2179943e-06
-9.1623214e-13
-6.3891341e-05
3.2062772e-06
1.2569813e-12
-6.5365875e-05
2.0675372e-06
3.2766213e-12
-6.5934314e-05
8.2124991e-07
5.8928529e-12
-6.5541882e-05
-5.0483032e-07
9.292198e-12
-6.4159451e-05
-1.8751877e-06
1.306892e-11
-6.1789285e-05
-3.2460848e-06
1.662721e-11
-5.8468969e-05
-4.5677944e-06
1.9701071e-11
-5.4274188e-05
-5.7863852e-06
2.2012966e-11
-4.931943e-05
-6.8466226e-06
2.3858657e-11
-4.3756359e-05
-7.6953845e-06
2.553152e-11
-3.7769587e-05
-8.2854104e-06
2.6805187e-11
-3.1569851e-05
-8.5790817e-06
2.7320909e-11
-2.538474e-05
-8.5519127e-06
2.7133273e-11
-1.9447402e-05
-8.195453e-06
2.6056656e-11
-1.3983717e-05
-7.5193862e-06
2.4125542e-11
-9.1984374e-06
-6.5528302e-06
2.1720735e-11
-5.2606689e-06
-5.3451592e-06
1.8649383e-11
-2.2887456e-06
-3.9671837e-06
1.5157095e-11
-3.3383287e-07
-2.5139914e-06
1.1556375e-11
6.4291598e-07
-1.1120114e-06
7.4942463e-12
7.9475099e-07
6.8309136e-08
5.7650175e-12
4.1455743e-07
7.9200206e-07
6.8362205e-12
7.0360603e-07
-4.2959862e-14
-2.7280877e-07
-1.3595749e-07
-1.8175058e-10
-1.6214256e-06
1.6597493e-06
-1.4005296e-10
-4.2715054e-06
4.2321413e-06
-8.5684596e-11
-8.2375567e-06
6.9094565e-06
-4.0462882e-11
-1.3410881e-05
9.3644477e-06
-9.5830362e-12
-1.9612558e-05
1.1437281e-05
5.7758987e-12
-2.6632025e-05
1.3069395e-05
1.294324e-11
-3.42517e-05
1.4259069e-05
1.783843e-11
-4.2260215e-05
1.503037e-05
1.958852e-11
-5.0457513e-05
1.5414651e-05
1.7753283e-11
-5.8654994e-05
1.544052e-05
1.4886231e-11
-6.6673319e-05
1.5129279e-05
1.315677e-11
-7.4339504e-05
1.4494098e-05
1.2340277e-11
-8.1484551e-05
1.3541653e-05
1.1336576e-11
-8.794243e-05
1.2275275e-05
1.0452642e-11
-9.3550819e-05
1.0698853e-05
9.8414623e-12
-9.8153761e-05
8.8209288e-06
9.1045253e-12
-0.00010160607
6.6585789e-06
8.5444811e-12
-0.00010377924
4.2407059e-06
7.8405154e-12
-0.00010456852
1.6105199e-06
7.6604466e-12
-0.00010390027
-1.1730896e-06
8.0741088e-12
-0.00010173965
-4.0358096e-06
8.5895686e-12
-9.8097254e-05
-6.8884839e-06
8.6464525e-12
-9.3034442e-05
-9.6306129e-06
8.2224792e-12
-8.6666571e-05
-1.2154267e-05
7.4833095e-12
-7.9163526e-05
-1.4349674e-05
6.8526603e-12
-7.0747119e-05
-1.6111795e-05
6.5922493e-12
-6.1685016e-05
-1.7347516e-05
6.5582242e-12
-5.2281149e-05
-1.7982956e-05
6.3793888e-12
-4.286278e-05
-1.7970291e-05
6.2578814e-12
-3.376467e-05
-1.7293568e-05
6.2615361e-12
-2.5310972e-05
-1.5973091e-05
6.1917329e-12
-1.7795518e-05
-1.406829e-05
6.294087e-12
-1.1461218e-05
-1.1679465e-05
6.3920892e-12
-6.4789864e-06
-8.9494243e-06
6.3927977e-12
-2.9260773e-06
-6.0669082e-06
6.4261533e-12
-7.6386717e-07
-3.2742314e-06
6.1285741e-12
1.8538073e-07
-8.8094351e-07
6.5410752e-12
2.6180899e-07
7.1556682e-07
8.1178272e-12
9.6541034e-07
3.508688e-12
-7.4249489e-07
6.0661161e-07
-9.0070736e-11
-3.1643426e-06
4.0816939e-06
-6.1129714e-11
-7.3093643e-06
8.3771699e-06
-4.0135333e-11
-1.3095376e-05
1.2695486e-05
-1.5775956e-11
-2.0348536e-05
1.6617613e-05
2.0646171e-12
-2.8838438e-05
1.9927163e-05
1.2542423e-11
-3.8307033e-05
2.2537983e-05
1.9436276e-11
-4.8489141e-05
2.4441172e-05
2.2637276e-11
-5.9124382e-05
2.566559e-05
2.1633862e-11
-6.9962403e-05
2.6252636e-05
1.901501e-11
-8.0763627e-05
2.6241721e-05
1.7014266e-11
-9.1297658e-05
2.5663302e-05
1.5728046e-11
-0.00010134097
2.4537398e-05
1.4639244e-11
-0.00011067518
2.287584e-05
1.3392099e-11
-0.00011908676
2.0686843e-05
1.2374715e-11
-0.00012636872
1.7980803e-05
1.1531209e-11
-0.00013232423
1.4776429e-05
1.0404495e-11
-0.0001367722
1.1106547e-05
9.2642248e-12
-0.00013955449
7.0229754e-06
8.2566664e-12
-0.00014054408
2.6001025e-06
7.993427e-12
-0.00013965379
-2.0633799e-06
8.1165133e-12
-0.00013684505
-6.8445615e-06
7.9288662e-12
-0.0001321353
-1.1598235e-05
7.1539726e-12
-0.00012560412
-1.61618e-05
6.0764325e-12
-0.00011739674
-2.0361656e-05
4.9766564e-12
-0.00010772457
-2.4021846e-05
4.102043e-12
-9.6862114e-05
-2.6974252e-05
3.5459285e-12
-8.5139836e-05
-2.9069796e-05
3.2929105e-12
-7.2932896e-05
-3.0189898e-05
3.0756646e-12
-6.0645842e-05
-3.0257352e-05
2.9725732e-12
-4.8693661e-05
-2.9245754e-05
3.1525095e-12
-3.7479924e-05
-2.7186832e-05
3.42611e-12
-2.7372891e-05
-2.4175327e-05
3.9065455e-12
-1.8680639e-05
-2.0371722e-05
4.48422e-12
-1.1626278e-05
-1.6003794e-05
5.0389095e-12
-6.3241472e-06
-1.1369044e-05
5.6782413e-12
-2.7578808e-06
-6.8405051e-06
6.269293e-12
-7.6305729e-07
-2.8757739e-06
6.911402e-12
-1.2314372e-08
-3.5182397e-08
7.185881e-12
9.530883e-07
6.440585e-12
-1.2215044e-06
1.8281799e-06
-4.3192238e-11
-4.7621338e-06
7.6222821e-06
-1.4595673e-11
-1.0463447e-05
1.407854e-05
-1.0666213e-11
-1.81127e-05
2.0344749e-05
-1.7427948e-12
-2.7448902e-05
2.5953769e-05
8.0226059e-12
-3.8179811e-05
3.0658045e-05
1.5432769e-11
-4.9999048e-05
3.4357224e-05
1.9666102e-11
-6.2599219e-05
3.7041325e-05
1.9747039e-11
-7.5679834e-05
3.874617e-05
1.7282428e-11
-8.8950719e-05
3.9523502e-05
1.5074498e-11
-0.00010213217
3.9423168e-05
1.3722572e-11
-0.00011495336
3.8484473e-05
1.2518573e-11
-0.00012715036
3.6734381e-05
1.1384263e-11
-0.00013846508
3.4190546e-05
1.0474794e-11
-0.0001486457
3.0867455e-05
9.8212356e-12
-0.00015744909
2.6784194e-05
9.048263e-12
-0.00016464534
2.197267e-05
8.123071e-12
-0.00017002412
1.6485319e-05
7.516633e-12
-0.00017340272
1.0401559e-05
7.3163577e-12
-0.00017463505
3.8324229e-06
7.829377e-12
-0.00017362117
-3.077252e-06
8.4882314e-12
-0.00017031666
-1.014908e-05
8.6316384e-12
-0.00016474085
-1.7174053e-05
8.1808996e-12
-0.00015698354
-2.3919122e-05
7.5650151e-12
-0.00014720913
-3.0136075e-05
7.0784051e-12
-0.0001356576
-3.557338e-05
6.7870426e-12
-0.0001226416
-3.9990251e-05
6.6193935e-12
-0.00010853917
-4.3172231e-05
6.5465996e-12
-9.3781738e-05
-4.494734e-05
6.4384727e-12
-7.8837447e-05
-4.5201651e-05
6.3455519e-12
-6.4190122e-05
-4.3893085e-05
6.3989611e-12
-5.0314606e-05
-4.1062354e-05
6.4286582e-12
-3.7649576e-05
-3.6840365e-05
6.4984394e-12
-2.6569301e-05
-3.1452004e-05
6.5128638e-12
-1.7356009e-05
-2.5217095e-05
6.4454434e-12
-1.0174628e-05
-1.8550432e-05
6.5325744e-12
-5.051847e-06
-1.1963294e-05
6.9801168e-12
-1.8618467e-06
-6.0657823e-06
6.6779662e-12
-3.2357746e-07
-1.5734536e-06
3.7086481e-12
6.2950121e-07
8.5957189e-12
-1.6834027e-06
3.5115926e-06
-1.9685616e-11
-6.3341848e-06
1.2273058e-05
1.3170129e-11
-1.3591157e-05
2.1335539e-05
4.6189661e-12
-2.3097417e-05
2.9850992e-05
7.2447323e-12
-3.4491348e-05
3.7347687e-05
1.478952e-11
-4.7410203e-05
4.357689e-05
1.8869704e-11
-6.1496117e-05
4.8443118e-05
1.9294077e-11
-7.6401129e-05
5.1946312e-05
1.7610178e-11
-9.1789869e-05
5.4134889e-05
1.5505573e-11
-0.00010733979
5.507341e-05
1.3925649e-11
-0.00012273962
5.4822985e-05
1.2687163e-11
-0.00013768703
5.3431878e-05
1.1493015e-11
-0.00015188668
5.0934006e-05
1.0481925e-11
-0.00016504927
4.7353132e-05
9.7364779e-12
-0.00017689256
4.2710735e-05
9.0958681e-12
-0.00018714422
3.7035843e-05
8.1318705e-12
-0.00019554689
3.037533e-05
7.2035789e-12
-0.0002018651
2.2803524e-05
6.9587796e-12
-0.00020589375
1.4430192e-05
7.2485406e-12
-0.00020746757
5.4062456e-06
7.949727e-12
-0.00020647129
-4.0735415e-06
8.4583645e-12
-0.00020284944
-1.3770937e-05
8.3959486e-12
-0.00019661559
-2.3407914e-05
7.9347334e-12
-0.00018785989
-3.2674827e-05
7.473061e-12
-0.00017675437
-4.1241602e-05
7.2004335e-12
-0.00016355502
-4.8772733e-05
7.0608967e-12
-0.00014859998
-5.4945301e-05
6.9681773e-12
-0.00013230298
-5.9469242e-05
6.9117028e-12
-0.00011514161
-6.2108717e-05
6.8338982e-12
-9.7640133e-05
-6.2703133e-05
6.7811218e-12
-8.0347043e-05
-6.1186181e-05
6.8179043e-12
-6.3808103e-05
-5.7601301e-05
6.7980369e-12
-4.8536177e-05
-5.2112298e-05
6.8536916e-12
-3.4979679e-05
-4.5008509e-05
6.8035362e-12
-2.3491924e-05
-3.6704858e-05
6.5761743e-12
-1.4303936e-05
-2.7738428e-05
6.5861205e-12
-7.5034473e-06
-1.8763792e-05
7.4587233e-12
-3.0232061e-06
-1.0546029e-05
6.6909508e-12
-6.4216277e-07
-3.9544957e-06
1.1667387e-12
-1.2674205e-08
1.0917121e-11
-2.1198693e-06
5.6315061e-06
-9.3930313e-12
-7.8427718e-06
1.7995895e-05
2.71113e-11
-1.6615335e-05
3.0108072e-05
1.1752039e-11
-2.7934878e-05
4.1170529e-05
1.3153099e-11
-4.1333693e-05
5.07465e-05
1.8972285e-11
-5.6373526e-05
5.8616709e-05
1.9467647e-11
-7.2642605e-05
6.4712167e-05
1.7563369e-11
-8.9753115e-05
6.9056795e-05
1.5760988e-11
-0.00010733825
7.1720019e-05
1.4437151e-11
-0.00012504861
7.2783763e-05
1.3208352e-11
-0.00014254819
7.2322547e-05
1.192934e-11
-0.00015951072
7.0394392e-05
1.0871379e-11
-0.00017561705
6.7040322e-05
1.0109715e-11
-0.00019055408
6.2290153e-05
9.3096706e-12
-0.00020401571
5.6172359e-05
8.4438953e-12
-0.00021570592
4.8726042e-05
7.4039822e-12
-0.00022534392
4.0013321e-05
6.7255512e-12
-0.00023267124
3.0130831e-05
6.8848281e-12
-0.00023746033
1.9219269e-05
7.4492671e-12
-0.00023952434
7.4702521e-06
8.0488234e-12
-0.00023872763
-4.870255e-06
8.2466964e-12
-0.00023499631
-1.7502268e-05
7.9309771e-12
-0.0002283285
-3.0075737e-05
7.4426439e-12
-0.0002188033
-4.2200031e-05
7.1202662e-12
-0.00020658787
-5.345704e-05
6.982424e-12
-0.00019194152
-6.3419083e-05
6.8536294e-12
-0.00017521597
-7.1670862e-05
6.7512942e-12
-0.00015685056
-7.7834653e-05
6.70859e-12
-0.00013736181
-8.1597477e-05
6.6397353e-12
-0.00011732648
-8.2738474e-05
6.6104384e-12
-9.7358325e-05
-8.1154339e-05
6.6896048e-12
-7.8079091e-05
-7.688054e-05
6.6776575e-12
-6.0085139e-05
-7.0106255e-05
6.7368699e-12
-4.3912042e-05
-6.1181613e-05
6.6595938e-12
-2.999996e-05
-5.0616949e-05
6.3821759e-12
-1.8663139e-05
-3.9075258e-05
6.4512016e-12
-1.0066978e-05
-2.7359961e-05
7.8966378e-12
-4.2162053e-06
-1.6396808e-05
6.6514642e-12
-9.5746249e-07
-7.2132367e-06
-1.6354386e-12
-9.701496e-07
1.2935189e-11
-2.5289076e-06
8.1604499e-06
-7.0539931e-12
-9.2701688e-06
2.4737079e-05
3.6104921e-11
-1.9492936e-05
4.0330814e-05
1.6407333e-11
-3.2554112e-05
5.4231713e-05
1.5243021e-11
-4.7880444e-05
6.6072819e-05
1.8723598e-11
-6.4957208e-05
7.5693442e-05
1.7381125e-11
-8.3318316e-05
8.3073252e-05
1.5379938e-11
-0.00010253726
8.8275731e-05
1.4130752e-11
-0.00012221878
9.1401524e-05
1.3025864e-11
-0.00014199112
9.2556089e-05
1.1878116e-11
-0.00016149927
9.183068e-05
1.0811044e-11
-0.00018039944
8.929455e-05
9.9998555e-12
-0.0001983553
8.4996174e-05
9.3438955e-12
-0.00021503625
7.8971101e-05
8.3464197e-12
-0.00023011795
7.1254055e-05
7.321274e-12
-0.00024328509
6.1893158e-05
6.496771e-12
-0.00025423624
5.0964461e-05
6.3276892e-12
-0.00026269076
3.8585348e-05
6.8848486e-12
-0.00026839723
2.4925739e-05
7.5461746e-12
-0.00027114328
1.0216291e-05
7.9089824e-12
-0.00027076641
-5.2471328e-06
7.8600647e-12
-0.00026716533
-2.1103356e-05
7.5261449e-12
-0.00026031164
-3.6929436e-05
7.1588364e-12
-0.00025026071
-5.2250972e-05
6.9863382e-12
-0.00023716126
-6.655649e-05
7.0162256e-12
-0.00022126252
-7.9317837e-05
6.941572e-12
-0.00020291752
-9.0015867e-05
6.8203714e-12
-0.00018258143
-9.8170752e-05
6.8057403e-12
-0.00016080334
-0.00010337557
6.7840381e-12
-0.00013821067
-0.00010533115
6.7688833e-12
-0.00011548565
-0.00010387936
6.8506755e-12
-9.3334382e-05
-9.9031821e-05
6.8096386e-12
-7.2449839e-05
-9.0990802e-05
6.8317883e-12
-5.3471609e-05
-8.0159853e-05
6.6728295e-12
-3.6945698e-05
-6.7142867e-05
6.3147632e-12
-2.3288727e-05
-5.2732237e-05
6.3524994e-12
-1.2760595e-05
-3.78881e-05
8.2544323e-12
-5.4497522e-06
-2.3707659e-05
6.438186e-12
-1.2743587e-06
-1.1388623e-05
-4.5891212e-12
-2.2445255e-06
1.515812e-11
-2.9096091e-06
1.1070065e-05
-7.9062043e-12
-1.0605756e-05
3.2433202e-05
4.3278295e-11
-2.2195675e-05
5.1920722e-05
1.8057787e-11
-3.6905067e-05
6.8941088e-05
1.3282519e-11
-5.4059897e-05
8.3227625e-05
1.603134e-11
-7.307144e-05
9.4704961e-05
1.4949449e-11
-9.3421088e-05
0.00010342289
1.3513065e-11
-0.00011464584
0.00010950048
1.2541759e-11
-0.00013632507
0.00011308074
1.1443516e-11
-0.00015806889
0.00011429989
1.0451876e-11
-0.00017950835
0.00011327013
9.6928462e-12
-0.00020028781
0.000110074
8.9643839e-12
-0.00022005961
0.00010476797
8.1721422e-12
-0.00023848124
9.7392727e-05
7.0142839e-12
-0.00025521502
8.7987817e-05
6.0959513e-12
-0.00026993004
7.6608172e-05
5.7442626e-12
-0.00028230645
6.3340866e-05
6.1240922e-12
-0.00029204161
4.8320505e-05
6.8574979e-12
-0.00029885812
3.1742242e-05
7.3712839e-12
-0.00030251345
1.3871609e-05
7.4722054e-12
-0.00030281108
-4.949516e-06
7.294421e-12
-0.00029961257
-2.4301878e-05
7.0962064e-12
-0.00029285104
-4.369097e-05
6.9601184e-12
-0.00028254442
-6.2557598e-05
6.9097847e-12
-0.00026880831
-8.0292598e-05
7.050708e-12
-0.00025186711
-9.6259054e-05
7.0680904e-12
-0.00023206165
-0.00010982133
6.9560546e-12
-0.00020985188
-0.00012038053
6.9850469e-12
-0.00018581232
-0.00012741515
7.0525224e-12
-0.00016061891
-0.00013052456
7.0525354e-12
-0.00013502613
-0.00012947215
7.0834169e-12
-0.00010983431
-0.00012422365
6.9478997e-12
-8.5848582e-05
-0.00011497654
6.8990392e-12
-6.38324e-05
-0.00010217605
6.6779656e-12
-4.4459819e-05
-8.6515453e-05
6.2445786e-12
-2.8271781e-05
-6.8920281e-05
6.1319747e-12
-1.5641508e-05
-5.0518382e-05
8.3912621e-12
-6.7539139e-06
-3.2595259e-05
6.040106e-12
-1.6023459e-06
-1.6540183e-05
-7.9331554e-12
-3.8468944e-06
1.7292924e-11
-3.2605266e-06
1.43306e-05
-1.0077719e-11
-1.1840243e-05
4.1012895e-05
4.6219728e-11
-2.4699992e-05
6.478045e-05
1.5897787e-11
-4.0945692e-05
8.5186761e-05
9.6183959e-12
-5.9810163e-05
0.00010209208
1.3338888e-11
-8.0635683e-05
0.00011553047
1.3028507e-11
-0.00010285478
0.00012564198
1.1785105e-11
-0.00012597124
0.00013261692
1.0844154e-11
-0.00014954263
0.00013665212
9.924398e-12
-0.00017316508
0.00013792232
9.2132936e-12
-0.00019646048
0.00013656552
8.6461759e-12
-0.00021906653
0.00013268004
7.7468678e-12
-0.00024062961
0.00012633104
6.7090614e-12
-0.00026080049
0.0001175636
5.6588392e-12
-0.00027923266
0.00010641998
5.2052455e-12
-0.00029558319
9.2958686e-05
5.3851601e-12
-0.00030951577
7.7273452e-05
6.0650549e-12
-0.000320706
5.9510727e-05
6.7038134e-12
-0.00032884848
3.9884714e-05
6.9546888e-12
-0.00033366606
1.8689181e-05
6.8458685e-12
-0.00033492121
-3.6943786e-06
6.6471505e-12
-0.00033242848
-2.6794622e-05
6.6559198e-12
-0.00032607037
-5.0049083e-05
6.7734497e-12
-0.00031581301
-7.2814959e-05
6.8082247e-12
-0.00030172306
-9.4382555e-05
6.9661942e-12
-0.00028398366
-0.00011399847
7.1088779e-12
-0.00026290775
-0.00013089725
7.0790165e-12
-0.00023894647
-0.00014434182
7.12558e-12
-0.00021269004
-0.00015367158
7.2434443e-12
-0.0001848586
-0.00015835601
7.2613116e-12
-0.00015628118
-0.00015804957
7.2635568e-12
-0.00012786194
-0.0001526429
7.0538281e-12
-0.00010053474
-0.00014230374
6.9397363e-12
-7.5209138e-05
-0.00012750166
6.684922e-12
-5.2712787e-05
-0.00010901181
6.1456421e-12
-3.3736728e-05
-8.7896348e-05
5.8386912e-12
-1.8790141e-05
-6.5464976e-05
8.4027128e-12
-8.1707877e-06
-4.3214617e-05
5.288094e-12
-1.9547983e-06
-2.2756166e-05
-1.1510385e-11
-5.8017014e-06
2.0169383e-11
-3.5793587e-06
1.7909974e-05
-1.4273059e-11
-1.2963393e-05
5.0396879e-05
4.5696527e-11
-2.6982435e-05
7.8799469e-05
1.2729649e-11
-4.4635453e-05
0.00010283977
6.7187042e-12
-6.5071589e-05
0.00012252821
1.1401884e-11
-8.757088e-05
0.00013802976
1.1303486e-11
-0.000111522
0.00014959309
9.9861846e-12
-0.00013639968
0.00015749458
9.2053226e-12
-0.00016174371
0.00016199614
8.6142879e-12
-0.00018714043
0.00016331903
7.9892494e-12
-0.00021220718
0.00016163226
7.2844805e-12
-0.00023657996
0.00015705282
6.1717905e-12
-0.00025990433
0.0001496554
5.1449917e-12
-0.00028182931
0.00013948857
4.5284555e-12
-0.00030200415
0.00012659481
4.6716744e-12
-0.00032007756
0.00011103209
5.226555e-12
-0.0003356993
9.289519e-05
5.88714e-12
-0.000348524
7.2335419e-05
6.221934e-12
-0.00035821714
4.9577848e-05
6.2554844e-12
-0.00036446344
2.4935465e-05
6.1137871e-12
-0.00036697842
-1.1794079e-06
6.0044293e-12
-0.00036552052
-2.8252526e-05
6.2232599e-12
-0.00035991011
-5.5659501e-05
6.5308368e-12
-0.00035004702
-8.267805e-05
6.6792139e-12
-0.00033593224
-0.00010849735
6.8410076e-12
-0.00031768943
-0.00013224128
7.092884e-12
-0.0002955851
-0.00015300159
7.2158123e-12
-0.00027004438
-0.00016988254
7.334652e-12
-0.00024165923
-0.00018205675
7.4823504e-12
-0.00021118542
-0.00018882982
7.4406286e-12
-0.00017952528
-0.00018970972
7.3441772e-12
-0.00014769414
-0.00018447406
7.0782013e-12
-0.00011677073
-0.00017322715
6.9064198e-12
-8.7834583e-05
-0.00015643782
6.5719605e-12
-6.1895951e-05
-0.00013495044
5.8369819e-12
-3.9826614e-05
-0.00010996569
5.3266259e-12
-2.2300001e-05
-8.2991592e-05
7.8433643e-12
-9.7490606e-06
-5.5765561e-05
3.3600079e-12
-2.3466684e-06
-3.0158533e-05
-1.5703614e-11
-8.1483978e-06
2.2604585e-11
-3.8629635e-06
2.1772948e-05
-1.9424199e-11
-1.3963451e-05
6.0497313e-05
4.5118701e-11
-2.9018065e-05
9.3854075e-05
1.0660829e-11
-4.7932695e-05
0.0001217544
4.7087508e-12
-6.9783417e-05
0.00014437893
9.6964022e-12
-9.3795874e-05
0.0001620422
9.5377247e-12
-0.00011932076
0.00017511795
8.3261841e-12
-0.00014580848
0.00018398229
7.8088243e-12
-0.00017278529
0.00018897295
7.367834e-12
-0.00019983201
0.00019036575
6.5478497e-12
-0.00022656592
0.00018836616
5.5805791e-12
-0.00025262613
0.00018311301
4.5072953e-12
-0.00027766239
0.00017469165
3.8881876e-12
-0.00030132706
0.00016315324
3.8674776e-12
-0.00032326995
0.0001485377
4.4064853e-12
-0.0003431357
0.00013089783
4.9752754e-12
-0.0003605635
0.00011032298
5.3951355e-12
-0.00037518912
8.6961026e-05
5.4422804e-12
-0.00038664935
6.1038067e-05
5.3935414e-12
-0.00039458928
3.2875389e-05
5.384955e-12
-0.00039867227
2.9035796e-06
5.5945366e-12
-0.00039859536
-2.8329444e-05
5.8181554e-12
-0.00039410537
-6.0149497e-05
6.2015247e-12
-0.00038502234
-9.1761089e-05
6.4761675e-12
-0.00037126456
-0.00012225514
6.6908645e-12
-0.00035287642
-0.00015062943
7.0554938e-12
-0.00033005633
-0.00017582168
7.3562402e-12
-0.00030318166
-0.00019675722
7.5720308e-12
-0.00027282649
-0.00021241192
7.7527519e-12
-0.00023976749
-0.00022188883
7.6812479e-12
-0.00020497314
-0.00022450408
7.5053091e-12
-0.00016957271
-0.00021987449
7.2235326e-12
-0.00013480369
-0.00020799619
7.0109718e-12
-0.00010193984
-0.00018930167
6.5849228e-12
-7.2206433e-05
-0.00016468385
5.6637517e-12
-4.6692365e-05
-0.00013547976
4.9576956e-12
-2.6270927e-05
-0.00010341304
7.2014705e-12
-1.1540677e-05
-7.0495826e-05
-7.6583917e-12
-2.7936267e-06
-3.890556e-05
-2.1448724e-11
-1.0942052e-05
2.5609638e-11
-4.1075749e-06
2.588054e-05
-2.3271097e-11
-1.4827489e-05
7.1217184e-05
4.577333e-11
-3.0780619e-05
0.0001098072
9.2692029e-12
-5.0794495e-05
0.00014176828
2.7737546e-12
-7.3883433e-05
0.00016746785
7.9755418e-12
-9.9227079e-05
0.00018738583
7.9534041e-12
-0.0001261444
0.00020203527
6.9159503e-12
-0.00015406643
0.00021190432
6.4191148e-12
-0.00018251017
0.00021741668
5.8121124e-12
-0.00021105506
0.00021891063
4.7777937e-12
-0.00023932264
0.00021663373
3.8189113e-12
-0.00026695984
0.0002107502
3.1617211e-12
-0.0002936256
0.0002013574
3.1262681e-12
-0.00031898086
0.0001885085
3.5390796e-12
-0.00034268129
0.00017223813
4.1368748e-12
-0.00036437259
0.00015258912
4.4526332e-12
-0.00038368799
0.00012963838
4.5673038e-12
-0.00040024825
0.00010352128
4.4638892e-12
-0.00041366409
7.4453895e-05
4.4789718e-12
-0.00042354175
4.2753043e-05
4.6402742e-12
-0.00042949197
8.8537935e-06
5.0037861e-12
-0.00043114471
-2.6676704e-05
5.334907e-12
-0.00042816641
-6.3127809e-05
5.7745766e-12
-0.00042028525
-9.9642255e-05
6.1960513e-12
-0.00040732047
-0.00013521992
6.5495109e-12
-0.00038921638
-0.00016873353
7.030501e-12
-0.00036607881
-0.00019895927
7.4552077e-12
-0.00033821064
-0.0002246254
7.7164073e-12
-0.00030614166
-0.00024448092
7.8757239e-12
-0.00027064655
-0.00025738394
7.8006756e-12
-0.00023274451
-0.00026240613
7.6018905e-12
-0.00019367426
-0.00025894475
7.3492688e-12
-0.000154841
-0.00024682946
7.1770687e-12
-0.00011773581
-0.00022640687
6.8040928e-12
-8.3834022e-05
-0.00019858564
5.9606239e-12
-5.4484345e-05
-0.00016482944
5.8297777e-12
-3.0804394e-05
-0.000127093
9.5877311e-12
-1.3598853e-05
-8.7701367e-05
3.5393245e-12
-3.3116314e-06
-4.9192759e-05
-2.5039299e-11
-1.4253714e-05
2.987883e-11
-4.3091875e-06
3.018976e-05
-2.5622787e-11
-1.554227e-05
8.2450225e-05
4.665152e-11
-3.2243768e-05
0.0001265087
7.8383232e-12
-5.3178235e-05
0.00016270274
8.8794615e-13
-7.7309845e-05
0.00019159945
6.4563325e-12
-0.00010378074
0.00021385672
6.6272029e-12
-0.00013188441
0.00023013894
5.5707288e-12
-0.00016103728
0.00024105718
4.8417467e-12
-0.00019075115
0.00024713056
4.0010771e-12
-0.00022060801
0.00024876747
3.022046e-12
-0.00025023776
0.00024626348
2.4669997e-12
-0.0002792996
0.00023981204
2.4009609e-12
-0.0003074667
0.0002295245
2.7882683e-12
-0.00033441403
0.00021545583
3.2673757e-12
-0.00035980902
0.00019763311
3.6174618e-12
-0.00038330449
0.00017608458
3.6325473e-12
-0.00040453392
0.00015086781
3.5566375e-12
-0.00042310897
0.00012209632
3.4570833e-12
-0.00043861959
8.9964511e-05
3.6088442e-12
-0.00045063736
5.477081e-05
3.9004921e-12
-0.00045872284
1.6939265e-05
4.3080527e-12
-0.00046243836
-2.2961192e-05
4.7470384e-12
-0.00046136602
-6.4200152e-05
5.2654055e-12
-0.00045513347
-0.00010587481
5.8378817e-12
-0.00044344655
-0.00014690685
6.3821898e-12
-0.00042612899
-0.0001860511
7.031127e-12
-0.00040316751
-0.00022192075
7.5919581e-12
-0.00037475915
-0.00025303377
7.8879536e-12
-0.00034135551
-0.00027788456
7.9783252e-12
-0.00030369678
-0.00029504268
7.8519382e-12
-0.00026282646
-0.00030327645
7.5618334e-12
-0.00022007779
-0.00030169343
7.2088723e-12
-0.00017702458
-0.00028988268
6.964403e-12
-0.00013539429
-0.00026803716
6.4672126e-12
-9.6948582e-05
-0.00023703136
5.5292458e-12
-6.3344911e-05
-0.00019843311
5.7567786e-12
-3.599981e-05
-0.00015443811
1.1271042e-11
-1.5976788e-05
-0.00010772439
5.6177494e-12
-3.9168003e-06
-6.1252718e-05
-2.9098261e-11
-1.8170551e-05
3.5076091e-11
-4.4639904e-06
3.4653783e-05
-2.771197e-11
-1.6095443e-05
9.4081627e-05
4.6770061e-11
-3.3383149e-05
0.00014379639
6.3811698e-12
-5.5044438e-05
0.00018436402
-6.6225264e-13
-8.0004869e-05
0.00021655988
5.1696193e-12
-0.00010737729
0.00024122914
5.2485115e-12
-0.0001364355
0.00025919716
3.9236152e-12
-0.0001665857
0.00027120737
3.0205585e-12
-0.00019733816
0.00027788301
2.2673488e-12
-0.00022828085
0.00027971015
1.7084569e-12
-0.00025905579
0.00027703841
1.7382773e-12
-0.00028933871
0.00027009496
2.093102e-12
-0.00031882191
0.0002590077
2.5137326e-12
-0.00034720008
0.000243834
2.7520574e-12
-0.00037415879
0.00022459181
2.7756999e-12
-0.00039936515
0.00020129094
2.6341969e-12
-0.00042246066
0.0001739633
2.5548465e-12
-0.00044305605
0.00014269171
2.5446761e-12
-0.00046072877
0.00010763724
2.8047001e-12
-0.00047502363
6.9065665e-05
3.1863263e-12
-0.00048545754
2.7373164e-05
3.6040909e-12
-0.00049152985
-1.6888885e-05
4.0784095e-12
-0.00049273919
-6.2990822e-05
4.6892252e-12
-0.00048860862
-0.00011000538
5.4360527e-12
-0.00047872003
-0.00015679544
6.1570062e-12
-0.0004627582
-0.00020201294
6.9383698e-12
-0.00044056386
-0.0002441151
7.6426041e-12
-0.00041219321
-0.00028140443
8.0698301e-12
-0.00037797867
-0.00031209912
8.2432762e-12
-0.00033858266
-0.0003344387
8.2008654e-12
-0.00029503342
-0.0003468257
7.9553508e-12
-0.00024872975
-0.0003479971
7.6048774e-12
-0.00020140277
-0.00033720967
7.3278815e-12
-0.00015502754
-0.00031441239
6.790525e-12
-0.00011168676
-0.00028037214
6.2140792e-12
-7.3400959e-05
-0.00023671891
6.0223758e-12
-4.1951152e-05
-0.00018588794
1.2839311e-11
-1.8726597e-05
-0.00013094896
6.5522267e-12
-4.6253249e-06
-7.5353958e-05
-3.4604947e-11
-2.2795918e-05
4.0958451e-11
-4.5688399e-06
3.9222653e-05
-2.9664742e-11
-1.6476997e-05
0.00010598973
4.648527e-11
-3.4178988e-05
0.00016149838
5.1469791e-12
-5.6360555e-05
0.0002065456
-2.0109065e-12
-8.1919638e-05
0.00024211896
3.8355001e-12
-0.00010994729
0.00026925678
3.6816274e-12
-0.00013970278
0.00028895265
2.1632407e-12
-0.00017058577
0.00030209035
1.4236205e-12
-0.00020210802
0.00030940525
1.1558487e-12
-0.00023386646
0.00031146858
1.1216219e-12
-0.00026551853
0.00030869049
1.4804788e-12
-0.00029676042
0.00030133686
1.8691857e-12
-0.00032730831
0.00028955559
2.0388263e-12
-0.00035688237
0.00027340806
1.9564537e-12
-0.00038519317
0.0002529026
1.7522182e-12
-0.00041193017
0.00022802794
1.6189038e-12
-0.00043675209
0.00019878522
1.6520601e-12
-0.00045927911
0.00016521873
1.7604431e-12
-0.00047908745
0.00012744557
2.0571914e-12
-0.00049570678
8.568499e-05
2.4844923e-12
-0.00050862171
4.0288088e-05
2.9549464e-12
-0.00051727864
-8.2319597e-06
3.4704254e-12
-0.00052109968
-5.9169786e-05
4.1483613e-12
-0.00051950552
-0.00011159955
5.0440937e-12
-0.0005119493
-0.00016435168
5.8818197e-12
-0.00049796288
-0.00021599936
6.662226e-12
-0.00047721625
-0.00026486174
7.3591982e-12
-0.0004495884
-0.00030903228
7.8435502e-12
-0.0004152457
-0.00034644183
8.1035756e-12
-0.000374719
-0.0003749654
8.1304947e-12
-0.00032896675
-0.00039257796
7.9660838e-12
-0.00027940689
-0.00039755697
7.6027608e-12
-0.00022789947
-0.00038871711
7.0635992e-12
-0.00017666527
-0.00036564659
6.4181748e-12
-0.00012813701
-0.00032890041
5.398028e-12
-8.4755603e-05
-0.00028010032
5.9613002e-12
-4.87433e-05
-0.00022190026
1.4382341e-11
-2.1898287e-05
-0.00015779398
7.164625e-12
-5.4534118e-06
-9.1798792e-05
-4.1256522e-11
-2.8249378e-05
4.7646168e-11
-4.6217917e-06
4.3844474e-05
-3.1214857e-11
-1.6680934e-05
0.00011804883
4.6010412e-11
-3.4619157e-05
0.0001794366
4.075603e-12
-5.7105472e-05
0.00022903192
-3.4269717e-12
-8.3020136e-05
0.00026803362
2.2579704e-12
-0.00011143884
0.00029767549
2.0843101e-12
-0.00014161051
0.00031912431
7.7227861e-13
-0.00017293115
0.00033341099
4.5299987e-13
-0.00020491641
0.0003413905
6.8451226e-13
-0.00023717457
0.00034372675
9.4070552e-13
-0.00026938131
0.00034089722
1.2406447e-12
-0.00030125682
0.00033321238
1.3461468e-12
-0.00033254572
0.00032084448
1.2287095e-12
-0.00036299934
0.00030386167
9.9641082e-13
-0.0003923604
0.00028226366
7.6288645e-13
-0.00042034939
0.00025601693
7.3973505e-13
-0.00044665265
0.00022508847
8.9291331e-13
-0.000470912
0.00018947808
1.0990309e-12
-0.00049271627
0.00014924984
1.3688435e-12
-0.00051159531
0.00010456402
1.7841387e-12
-0.00052701742
5.5710199e-05
2.3510192e-12
-0.00053839178
3.1423955e-06
3.0124368e-12
-0.00054507778
-5.2483795e-05
3.800946e-12
-0.00054640344
-0.00011027389
4.8247616e-12
-0.00054169614
-0.00016905899
5.7824908e-12
-0.00053032807
-0.00022736744
6.585823e-12
-0.00051177891
-0.00028341091
7.2683903e-12
-0.00048571608
-0.00033509512
7.7769728e-12
-0.00045209009
-0.00038006783
8.0725787e-12
-0.00041123739
-0.00041581812
8.1276424e-12
-0.00036397676
-0.00043983859
8.1145395e-12
-0.00031167852
-0.0004498552
7.7650129e-12
-0.00025628089
-0.00044411475
7.2117802e-12
-0.00020022891
-0.00042169857
6.6422846e-12
-0.00014632218
-0.00038280715
5.1376585e-12
-9.7478327e-05
-0.00032894417
5.6441453e-12
-5.6447635e-05
-0.00026293097
1.5798795e-11
-2.5538437e-05
-0.00018870318
7.6053778e-12
-6.4171829e-06
-0.00011092
-4.9191591e-11
-3.4666618e-05
5.5301829e-11
-4.6226686e-06
4.8467175e-05
-3.2214848e-11
-1.6707086e-05
0.0001301332
4.4987535e-11
-3.4702584e-05
0.0001974321
2.777818e-12
-5.7274593e-05
0.00025160393