/*--------------------------------*- C++ -*----------------------------------*\
  =========                 |
  \\      /  F ield         | OpenFOAM: The Open Source CFD Toolbox
   \\    /   O peration     | Website:  https://openfoam.org
    \\  /    A nd           | Version:  7
     \\/     M anipulation  |
\*---------------------------------------------------------------------------*/
FoamFile
{
    version     2.0;
    format      ascii;
    class       volVectorField;
    location    "11";
    object      U;
}
// * * * * * * * * * * * * * * * * * * * * * * * * * * * * * * * * * * * * * //

dimensions      [0 1 -1 0 0 0 0];

internalField   nonuniform List<vector> 
16000
(
(6.5450339e-05 -6.7049601e-05 -9.2796348e-07)
(0.00016107026 -5.5688191e-05 4.9846102e-06)
(0.00013976428 7.8696962e-07 1.8342218e-05)
(-5.2388958e-05 6.1842465e-05 3.5606025e-05)
(-0.00041032195 0.00011525551 5.3547311e-05)
(-0.00090714856 0.00015710783 7.0204711e-05)
(-0.0015129643 0.00018767564 8.4247544e-05)
(-0.0021987742 0.00020864522 9.4864666e-05)
(-0.002938774 0.00022182376 0.00010160139)
(-0.0037107093 0.00022870421 0.0001042134)
(-0.0044952707 0.00023034362 0.00010257394)
(-0.0052752117 0.00022736726 9.6621026e-05)
(-0.0060344638 0.00022003178 8.6331035e-05)
(-0.006757393 0.0002083158 7.1715819e-05)
(-0.0074282894 0.00019202583 5.2836413e-05)
(-0.0080311292 0.00017090606 2.9824746e-05)
(-0.0085496255 0.00014474614 2.9116284e-06)
(-0.0089675641 0.00011348139 -2.7545867e-05)
(-0.0092693888 7.7278405e-05 -6.1040469e-05)
(-0.0094410047 3.6609129e-05 -9.6897748e-05)
(-0.009470731 -7.7008321e-06 -0.00013427391)
(-0.0093503226 -5.4466165e-05 -0.00017216365)
(-0.0090760016 -0.00010211746 -0.00020942768)
(-0.0086493894 -0.00014877384 -0.00024483548)
(-0.0080782207 -0.00019232056 -0.00027712412)
(-0.007376765 -0.00023052606 -0.0003050705)
(-0.0065658586 -0.00026119162 -0.00032757352)
(-0.0056724879 -0.00028231828 -0.00034373665)
(-0.0047288974 -0.00029227509 -0.00035294684)
(-0.0037712399 -0.00028994987 -0.00035494125)
(-0.0028378337 -0.000274866 -0.00034985599)
(-0.0019671367 -0.0002472493 -0.00033825153)
(-0.0011955487 -0.00020804522 -0.000321115)
(-0.00055508496 -0.00015892419 -0.00029984131)
(-7.0971933e-05 -0.00010238983 -0.00027618901)
(0.00024032959 -4.2046255e-05 -0.00025220168)
(0.00037503387 1.7311365e-05 -0.00023025375)
(0.00034717169 6.6415126e-05 -0.00021276914)
(0.00020504232 8.9285567e-05 -0.00020241241)
(5.7247047e-05 5.7191714e-05 -0.00018772254)
(5.7584645e-05 -0.0001660317 -7.2965005e-06)
(3.9779172e-05 -3.8585569e-05 -1.1632129e-06)
(-0.00029552539 0.00024851205 1.0353683e-05)
(-0.0010088749 0.00056029709 2.4583581e-05)
(-0.0020921885 0.00084396548 3.9419093e-05)
(-0.0035002283 0.0010781407 5.32695e-05)
(-0.0051724051 0.001258196 6.5011933e-05)
(-0.0070446856 0.0013871508 7.3900737e-05)
(-0.0090556736 0.0014705047 7.9458703e-05)
(-0.011148781 0.0015137657 8.138821e-05)
(-0.013272268 0.0015213494 7.9506858e-05)
(-0.015378265 0.0014962056 7.3705824e-05)
(-0.017421465 0.0014398704 6.392825e-05)
(-0.019357908 0.0013527718 5.0165219e-05)
(-0.021144154 0.0012346818 3.2465683e-05)
(-0.022736995 0.0010852349 1.0952893e-05)
(-0.024093759 0.00090445602 -1.4153219e-05)
(-0.025173232 0.00069325762 -4.2512971e-05)
(-0.025937099 0.00045386689 -7.3648166e-05)
(-0.026351838 0.00019015984 -0.00010692707)
(-0.026390916 -9.2133727e-05 -0.00014156436)
(-0.026037044 -0.00038535243 -0.00017663388)
(-0.025284414 -0.00068003658 -0.00021108583)
(-0.024140682 -0.00096521367 -0.00024379385)
(-0.022628353 -0.0012288759 -0.00027360832)
(-0.02078552 -0.0014586296 -0.00029942285)
(-0.018665702 -0.0016424803 -0.00032025029)
(-0.016336684 -0.0017696981 -0.00033529829)
(-0.013878298 -0.0018316906 -0.00034404098)
(-0.011379181 -0.0018228005 -0.00034627826)
(-0.0089326227 -0.0017409556 -0.0003421775)
(-0.0066316932 -0.0015881168 -0.00033229167)
(-0.0045638735 -0.0013705246 -0.00031755315)
(-0.0028053486 -0.001098857 -0.00029924435)
(-0.0014150314 -0.00078859255 -0.00027894634)
(-0.00042834801 -0.00046092308 -0.00025846319)
(0.00014930501 -0.00014422389 -0.0002397039)
(0.00035200221 0.00011988744 -0.0002246745)
(0.00027291188 0.0002687992 -0.00021546819)
(8.9553596e-05 0.00020395934 -0.00019900047)
(1.6669117e-06 -0.00014739762 -2.105931e-05)
(-0.00025569823 0.00029758972 -1.2557521e-05)
(-0.001046896 0.0010206433 -7.5682222e-07)
(-0.0023780542 0.0017902194 1.2103794e-05)
(-0.004220456 0.0024983548 2.5005672e-05)
(-0.0065146634 0.0030948542 3.6812444e-05)
(-0.0091800762 0.0035628344 4.670326e-05)
(-0.012129097 0.0039032355 5.4122621e-05)
(-0.015275067 0.0041246052 5.8691613e-05)
(-0.018535469 0.0042372811 6.0154869e-05)
(-0.021832672 0.0042503741 5.834067e-05)
(-0.025093331 0.0041704734 5.3132301e-05)
(-0.028247225 0.0040014688 4.4455314e-05)
(-0.031226101 0.0037450887 3.2277284e-05)
(-0.033962952 0.0034018691 1.6617385e-05)
(-0.036391932 0.0029723368 -2.4374435e-06)
(-0.03844903 0.002458242 -2.4712175e-05)
(-0.040073507 0.0018637246 -4.9921978e-05)
(-0.041209991 0.0011963128 -7.7655127e-05)
(-0.041811122 0.00046766789 -0.00010735878)
(-0.041840495 -0.00030597807 -0.00013833962)
(-0.041275733 -0.0011037261 -0.00016976712)
(-0.040111414 -0.0019004368 -0.00020069943)
(-0.03836153 -0.0026674763 -0.00023011874)
(-0.036061257 -0.003373948 -0.0002569823)
(-0.033267758 -0.0039883134 -0.00028028441)
(-0.030059801 -0.0044803189 -0.00029912706)
(-0.026536041 -0.0048231052 -0.00031279049)
(-0.022811884 -0.004995341 -0.00032080002)
(-0.019014953 -0.0049832027 -0.00032298073)
(-0.015279289 -0.0047820335 -0.00031949427)
(-0.011738501 -0.0043975737 -0.00031085146)
(-0.0085181403 -0.0038467454 -0.00029789923)
(-0.0057275873 -0.0031581521 -0.00028178374)
(-0.0034516561 -0.0023726954 -0.00026389096)
(-0.0017420791 -0.0015449909 -0.00024576796)
(-0.00060912661 -0.00074643836 -0.00022901801)
(-1.2605109e-05 -7.0778623e-05 -0.00021522596)
(0.00015288479 0.00035569279 -0.00020607231)
(7.2867128e-05 0.00035176546 -0.00018887793)
(-6.4543855e-05 5.1525006e-05 -3.9226847e-05)
(-0.00060585149 0.0010432201 -2.6817836e-05)
(-0.0019214687 0.0023723311 -1.29378e-05)
(-0.0039268837 0.0037393154 2.3847365e-07)
(-0.0065553024 0.0049906634 1.2697173e-05)
(-0.0097280956 0.006049007 2.3683923e-05)
(-0.013346009 0.0068843932 3.2666504e-05)
(-0.017302454 0.0074942997 3.931144e-05)
(-0.021491439 0.007889224 4.3384308e-05)
(-0.025810567 0.0080837418 4.471409e-05)
(-0.030161903 0.0080914968 4.3170905e-05)
(-0.034451644 0.007922861 3.8649905e-05)
(-0.038589192 0.0075844457 3.1066381e-05)
(-0.04248625 0.0070798622 2.0361524e-05)
(-0.046056358 0.006411251 6.5151511e-06)
(-0.049215142 0.0055812148 -1.0435343e-05)
(-0.051881369 0.0045948572 -3.037298e-05)
(-0.053978825 0.0034617082 -5.3077785e-05)
(-0.055438899 0.0021973605 -7.8207616e-05)
(-0.056203724 0.00082466502 -0.00010528297)
(-0.056229622 -0.00062561483 -0.00013368336)
(-0.055490656 -0.0021148094 -0.00016264766)
(-0.05398195 -0.0035970385 -0.00019129825)
(-0.051722463 -0.0050206419 -0.00021867321)
(-0.048756971 -0.0063303323 -0.00024377515)
(-0.045156947 -0.0074699974 -0.00026563168)
(-0.041020078 -0.0083860173 -0.00028336538)
(-0.036468251 -0.0090308972 -0.00029626485)
(-0.03164388 -0.0093669634 -0.00030385203)
(-0.026704559 -0.0093698393 -0.00030593695)
(-0.021816172 -0.0090314244 -0.0003026533)
(-0.017144658 -0.0083621755 -0.00029446886)
(-0.012846764 -0.0073926207 -0.00028216749)
(-0.0090602009 -0.0061742495 -0.0002668055)
(-0.0058936179 -0.0047802152 -0.00024964397)
(-0.0034168485 -0.0033066645 -0.00023206519)
(-0.0016516021 -0.0018757097 -0.00021548968)
(-0.00056268962 -0.00064017674 -0.00020130257)
(-5.2102238e-05 0.00020820043 -0.00019072494)
(3.744252e-05 0.00040985536 -0.00017165389)
(-0.00013028167 0.00044499812 -5.8619565e-05)
(-0.00096596297 0.0022341214 -4.1712747e-05)
(-0.002830936 0.0043392627 -2.4947317e-05)
(-0.0055343349 0.0064252581 -1.0636371e-05)
(-0.008959504 0.0083103403 2.1529903e-06)
(-0.013002461 0.0098988206 1.2999446e-05)
(-0.017543393 0.011151665 2.1642047e-05)
(-0.0224579 0.012064167 2.7975114e-05)
(-0.027623749 0.012648825 3.1921828e-05)
(-0.032922686 0.012924099 3.340981e-05)
(-0.038240816 0.012907801 3.2362112e-05)
(-0.043468197 0.01261389 2.869242e-05)
(-0.048498018 0.012051757 2.2307082e-05)
(-0.053225903 0.011227249 1.3116665e-05)
(-0.057549716 0.010144795 1.0535822e-06)
(-0.061370115 0.0088101142 -1.390411e-05)
(-0.064591939 0.0072330869 -3.1707088e-05)
(-0.067126418 0.0054304508 -5.2208848e-05)
(-0.068894102 0.0034280727 -7.5141926e-05)
(-0.069828318 0.0012625796 -0.00010009888)
(-0.069878948 -0.0010178068 -0.00012652381)
(-0.069016265 -0.0033533761 -0.0001537117)
(-0.067234532 -0.0056739889 -0.00018082583)
(-0.064555073 -0.0079012204 -0.00020692979)
(-0.061028497 -0.0099515081 -0.00023103468)
(-0.056735793 -0.011740229 -0.00025215981)
(-0.05178799 -0.013186531 -0.00026940435)
(-0.046324162 -0.014218656 -0.00028202205)
(-0.040507587 -0.014779412 -0.00028949217)
(-0.034520003 -0.014831394 -0.00029157791)
(-0.028554021 -0.014361554 -0.00028836389)
(-0.022803902 -0.013384779 -0.00028026661)
(-0.01745507 -0.011946301 -0.00026801397)
(-0.012672876 -0.010122984 -0.0002525962)
(-0.0085913024 -0.0080238761 -0.00023518993)
(-0.0053023228 -0.0057908246 -0.00021706886)
(-0.0028457738 -0.0036001581 -0.00019954147)
(-0.00120048 -0.0016652379 -0.00018386928)
(-0.00028977785 -0.00024141478 -0.0001707749)
(-2.8114782e-06 0.00034561149 -0.00014926063)
(-0.00019182097 0.0010276468 -7.6966226e-05)
(-0.0013164534 0.003874723 -5.5252671e-05)
(-0.003730146 0.0069331893 -3.5186854e-05)
(-0.0071315249 0.0098590121 -1.9223128e-05)
(-0.011348201 0.012460241 -5.5585402e-06)
(-0.016246185 0.014634537 5.6709734e-06)
(-0.021682731 0.016340641 1.4452011e-05)
(-0.027515458 0.017575243 2.0896911e-05)
(-0.033607409 0.018354442 2.5082636e-05)
(-0.039827118 0.018701116 2.7035854e-05)
(-0.046048014 0.018637294 2.673467e-05)
(-0.052147578 0.018180438 2.4110832e-05)
(-0.058006406 0.017342708 1.9058395e-05)
(-0.063507559 0.016132368 1.1451905e-05)
(-0.068536528 0.014556574 1.1693206e-06)
(-0.072981988 0.012624873 -1.1879317e-05)
(-0.076737401 0.010352916 -2.7720974e-05)
(-0.079703433 0.0077659102 -4.6289619e-05)
(-0.081791074 0.0049015163 -6.73966e-05)
(-0.082925292 0.0018118949 -9.0706504e-05)
(-0.083049008 -0.0014352741 -0.00011572309)
(-0.082127153 -0.0047569693 -0.00014178531)
(-0.080150553 -0.008056265 -0.00016807968)
(-0.077139347 -0.011225144 -0.00019367054)
(-0.073145636 -0.014148625 -0.00021754614)
(-0.068255023 -0.016710131 -0.00023868098)
(-0.062586749 -0.018797894 -0.00025611082)
(-0.05629207 -0.020312103 -0.00026901341)
(-0.049550645 -0.021172346 -0.00027678582)
(-0.042564756 -0.021324856 -0.00027911002)
(-0.035551348 -0.020748976 -0.00027599582)
(-0.028732059 -0.019462339 -0.00026779457)
(-0.022321654 -0.017524396 -0.00025517925)
(-0.016515465 -0.015038155 -0.00023909237)
(-0.011476818 -0.012150405 -0.00022066223)
(-0.0073254009 -0.0090511245 -0.00020110785)
(-0.0041260166 -0.0059730033 -0.00018169771)
(-0.001878924 -0.0031907231 -0.00016366249)
(-0.00053594732 -0.0010212603 -0.00014732505)
(-4.1356179e-05 0.00015353414 -0.00012295518)
(-0.00024862495 0.0017904314 -9.2329183e-05)
(-0.0016497402 0.0059538812 -6.5663514e-05)
(-0.0045964242 0.010144547 -4.2137358e-05)
(-0.0086793346 0.01403029 -2.4221238e-05)
(-0.013668748 0.017425719 -9.3185706e-06)
(-0.019398162 0.020234246 2.6842568e-06)
(-0.025700283 0.022420759 1.199602e-05)
(-0.032414416 0.02398851 1.8928845e-05)
(-0.039389773 0.024960108 2.3702634e-05)
(-0.046483546 0.025364295 2.6435187e-05)
(-0.053559024 0.02522791 2.7153422e-05)
(-0.060484049 0.024572089 2.5801452e-05)
(-0.067129708 0.023411788 2.2254873e-05)
(-0.073369542 0.021757735 1.6344904e-05)
(-0.079079498 0.019619956 7.8872073e-06)
(-0.084138727 0.017012119 -3.2847818e-06)
(-0.088431248 0.01395607 -1.728305e-05)
(-0.091848427 0.010486049 -3.4129518e-05)
(-0.094292145 0.0066521939 -5.3719696e-05)
(-0.095678536 0.002523026 -7.5792635e-05)
(-0.09594208 -0.0018133042 -9.991048e-05)
(-0.095039871 -0.0062492015 -0.00012544967)
(-0.092955839 -0.010659331 -0.00015160759)
(-0.089704675 -0.014903998 -0.00017743046)
(-0.08533511 -0.018834154 -0.00020185797)
(-0.079932239 -0.022297994 -0.00022378755)
(-0.073618487 -0.025148957 -0.00024215393)
(-0.066552795 -0.027254793 -0.00025601773)
(-0.058927646 -0.02850721 -0.00026465191)
(-0.05096362 -0.028831454 -0.00026761763)
(-0.042901354 -0.028195078 -0.00026481727)
(-0.034990992 -0.026615137 -0.00025651557)
(-0.027479542 -0.024163166 -0.00024332397)
(-0.020596856 -0.020967578 -0.00022614877)
(-0.014541465 -0.017213488 -0.00020610096)
(-0.0094675099 -0.013140567 -0.00018439582)
(-0.0054717088 -0.0090397722 -0.00016233156)
(-0.0025819939 -0.0052484803 -0.00014119296)
(-0.00078327129 -0.0021452439 -0.00012098411)
(-7.7005094e-05 -0.00016570266 -9.3541736e-05)
(-0.00030104755 0.0027226146 -0.00010305248)
(-0.0019631271 0.0084523539 -7.1338345e-05)
(-0.0054181976 0.013951083 -4.4370783e-05)
(-0.010154824 0.018914927 -2.4374346e-05)
(-0.015887228 0.023179914 -8.0214591e-06)
(-0.022415884 0.026667266 5.0252583e-06)
(-0.029548502 0.029356925 1.5175431e-05)
(-0.037106179 0.031264772 2.2921134e-05)
(-0.044925128 0.032423736 2.8609567e-05)
(-0.052852729 0.032870618 3.2437492e-05)
(-0.060744236 0.032638185 3.4469657e-05)
(-0.068460324 0.031751709 3.4652663e-05)
(-0.075865227 0.030229043 3.2834918e-05)
(-0.0828256 0.0280833 2.8795486e-05)
(-0.089210274 0.025327231 2.2278537e-05)
(-0.094890918 0.02197844 1.3031307e-05)
(-0.099743592 0.018064768 8.4706016e-07)
(-0.10365112 0.013629265 -1.4393363e-05)
(-0.10650619 0.0087343279 -3.2678166e-05)
(-0.10821502 0.003464677 -5.3827792e-05)
(-0.10870158 -0.0020710754 -7.7467001e-05)
(-0.10791201 -0.0077404789 -0.00010301022)
(-0.10581929 -0.013389024 -0.00012966066)
(-0.10242785 -0.018843902 -0.00015643464)
(-0.097777715 -0.023919701 -0.00018220378)
(-0.091947974 -0.028426104 -0.00020576092)
(-0.085058994 -0.032177433 -0.00022590421)
(-0.077272876 -0.035003738 -0.00024153472)
(-0.068791594 -0.036762884 -0.00025175511)
(-0.059852315 -0.037352871 -0.00025595928)
(-0.050719597 -0.036723425 -0.00025390021)
(-0.041674418 -0.034885784 -0.00024572412)
(-0.0330004 -0.031919674 -0.00023196415)
(-0.024968032 -0.027976728 -0.00021349301)
(-0.017818397 -0.023280055 -0.00019142855)
(-0.011747936 -0.01812036 -0.00016702792)
(-0.006892732 -0.012849423 -0.00014168492)
(-0.0033143688 -0.0078704713 -0.00011681956)
(-0.0010343432 -0.0036268132 -9.2202606e-05)
(-0.00011082902 -0.0006110536 -6.1524565e-05)
(-0.00034941234 0.0038129547 -0.00010768501)
(-0.0022552315 0.011346348 -7.0814725e-05)
(-0.0061882851 0.01832259 -4.053546e-05)
(-0.011542466 0.024479402 -1.8443287e-05)
(-0.017979044 0.029687225 -5.2960034e-07)
(-0.025266541 0.033896305 1.3748752e-05)
(-0.033188339 0.037110454 2.4984598e-05)
(-0.041548061 0.039364592 3.383205e-05)
(-0.050169963 0.040706317 4.0748803e-05)
(-0.05889308 0.04118321 4.5995744e-05)
(-0.067566507 0.040835505 4.9662557e-05)
(-0.076045945 0.039693332 5.1686823e-05)
(-0.084191115 0.037777617 5.1879327e-05)
(-0.091864123 0.03510368 4.9956821e-05)
(-0.098928825 0.031686549 4.5581478e-05)
(-0.10525118 0.027547112 3.8403437e-05)
(-0.1107005 0.022718352 2.8109453e-05)
(-0.11515157 0.017251108 1.4470834e-05)
(-0.11848753 0.011218893 -2.6060698e-06)
(-0.12060337 0.00472146 -2.3035698e-05)
(-0.12141017 -0.0021131562 -4.6516623e-05)
(-0.1208397 -0.0091283616 -7.2509787e-05)
(-0.11884965 -0.016140559 -0.00010022717)
(-0.11542896 -0.022943033 -0.00012865155)
(-0.11060321 -0.029312052 -0.00015657374)
(-0.10443947 -0.035015437 -0.00018265875)
(-0.097050283 -0.039823554 -0.00020553405)
(-0.088595864 -0.043522463 -0.00022389648)
(-0.079283912 -0.045928715 -0.00023662587)
(-0.069366224 -0.046904882 -0.00024289253)
(-0.059131553 -0.046374639 -0.00024224568)
(-0.048894448 -0.044335931 -0.00023466774)
(-0.038980307 -0.040870744 -0.00022058387)
(-0.029707495 -0.036150202 -0.00020082452)
(-0.021368285 -0.030434249 -0.00017652994)
(-0.014210525 -0.024066071 -0.00014903902)
(-0.0084180882 -0.017462003 -0.00011990343)
(-0.0040927032 -0.011096596 -9.0757366e-05)
(-0.0012962264 -0.0054846325 -6.120736e-05)
(-0.0001443251 -0.0011842503 -2.70242e-05)
(-0.0003937978 0.0050498331 -0.00010491955)
(-0.00252461 0.014608813 -6.2752951e-05)
(-0.0069006496 0.023222802 -2.9360935e-05)
(-0.012829391 0.030682457 -5.227154e-06)
(-0.019923388 0.036903997 1.4293393e-05)
(-0.027921403 0.041876886 2.993874e-05)
(-0.036584068 0.045637167 4.2470772e-05)
(-0.045698852 0.048245196 5.2689205e-05)
(-0.055079381 0.049767809 6.1146369e-05)
(-0.064557877 0.050266405 6.8152421e-05)
(-0.07397907 0.049790525 7.3808953e-05)
(-0.083195699 0.04837608 7.803267e-05)
(-0.092065127 0.046047319 8.0585735e-05)
(-0.10044706 0.04282149 8.1111847e-05)
(-0.10820235 0.038715188 7.9179593e-05)
(-0.11519291 0.033751472 7.4329614e-05)
(-0.12128246 0.027967004 6.6128168e-05)
(-0.12633825 0.021418612 5.4221034e-05)
(-0.13023349 0.01418888 3.8390993e-05)
(-0.13285069 0.0063904235 1.8610374e-05)
(-0.13408576 -0.0018313839 -4.9121181e-06)
(-0.13385274 -0.010297528 -3.1703438e-05)
(-0.13208956 -0.018796356 -6.0995295e-05)
(-0.12876436 -0.027087209 -9.174296e-05)
(-0.12388213 -0.034906539 -0.00012265203)
(-0.11749141 -0.041977031 -0.00015224201)
(-0.10969033 -0.048019831 -0.00017893752)
(-0.10063122 -0.052769743 -0.00020118391)
(-0.090522682 -0.055992953 -0.00021757773)
(-0.079628189 -0.057506304 -0.00022699737)
(-0.068260183 -0.057196685 -0.0002287183)
(-0.056769142 -0.055038615 -0.0002224962)
(-0.045527548 -0.051107932 -0.00020860118)
(-0.03490958 -0.045589588 -0.00018779772)
(-0.025268525 -0.038778166 -0.00016125285)
(-0.016914235 -0.031070863 -0.00013041955)
(-0.010088353 -0.022953631 -9.7066813e-05)
(-0.0049406551 -0.014980358 -6.3121183e-05)
(-0.0015787594 -0.0077476128 -2.8077909e-05)
(-0.00017946984 -0.0018923227 1.0008645e-05)
(-0.00043403643 0.0064209215 -9.3564887e-05)
(-0.0027693314 0.018209644 -4.5924894e-05)
(-0.0075490293 0.028610096 -9.6667725e-06)
(-0.014003085 0.037475846 1.6410918e-05)
(-0.021700317 0.044778848 3.7546004e-05)
(-0.030352662 0.050556905 5.4663955e-05)
(-0.039700219 0.054886023 6.8684381e-05)
(-0.04951608 0.057858123 8.0537668e-05)
(-0.059604823 0.059563852 9.0856598e-05)
(-0.069793472 0.060081621 9.9987381e-05)
(-0.07992415 0.059472298 0.00010803175)
(-0.089848567 0.057778663 0.00011487471)
(-0.099423766 0.055028595 0.00012021915)
(-0.1085091 0.051240922 0.00012362495)
(-0.1169644 0.046432867 0.00012455527)
(-0.12464919 0.040628177 0.00012242763)
(-0.13142289 0.033865163 0.00011667132)
(-0.13714587 0.026204148 0.00010678654)
(-0.14168144 0.017733881 9.240872e-05)
(-0.14489872 0.0085766954 7.337017e-05)
(-0.14667655 -0.0011078396 4.9759164e-05)
(-0.14690826 -0.01112097 2.1950302e-05)
(-0.14550791 -0.021225223 -9.3278286e-06)
(-0.14241759 -0.031146883 -4.3021425e-05)
(-0.13761541 -0.040581807 -7.7757344e-05)
(-0.13112427 -0.049204645 -0.00011190004)
(-0.12302044 -0.056681937 -0.00014364283)
(-0.11344101 -0.062689212 -0.00017113092)
(-0.10258908 -0.066931772 -0.00019260966)
(-0.090735072 -0.069168237 -0.00020658297)
(-0.078213001 -0.06923516 -0.0002119634)
(-0.065410401 -0.06707034 -0.00020819413)
(-0.052751572 -0.062731944 -0.00019532011)
(-0.040674671 -0.056410497 -0.00017399551)
(-0.029604872 -0.048431418 -0.00014540257)
(-0.019926362 -0.039247166 -0.00011113063)
(-0.011950674 -0.029419547 -7.3222644e-05)
(-0.0058857813 -0.019592275 -3.3976891e-05)
(-0.0018931505 -0.010457447 7.1845821e-06)
(-0.0002183835 -0.0027479529 4.9736199e-05)
(-0.00046976511 0.0079128021 -7.2540017e-05)
(-0.0029869352 0.022115462 -1.9217912e-05)
(-0.0081265173 0.034437632 1.962468e-05)
(-0.015050519 0.04480462 4.7522145e-05)
(-0.023289517 0.05325278 7.0259157e-05)
(-0.032532 0.059876294 8.8942042e-05)
(-0.042500158 0.06479811 0.00010463832)
(-0.052954763 0.068147431 0.00011839603)
(-0.063693087 0.070043148 0.00013091642)
(-0.074538624 0.0705839 0.00014257112)
(-0.085332626 0.069844032 0.00015345216)
(-0.095927632 0.067874399 0.00016340386)
(-0.10618235 0.064706891 0.00017206059)
(-0.11595784 0.060361547 0.00017888882)
(-0.12511488 0.054855138 0.00018323505)
(-0.13351249 0.048210311 0.0001843793)
(-0.14100733 0.040464578 0.00018159506)
(-0.14745406 0.031678654 0.00017421301)
(-0.15270662 0.021943824 0.00016169181)
(-0.15662052 0.01138812 0.00014368749)
(-0.15905628 0.00018114438 0.00012012283)
(-0.15988445 -0.011462666 9.1261372e-05)
(-0.15899186 -0.023283227 5.7726543e-05)
(-0.15628962 -0.034975898 2.0555357e-05)
(-0.15172282 -0.046196281 -1.8818928e-05)
(-0.14528128 -0.05656893 -5.8608092e-05)
(-0.13701097 -0.065700773 -9.6753436e-05)
(-0.12702492 -0.073199741 -0.00013105302)
(-0.11551215 -0.078698589 -0.00015932702)
(-0.10274295 -0.081883106 -0.00017960781)
(-0.089068231 -0.08252294 -0.00019033347)
(-0.074911552 -0.080502167 -0.00019052077)
(-0.060752302 -0.075845825 -0.00017988874)
(-0.047100378 -0.068738195 -0.00015890808)
(-0.034464498 -0.059529184 -0.00012874201)
(-0.023317407 -0.048726748 -9.1124262e-05)
(-0.014055323 -0.036975488 -4.8424079e-05)
(-0.0069576147 -0.025021698 -3.394817e-06)
(-0.0022512675 -0.013670017 4.4587853e-05)
(-0.00026322335 -0.0037699805 9.2351155e-05)
(-0.00050048868 0.0095106586 -4.0882172e-05)
(-0.0031745749 0.026289323 1.8353562e-05)
(-0.0086256754 0.040653257 5.9471685e-05)
(-0.015958147 0.052607148 8.9049482e-05)
(-0.024670182 0.062259113 0.00011336685)
(-0.034430435 0.069766617 0.00013370396)
(-0.044945986 0.075305707 0.00015126713)
(-0.055967468 0.079048081 0.00016721107)
(-0.067286634 0.081145067 0.00018229605)
(-0.07872509 0.081718717 0.0001969112)
(-0.090124896 0.080859082 0.00021113168)
(-0.10134122 0.078626419 0.00022475476)
(-0.11223638 0.075057122 0.00023733999)
(-0.12267519 0.070172114 0.00024825281)
(-0.13252154 0.063986587 0.00025671305)
(-0.14163603 0.056520158 0.00026184886)
(-0.14987456 0.047806794 0.00026275787)
(-0.15708778 0.037904084 0.00025857438)
(-0.1631216 0.026901619 0.00024854588)
(-0.16781868 0.014928349 0.00023211165)
(-0.17102131 0.0021587851 0.00020898576)
(-0.17257608 -0.011182239 0.00017924522)
(-0.1723402 -0.02481654 0.00014337632)
(-0.17019002 -0.038412199 0.00010234467)
(-0.16603194 -0.051586468 5.7604036e-05)
(-0.15981527 -0.063913162 1.1075749e-05)
(-0.15154652 -0.074935645 -3.4922228e-05)
(-0.1413042 -0.084186341 -7.7800879e-05)
(-0.1292524 -0.091213225 -0.00011487953)
(-0.115651 -0.09561288 -0.00014360909)
(-0.10085985 -0.097068406 -0.00016181745)
(-0.085334168 -0.095388946 -0.00016794746)
(-0.069609175 -0.090546047 -0.00016125227)
(-0.054272961 -0.082701105 -0.00014190694)
(-0.039929716 -0.072218259 -0.00011098862)
(-0.027156835 -0.059658994 -7.0362239e-05)
(-0.016453149 -0.045757564 -2.2768091e-05)
(-0.0081864275 -0.03137747 2.8496252e-05)
(-0.0026652854 -0.017456056 8.4081328e-05)
(-0.0003161726 -0.0049836089 0.00013799991)
(-0.0005256493 0.011198093 2.2353073e-06)
(-0.0033292623 0.030690543 6.7631087e-05)
(-0.0090389673 0.047199466 0.00011069345)
(-0.01671248 0.060815157 0.00014180274)
(-0.025821711 0.071723423 0.00016767508)
(-0.036019133 0.080150721 0.00018975657)
(-0.046999526 0.086331466 0.00020938384)
(-0.058505528 0.090484502 0.00022780889)
(-0.070325085 0.092797506 0.00024584383)
(-0.082279463 0.093419068 0.0002638904)
(-0.094213099 0.092457236 0.00028200328)
(-0.10598549 0.089983148 0.00029992999)
(-0.11746447 0.086038348 0.00031715241)
(-0.12852071 0.080644462 0.00033293045)
(-0.13902348 0.07381406 0.00034634926)
(-0.14883738 0.065561801 0.00035637216)
(-0.15782001 0.055915277 0.00036190099)
(-0.1658205 0.044925206 0.00036184544)
(-0.17267899 0.032674871 0.00035520399)
(-0.17822725 0.019288749 0.00034115165)
(-0.18229073 0.0049402777 0.00031913669)
(-0.18469254 -0.01014147 0.00028898107)
(-0.18525944 -0.025666466 0.00025096552)
(-0.18383061 -0.041280912 0.00020591396)
(-0.18026924 -0.056567609 0.00015523972)
(-0.17447716 -0.071051095 0.00010095464)
(-0.16641198 -0.084209136 4.5621972e-05)
(-0.15610595 -0.095492086 -7.7575732e-06)
(-0.14368489 -0.10435126 -5.5932332e-05)
(-0.12938461 -0.11027658 -9.565412e-05)
(-0.11356154 -0.11284214 -0.00012398169)
(-0.096693863 -0.11175636 -0.00013859891)
(-0.079369427 -0.10691106 -0.00013810504)
(-0.062258403 -0.09842172 -0.00012221598)
(-0.046071768 -0.086650725 -9.1809109e-05)
(-0.031509211 -0.072207225 -4.8834969e-05)
(-0.019193511 -0.05592064 3.5635331e-06)
(-0.0096023758 -0.038787563 6.1450309e-05)
(-0.0031475031 -0.02190128 0.00012548421)
(-0.00037945282 -0.0064204903 0.00018670816)
(-0.0005446996 0.012957103 5.7479904e-05)
(-0.0034481766 0.035274796 0.00012929041)
(-0.0093594053 0.054013643 0.00017394756)
(-0.017301069 0.069353999 0.00020643263)
(-0.026724985 0.081563701 0.00023383149)
(-0.037270986 0.090942613 0.00025774666)
(-0.048624206 0.09778785 0.00027963694)
(-0.060521269 0.10236947 0.00030084374)
(-0.072747848 0.10491511 0.00032222652)
(-0.085126247 0.10560296 0.0003441982)
(-0.097504688 0.10456144 0.00036679361)
(-0.10974859 0.10187423 0.00038971197)
(-0.1217331 0.097588896 0.00041235881)
(-0.13333688 0.091727835 0.00043388777)
(-0.14443699 0.08430018 0.00045324472)
(-0.15490475 0.0753139 0.00046921785)
(-0.16460248 0.064787503 0.00048049541)
(-0.17338096 0.052761128 0.00048573513)
(-0.1810779 0.039307019 0.00048364756)
(-0.18751749 0.024539463 0.00047309162)
(-0.19251131 0.00862423 0.00045318403)
(-0.19586131 -0.0082126099 0.00042341745)
(-0.19736506 -0.025676828 0.00038377727)
(-0.19682405 -0.043400135 0.00033485517)
(-0.19405552 -0.060937239 0.00027793727)
(-0.18890811 -0.077767677 0.00021505383)
(-0.18128151 -0.093304475 0.00014896938)
(-0.17114926 -0.1069119 8.3094791e-05)
(-0.1585834 -0.11793435 2.130596e-05)
(-0.14377836 -0.12573766 -3.2334342e-05)
(-0.12707002 -0.12976235 -7.3939284e-05)
(-0.10894508 -0.12958582 -0.00010021052)
(-0.09003533 -0.12498711 -0.00010884932)
(-0.071092664 -0.1160046 -9.8883728e-05)
(-0.052944144 -0.10297496 -7.0813969e-05)
(-0.036430192 -0.086542852 -2.6580826e-05)
(-0.022322282 -0.067635194 3.0262038e-05)
(-0.011234783 -0.047397814 9.5043402e-05)
(-0.0037102545 -0.027106108 0.00016841117)
(-0.00045536209 -0.0081187577 0.00023830343)
(-0.00055717719 0.014768254 0.00012533595)
(-0.0035290203 0.039994582 0.00020382022)
(-0.009581354 0.061028695 0.00024970887)
(-0.01771378 0.078143324 0.00028340717)
(-0.027364109 0.091690894 0.00031229699)
(-0.038162792 0.10204771 0.00033812619)
(-0.049787685 0.10957697 0.00036246779)
(-0.061971101 0.1146034 0.00038674655)
(-0.07449773 0.11739799 0.00041186802)
(-0.08719206 0.11817147 0.00043825884)
(-0.09990732 0.11707515 0.00046593919)
(-0.11251626 0.11420713 0.00049456627)
(-0.12490308 0.10962221 0.00052347496)
(-0.13695651 0.10334394 0.00055171639)
(-0.14856391 0.095377586 0.00057809724)
(-0.15960633 0.085723082 0.00060122473)
(-0.16995421 0.074387507 0.00061955975)
(-0.17946396 0.061397014 0.00063148391)
(-0.18797522 0.046808273 0.0006353827)
(-0.19530919 0.030719656 0.00062974676)
(-0.20126829 0.013282351 0.00061329225)
(-0.20563772 -0.0052886199 0.00058509804)
(-0.20818941 -0.02470376 0.00054475298)
(-0.2086892 -0.044589687 0.00049250526)
(-0.20690802 -0.064482144 0.00042939891)
(-0.20263783 -0.083823371 0.00035737596)
(-0.19571275 -0.10196641 0.0002793193)
(-0.18603537 -0.11818933 0.0001990095)
(-0.17360718 -0.13172261 0.00012096778)
(-0.15856061 -0.14179226 5.0169362e-05)
(-0.14118858 -0.14767989 -8.3718326e-06)
(-0.12196521 -0.14879756 -5.0119531e-05)
(-0.10155035 -0.14477126 -7.1573041e-05)
(-0.080770834 -0.13552122 -7.0764408e-05)
(-0.060575066 -0.12132358 -4.755555e-05)
(-0.041962032 -0.10283704 -3.7102647e-06)
(-0.025879647 -0.081082457 5.6841205e-05)
(-0.013111375 -0.057369706 0.00012860208)
(-0.0043658125 -0.033185032 0.0002121869)
(-0.00054631175 -0.010123048 0.0002923286)
(-0.00056278332 0.016611042 0.00020608109)
(-0.0035704144 0.044800105 0.00029150321)
(-0.0097014556 0.068174211 0.0003382527)
(-0.017944313 0.087098283 0.00037299316)
(-0.027728506 0.10200995 0.00040332253)
(-0.03867791 0.11336359 0.00043112188)
(-0.05046506 0.12159092 0.00045807139)
(-0.062819311 0.12707427 0.00048567565)
(-0.075525364 0.13013102 0.00051488904)
(-0.088410798 0.13100748 0.00054615907)
(-0.10133486 0.12988049 0.00057950113)
(-0.11417887 0.12686471 0.00061454143)
(-0.12683769 0.12202373 0.00065055501)
(-0.13921214 0.11538312 0.00068649942)
(-0.15120245 0.10694435 0.00072104768)
(-0.16270249 0.096698516 0.00075262615)
(-0.1735947 0.08463952 0.00077946041)
(-0.18374558 0.07077671 0.00079963747)
(-0.19300194 0.055147159 0.00081118567)
(-0.20118787 0.037827963 0.00081217894)
(-0.20810299 0.018948882 0.0008008655)
(-0.21352219 -0.0012945343 0.00077582248)
(-0.21719784 -0.022627474 0.00073613294)
(-0.21886507 -0.044682701 0.0006815736)
(-0.21825134 -0.06698894 0.0006128053)
(-0.21509143 -0.088962709 0.00053153849)
(-0.20914891 -0.10990659 0.00044064546)
(-0.20024479 -0.12901769 0.00034418419)
(-0.18829308 -0.14541064 0.00024729213)
(-0.17334137 -0.15815984 0.000155916)
(-0.15561232 -0.16636394 7.6362494e-05)
(-0.13553902 -0.1692329 1.4679469e-05)
(-0.11378456 -0.1661922 -2.4070445e-05)
(-0.091235083 -0.15699159 -3.6525972e-05)
(-0.06895881 -0.14179808 -2.1542294e-05)
(-0.048128282 -0.12124951 1.9560678e-05)
(-0.029897497 -0.096447538 8.2578432e-05)
(-0.015257366 -0.068877018 0.00016112059)
(-0.005126265 -0.040265551 0.00025574641)
(-0.00065486206 -0.012484496 0.00034794041)
(-0.00056146511 0.018464494 0.00029976982)
(-0.0035723261 0.049640643 0.00039240498)
(-0.0097196522 0.07537822 0.00043964522)
(-0.017991891 0.096131357 0.00047524465)
(-0.027815279 0.11242152 0.0005069333)
(-0.038809274 0.1247814 0.00053671241)
(-0.050642522 0.13371277 0.00056636467)
(-0.063042373 0.13965806 0.00059747482)
(-0.075794241 0.14298396 0.00063105365)
(-0.088729483 0.14397534 0.00066758178)
(-0.10171419 0.14283741 0.00070708457)
(-0.11463938 0.13970392 0.00074917337)
(-0.12741202 0.13464915 0.00079307935)
(-0.13994697 0.12770208 0.00083768104)
(-0.15215984 0.11886107 0.00088152935)
(-0.16396053 0.10810825 0.00092287629)