/*--------------------------------*- C++ -*----------------------------------*\
  =========                 |
  \\      /  F ield         | OpenFOAM: The Open Source CFD Toolbox
   \\    /   O peration     | Website:  https://openfoam.org
    \\  /    A nd           | Version:  7
     \\/     M anipulation  |
\*---------------------------------------------------------------------------*/
FoamFile
{
    version     2.0;
    format      ascii;
    class       volVectorField;
    location    "11";
    object      U_0;
}
// * * * * * * * * * * * * * * * * * * * * * * * * * * * * * * * * * * * * * //

dimensions      [0 1 -1 0 0 0 0];

internalField   nonuniform List<vector> 
16000
(
(6.653279e-05 -6.5961696e-05 -4.6134424e-07)
(0.00016274188 -5.5204749e-05 5.3988302e-06)
(0.00014076964 1.009036e-06 1.863414e-05)
(-5.1722142e-05 6.1952814e-05 3.5802527e-05)
(-0.00040984878 0.00011531626 5.3674427e-05)
(-0.00090678378 0.00015714022 7.0283921e-05)
(-0.0015126553 0.00018769937 8.4292834e-05)
(-0.0021984976 0.00020866117 9.4887602e-05)
(-0.0029385282 0.0002218309 0.00010160747)
(-0.0037104843 0.00022870588 0.00010420616)
(-0.0044950519 0.00023034241 0.00010255696)
(-0.0052749898 0.0002273646 9.6595965e-05)
(-0.0060342321 0.00022002894 8.6299312e-05)
(-0.0067571492 0.00020831391 7.1679928e-05)
(-0.0074280355 0.00019202453 5.2798277e-05)
(-0.0080308692 0.00017090428 2.9785554e-05)
(-0.0085493635 0.00014474417 2.8712018e-06)
(-0.0089673002 0.00011347936 -2.7588116e-05)
(-0.0092691247 7.7277375e-05 -6.1084588e-05)
(-0.0094407421 3.6609281e-05 -9.694453e-05)
(-0.0094704717 -7.699847e-06 -0.00013432214)
(-0.009350071 -5.4463913e-05 -0.00017221207)
(-0.0090757612 -0.00010211334 -0.00020947448)
(-0.0086491632 -0.00014876822 -0.00024487874)
(-0.0080780142 -0.0001923138 -0.00027716287)
(-0.0073765831 -0.00023051835 -0.00030510532)
(-0.0065657036 -0.00026118335 -0.00032760479)
(-0.0056723608 -0.00028230993 -0.00034376445)
(-0.0047287987 -0.00029226676 -0.00035297106)
(-0.0037711687 -0.00028994196 -0.00035496193)
(-0.0028377878 -0.00027485915 -0.00034987303)
(-0.0019671133 -0.00024724376 -0.00033826497)
(-0.0011955433 -0.00020804144 -0.00032112474)
(-0.00055509252 -0.00015892211 -0.00029984715)
(-7.0987172e-05 -0.00010238926 -0.00027619118)
(0.0002403123 -4.2047557e-05 -0.00025220032)
(0.00037501808 1.7308797e-05 -0.00023024924)
(0.00034716093 6.6411827e-05 -0.00021276265)
(0.00020503822 8.9282597e-05 -0.00020240437)
(5.7246333e-05 5.7190677e-05 -0.00018771429)
(5.8062183e-05 -0.00016434581 -6.8809722e-06)
(4.071001e-05 -3.7641063e-05 -8.0002962e-07)
(-0.00029469365 0.00024898996 1.0623815e-05)
(-0.0010082265 0.00056054508 2.4768455e-05)
(-0.0020916772 0.00084409506 3.954123e-05)
(-0.0034997853 0.0010782121 5.3346837e-05)
(-0.0051719828 0.0012582382 6.5058503e-05)
(-0.0070442733 0.0013871655 7.3923871e-05)
(-0.0090552603 0.0014704969 7.94634e-05)
(-0.011148349 0.0015137453 8.1378989e-05)
(-0.013271802 0.0015213216 7.9487208e-05)
(-0.015377757 0.0014961748 7.3677668e-05)
(-0.017420908 0.0014398406 6.3893588e-05)
(-0.019357303 0.0013527447 5.0126956e-05)
(-0.021143512 0.0012346573 3.2425512e-05)
(-0.022736322 0.0010852124 1.0911484e-05)
(-0.024093064 0.0009044372 -1.4196106e-05)
(-0.02517252 0.00069324404 -4.2558356e-05)
(-0.025936378 0.00045386023 -7.3695986e-05)
(-0.026351118 0.00019016128 -0.00010697837)
(-0.026390206 -9.2124004e-05 -0.00014161768)
(-0.026036355 -0.00038533382 -0.00017668708)
(-0.025283758 -0.00068000839 -0.00021113667)
(-0.024140069 -0.00096517677 -0.00024384081)
(-0.022627795 -0.0012288323 -0.00027365066)
(-0.020785026 -0.001458581 -0.00029946118)
(-0.018665277 -0.0016424284 -0.00032028493)
(-0.01633633 -0.0017696451 -0.00033532925)
(-0.013878017 -0.0018316384 -0.00034406802)
(-0.011378971 -0.0018227515 -0.00034630137)
(-0.0089324779 -0.0017409127 -0.00034219661)
(-0.0066316063 -0.0015880813 -0.00033230679)
(-0.0045638339 -0.001370498 -0.00031756424)
(-0.002805344 -0.0010988399 -0.00029925082)
(-0.0014150501 -0.00078858462 -0.00027894832)
(-0.00042837758 -0.00046092436 -0.00025846126)
(0.00014927476 -0.00014423247 -0.00023969843)
(0.00035197929 0.00011987455 -0.0002246669)
(0.00027290075 0.00026878656 -0.00021545911)
(8.9550865e-05 0.00020395346 -0.00019899133)
(1.8865674e-06 -0.0001463737 -2.0765372e-05)
(-0.00025521743 0.00029842635 -1.2285963e-05)
(-0.0010463638 0.0010211391 -5.502656e-07)
(-0.0023775477 0.0017904899 1.2250579e-05)
(-0.0042199748 0.002498493 2.510425e-05)
(-0.0065141754 0.0030949188 3.6876307e-05)
(-0.0091795688 0.0035628406 4.6741434e-05)
(-0.01212856 0.0039031957 5.414035e-05)
(-0.015274483 0.0041245347 5.8693246e-05)
(-0.018534824 0.0042371927 6.0143826e-05)
(-0.021831953 0.0042502764 5.8319105e-05)
(-0.02509253 0.0041703744 5.3102479e-05)
(-0.02824634 0.0040013742 4.4419964e-05)
(-0.031225141 0.0037450001 3.2238977e-05)
(-0.033961929 0.0034017883 1.6577499e-05)
(-0.036390857 0.0029722664 -2.4785864e-06)
(-0.038447915 0.0024581863 -2.4754901e-05)
(-0.040072363 0.001863688 -4.996767e-05)
(-0.041208833 0.0011962968 -7.7703998e-05)
(-0.041809966 0.00046767471 -0.00010741128)
(-0.041839357 -0.00030594672 -0.00013839386)
(-0.04127463 -0.0011036696 -0.00016982072)
(-0.040110362 -0.0019003563 -0.00020075021)
(-0.038360547 -0.0026673743 -0.00023016556)
(-0.036060359 -0.0033738284 -0.00025702491)
(-0.033266956 -0.0039881804 -0.00028032342)
(-0.030059103 -0.0044801771 -0.00029916245)
(-0.026535453 -0.0048229602 -0.00031282204)
(-0.022811406 -0.0049951989 -0.00032082758)
(-0.019014582 -0.0049830691 -0.00032300451)
(-0.015279018 -0.0047819144 -0.0003195142)
(-0.011738318 -0.0043974737 -0.00031086719)
(-0.0085180325 -0.0038466673 -0.00029791065)
(-0.0057275374 -0.0031580983 -0.0002817904)
(-0.0034516475 -0.0023726659 -0.0002638928)
(-0.0017420949 -0.0015449843 -0.00024576578)
(-0.00060915173 -0.00074645084 -0.00022901241)
(-1.2627469e-05 -7.0802713e-05 -0.00021521826)
(0.0001528727 0.00035566687 -0.00020606317)
(7.2863883e-05 0.00035175138 -0.00018886871)
(-6.4432515e-05 5.2207192e-05 -3.9026517e-05)
(-0.00060557995 0.0010438429 -2.6630139e-05)
(-0.0019211086 0.0023727336 -1.2789618e-05)
(-0.0039264607 0.0037395386 3.4846786e-07)
(-0.0065548198 0.0049907626 1.2774042e-05)
(-0.0097275557 0.006049009 2.3734182e-05)
(-0.013345406 0.0068843162 3.269464e-05)
(-0.017301774 0.0074941665 3.9322552e-05)
(-0.021490669 0.0078890531 4.3381936e-05)
(-0.025809693 0.0080835475 4.4700179e-05)
(-0.030160917 0.0080912942 4.3147215e-05)
(-0.034450541 0.0079226611 3.861886e-05)
(-0.038587978 0.007584255 3.1030896e-05)
(-0.042484937 0.0070796842 2.0323717e-05)
(-0.046054961 0.0064110913 6.4759361e-06)
(-0.049213675 0.0055810801 -1.0476086e-05)
(-0.051879848 0.0045947534 -3.0415865e-05)
(-0.053977267 0.0034616413 -5.3124102e-05)
(-0.055437324 0.0021973344 -7.8257741e-05)
(-0.056202154 0.00082468283 -0.00010533679)
(-0.056228076 -0.00062555097 -0.0001337382)
(-0.055489157 -0.0021146991 -0.00016270099)
(-0.053980521 -0.0035968848 -0.00019134859)
(-0.051721125 -0.0050204498 -0.00021871993)
(-0.048755743 -0.0063301079 -0.00024381803)
(-0.045155842 -0.007469748 -0.00026567106)
(-0.041019108 -0.0083857518 -0.00028340118)
(-0.036467422 -0.0090306255 -0.00029629687)
(-0.031643192 -0.0093666967 -0.00030388014)
(-0.02670401 -0.0093695875 -0.00030596124)
(-0.021815755 -0.0090311972 -0.00030267378)
(-0.017144358 -0.0083619813 -0.00029448505)
(-0.012846565 -0.0073924654 -0.00028217906)
(-0.0090600832 -0.006174137 -0.00026681213)
(-0.0058935619 -0.0047801466 -0.00024964574)
(-0.0034168337 -0.0033066369 -0.00023206303)
(-0.0016516091 -0.0018757166 -0.00021548431)
(-0.00056270295 -0.00064020668 -0.00020129498)
(-5.2111601e-05 0.00020816308 -0.00019071591)
(3.7439517e-05 0.00040983357 -0.00017164485)
(-0.00013021523 0.00044546852 -5.8486158e-05)
(-0.00096578677 0.0022345466 -4.1585019e-05)
(-0.0028306527 0.0043395329 -2.4844634e-05)
(-0.0055339376 0.0064253847 -1.0557476e-05)
(-0.008959004 0.0083103356 2.2098287e-06)
(-0.013001861 0.0098987035 1.303605e-05)
(-0.017542684 0.011151461 2.1660725e-05)
(-0.022457069 0.0120639 2.7979972e-05)
(-0.027622787 0.012648516 3.1915069e-05)
(-0.032921581 0.012923767 3.3392225e-05)
(-0.038239562 0.012907464 3.2336018e-05)
(-0.043466797 0.012613561 2.8660512e-05)
(-0.048496484 0.012051444 2.2271758e-05)
(-0.053224249 0.011226959 1.3079346e-05)
(-0.057547959 0.010144538 1.0149802e-06)
(-0.061368272 0.0088099019 -1.3944354e-05)
(-0.064590031 0.0072329266 -3.1750406e-05)
(-0.067124468 0.0054303499 -5.2256431e-05)
(-0.068892134 0.0034280372 -7.5193562e-05)
(-0.069826356 0.0012626145 -0.00010015365)
(-0.069877018 -0.0010176998 -0.00012657878)
(-0.069014393 -0.0033531981 -0.00015376457)
(-0.067232746 -0.0056737445 -0.00018087573)
(-0.064553396 -0.0079009168 -0.00020697645)
(-0.06102695 -0.0099511547 -0.00023107782)
(-0.056734393 -0.011739837 -0.00025219942)
(-0.05178675 -0.013186114 -0.00026944036)
(-0.046323089 -0.014218229 -0.00028205435)
(-0.040506684 -0.014778992 -0.00028952074)
(-0.034519267 -0.014830995 -0.00029160274)
(-0.028553443 -0.014361191 -0.00028838482)
(-0.022803469 -0.013384464 -0.00028028304)
(-0.017454764 -0.011946044 -0.00026802556)
(-0.012672676 -0.010122791 -0.0002526028)
(-0.0085911856 -0.0080237487 -0.00023519188)
(-0.005302266 -0.0057907592 -0.00021706698)
(-0.0028457548 -0.0036001463 -0.00019953648)
(-0.0012004801 -0.0016652641 -0.00018386208)
(-0.00028978196 -0.00024145702 -0.00017076633)
(-2.8130159e-06 0.00034558466 -0.00014925205)
(-0.00019177953 0.0010279809 -7.687947e-05)
(-0.0013163135 0.0038749925 -5.516928e-05)
(-0.0037298806 0.0069333201 -3.5117831e-05)
(-0.0071311295 0.0098589946 -1.9169573e-05)
(-0.011347672 0.012460082 -5.5209272e-06)
(-0.016245514 0.014634258 5.6941797e-06)
(-0.021681909 0.016340269 1.4461928e-05)
(-0.027514473 0.017574803 2.0895023e-05)
(-0.033606253 0.01835396 2.5070513e-05)
(-0.039825784 0.018700617 2.7014749e-05)
(-0.046046501 0.018636796 2.6706811e-05)
(-0.052145895 0.018179953 2.407842e-05)
(-0.058004568 0.017342248 1.9023462e-05)
(-0.063505583 0.016131948 1.1415383e-05)
(-0.068534432 0.014556207 1.1312784e-06)
(-0.072979795 0.012624572 -1.1919579e-05)
(-0.076735135 0.010352691 -2.7765302e-05)
(-0.079701119 0.0077657725 -4.6338738e-05)
(-0.08178874 0.0049014732 -6.7449479e-05)
(-0.082922967 0.001811952 -9.0761513e-05)
(-0.08304672 -0.0014351155 -0.00011577754)
(-0.082124933 -0.0047567118 -0.00014183745)
(-0.08014843 -0.0080559151 -0.00016812906)
(-0.077137348 -0.011224711 -0.00019371695)
(-0.073143783 -0.014148123 -0.00021758926)
(-0.068253337 -0.016709574 -0.00023872062)
(-0.062585244 -0.018797302 -0.00025614695)
(-0.056290754 -0.020311495 -0.00026904595)
(-0.049549523 -0.021171745 -0.00027681483)
(-0.042563827 -0.021324283 -0.00027913534)
(-0.035550602 -0.020748449 -0.00027601706)
(-0.028731484 -0.019461877 -0.00026781116)
(-0.022321231 -0.017524012 -0.000255191)
(-0.016515172 -0.015037857 -0.00023909913)
(-0.011476631 -0.012150198 -0.00022066449)
(-0.0073252952 -0.009051003 -0.00020110629)
(-0.0041259668 -0.0059729575 -0.00018169321)
(-0.0018789075 -0.0031907333 -0.00016365594)
(-0.00053594484 -0.0010212988 -0.00014731711)
(-4.1356418e-05 0.00015350483 -0.00012294724)
(-0.00024858926 0.0017906704 -9.2272741e-05)
(-0.0016496114 0.0059540187 -6.5607886e-05)
(-0.0045961677 0.010144517 -4.2091834e-05)
(-0.0086789299 0.014030092 -2.4187466e-05)
(-0.013668179 0.017425371 -9.2961126e-06)
(-0.019397415 0.020233772 2.696287e-06)
(-0.025699347 0.022420186 1.1997685e-05)
(-0.03241328 0.023987869 1.8920629e-05)
(-0.03938843 0.024959429 2.3685635e-05)
(-0.046481994 0.025363602 2.6411103e-05)
(-0.053557271 0.025227223 2.712441e-05)
(-0.060482107 0.024571424 2.5769103e-05)
(-0.067127592 0.023411163 2.2220592e-05)
(-0.073367271 0.021757169 1.6309182e-05)
(-0.079077095 0.019619465 7.8492416e-06)
(-0.084136216 0.017011719 -3.3260967e-06)
(-0.088428658 0.013955776 -1.7329398e-05)
(-0.091845783 0.010485872 -3.4180678e-05)
(-0.09428948 0.0066521442 -5.3773892e-05)
(-0.09567588 0.0025231091 -7.5847948e-05)
(-0.095939466 -0.0018130879 -9.9964698e-05)
(-0.095037331 -0.0062488561 -0.00012550151)
(-0.092953406 -0.010658865 -0.0001516569)
(-0.089702376 -0.014903423 -0.000177477)
(-0.08533297 -0.018833487 -0.00020190131)
(-0.079930279 -0.022297255 -0.00022382737)
(-0.073616724 -0.02514817 -0.00024219039)
(-0.066551241 -0.027253984 -0.00025605069)
(-0.058926306 -0.028506406 -0.00026468125)
(-0.050962495 -0.028830682 -0.00026764318)
(-0.042900436 -0.028194364 -0.00026483859)
(-0.034990269 -0.026614502 -0.00025653207)
(-0.027478996 -0.02416263 -0.00024333569)
(-0.020596465 -0.020967152 -0.00022615554)
(-0.014541204 -0.017213178 -0.00020610358)
(-0.0094673516 -0.01314037 -0.00018439478)
(-0.0054716252 -0.0090396754 -0.00016232775)
(-0.0025819592 -0.0052484611 -0.00014118716)
(-0.00078326271 -0.0021452704 -0.00012097702)
(-7.7004763e-05 -0.00016573056 -9.3534917e-05)
(-0.00030101616 0.0027227701 -0.00010301676)
(-0.001963008 0.0084523438 -7.1304123e-05)
(-0.0054179443 0.013950871 -4.4343798e-05)
(-0.0101544 0.018914526 -2.4356285e-05)
(-0.015886611 0.023179348 -8.0113115e-06)
(-0.022415059 0.026666566 5.0275807e-06)
(-0.029547455 0.029356124 1.5169016e-05)
(-0.037104899 0.031263904 2.2906801e-05)
(-0.044923613 0.032422834 2.8588717e-05)
(-0.052850983 0.032869705 3.2411419e-05)
(-0.060742269 0.032637286 3.4440005e-05)
(-0.068458151 0.031750846 3.4620686e-05)
(-0.075862865 0.030228238 3.2801256e-05)
(-0.08282307 0.028082575 2.8759982e-05)
(-0.089207601 0.025326607 2.223965e-05)
(-0.09488813 0.021977935 1.2987986e-05)
(-0.099740717 0.0180644 7.9827889e-07)
(-0.10364819 0.013629048 -1.4446435e-05)
(-0.10650323 0.0087342723 -3.2733346e-05)
(-0.10821207 0.0034647884 -5.388318e-05)
(-0.10869868 -0.0020707973 -7.7521009e-05)
(-0.10790918 -0.0077400396 -0.000103062)
(-0.10581658 -0.013388434 -0.00012971008)
(-0.10242528 -0.018843175 -0.00015648137)
(-0.097775308 -0.023918858 -0.00018224746)
(-0.091945757 -0.028425169 -0.00020580109)
(-0.085056987 -0.032176436 -0.00022594105)
(-0.077271092 -0.03500271 -0.00024156819)
(-0.068790042 -0.036761857 -0.00025178487)
(-0.059850996 -0.037351879 -0.00025598506)
(-0.050718506 -0.0367225 -0.00025392154)
(-0.041673546 -0.034884953 -0.00024574046)
(-0.032999729 -0.031918961 -0.00023197584)
(-0.02496754 -0.02797615 -0.0002134999)
(-0.017818059 -0.02327962 -0.00019143168)
(-0.011747723 -0.018120066 -0.00016702756)
(-0.0068926128 -0.012849257 -0.00014168178)
(-0.0033143151 -0.0078704088 -0.00011681444)
(-0.0010343276 -0.003626818 -9.2196334e-05)
(-0.00011082737 -0.00061107565 -6.1518812e-05)
(-0.00034938785 0.003813023 -0.00010766431)
(-0.002255121 0.011346184 -7.0797625e-05)
(-0.0061880257 0.018322186 -4.0522919e-05)
(-0.011542019 0.024478783 -1.8436983e-05)
(-0.01797838 0.029686422 -5.2983739e-07)
(-0.02526564 0.033895359 1.3742151e-05)
(-0.033187189 0.037109405 2.4971128e-05)
(-0.041546653 0.039363476 3.381269e-05)
(-0.050168299 0.040705168 4.0725054e-05)
(-0.058891168 0.041182056 4.5968473e-05)
(-0.06756436 0.040834375 4.9632769e-05)
(-0.076043577 0.039692254 5.1655305e-05)
(-0.084188547 0.037776618 5.1845781e-05)
(-0.091861377 0.035102786 4.9920438e-05)
(-0.098925927 0.031685784 4.5540461e-05)
(-0.10524816 0.027546496 3.8357214e-05)
(-0.11069738 0.022717906 2.8057969e-05)
(-0.1151484 0.017250848 1.4416104e-05)
(-0.11848433 0.01121883 -2.6619228e-06)
(-0.12060018 0.0047215994 -2.3091208e-05)
(-0.12140702 -0.0021128157 -4.657073e-05)
(-0.12083663 -0.0091278262 -7.2561828e-05)
(-0.11884669 -0.016139841 -0.00010027697)
(-0.11542614 -0.022942149 -0.00012869864)
(-0.11060056 -0.029311026 -0.00015661789)
(-0.10443702 -0.035014298 -0.00018269949)
(-0.097048049 -0.039822335 -0.00020557148)
(-0.088593864 -0.043521202 -0.00022393062)
(-0.079282156 -0.045927449 -0.00023665608)
(-0.069364717 -0.046903651 -0.00024291834)
(-0.059130293 -0.046373481 -0.00024226689)
(-0.048893428 -0.04433488 -0.00023468393)
(-0.038979511 -0.040869831 -0.0002205956)
(-0.029706902 -0.036149447 -0.00020083161)
(-0.021367869 -0.030433665 -0.00017653372)
(-0.014210256 -0.024065659 -0.00014903948)
(-0.008417933 -0.017461749 -0.00011990113)
(-0.00409263 -0.011096476 -9.0753144e-05)
(-0.0012962034 -0.0054846066 -6.1201776e-05)
(-0.00014432218 -0.0011842646 -2.701938e-05)
(-0.00039377661 0.0050498158 -0.00010490986)
(-0.0025245016 0.014608497 -6.2747594e-05)
(-0.0069003814 0.023222199 -2.9359286e-05)
(-0.012828919 0.030681607 -5.2304816e-06)
(-0.019922679 0.036902946 1.4284416e-05)
(-0.027920435 0.04187568 2.9924745e-05)
(-0.03658283 0.045635853 4.2452015e-05)
(-0.045697341 0.048243813 5.266651e-05)
(-0.0550776 0.049766394 6.1120824e-05)
(-0.064555836 0.050264994 6.8124576e-05)
(-0.073976781 0.049789152 7.3779068e-05)
(-0.083193179 0.048374778 7.8000963e-05)
(-0.092062398 0.046046118 8.0551066e-05)
(-0.10044414 0.042820419 8.1072917e-05)
(-0.10819928 0.038714274 7.9135037e-05)
(-0.11518971 0.033750742 7.4279792e-05)
(-0.12127917 0.027966478 6.6073901e-05)
(-0.12633489 0.021418308 5.4164653e-05)
(-0.1302301 0.014188808 3.8334235e-05)
(-0.13284731 0.0063905885 1.8554257e-05)
(-0.13408241 -0.0018309829 -4.9669707e-06)
(-0.13384947 -0.010296898 -3.1756334e-05)
(-0.1320864 -0.018795511 -6.1045921e-05)
(-0.12876134 -0.027086168 -9.1790807e-05)
(-0.12387928 -0.034905328 -0.00012269701)
(-0.11748875 -0.041975684 -0.00015228383)
(-0.10968789 -0.048018385 -0.00017897596)
(-0.10062902 -0.052768239 -0.00020121884)
(-0.090520737 -0.055991435 -0.00021760848)
(-0.079626505 -0.057504819 -0.00022702332)
(-0.068258761 -0.057195276 -0.0002287395)
(-0.056767976 -0.055037324 -0.00022251235)
(-0.045526628 -0.051106796 -0.00020861296)
(-0.034908886 -0.045588633 -0.00018780499)
(-0.02526803 -0.03877741 -0.00016125708)
(-0.016913909 -0.03107031 -0.00013042064)
(-0.010088162 -0.022953271 -9.7065297e-05)
(-0.0049405627 -0.014980166 -6.3117951e-05)
(-0.0015787296 -0.0077475478 -2.8073212e-05)
(-0.00017946598 -0.0018923256 1.0012618e-05)
(-0.00043401606 0.0064208282 -9.3563757e-05)
(-0.0027692219 0.018209177 -4.5928428e-05)
(-0.0075487519 0.028609291 -9.6740962e-06)
(-0.014002591 0.03747476 1.6399299e-05)
(-0.021699571 0.044777538 3.7530122e-05)
(-0.030351643 0.050555427 5.4644714e-05)
(-0.039698919 0.054884427 6.8662141e-05)
(-0.049514497 0.057856456 8.0512983e-05)
(-0.059602961 0.059562158 9.083004e-05)
(-0.069791341 0.060079942 9.9959295e-05)
(-0.079921765 0.059470673 0.00010800153)
(-0.089845945 0.057777129 0.00011484177)
(-0.099420931 0.055027186 0.00012018183)
(-0.10850608 0.05123967 0.00012358208)
(-0.11696122 0.046431804 0.0001245065)
(-0.12464588 0.040627329 0.00012237427)
(-0.13141947 0.033864555 0.00011661462)
(-0.13714238 0.026203795 0.00010672859)
(-0.14167792 0.017733795 9.235063e-05)
(-0.14489521 0.0085768821 7.331278e-05)
(-0.14667307 -0.0011073824 4.9702975e-05)
(-0.14690485 -0.011120249 2.189604e-05)
(-0.1455046 -0.021224255 -9.3798132e-06)
(-0.14241441 -0.031145689 -4.307074e-05)
(-0.13761239 -0.040580415 -7.7803857e-05)
(-0.13112145 -0.049203091 -0.0001119435)
(-0.12301783 -0.056680263 -0.00014368274)
(-0.11343864 -0.062687462 -0.00017116688)
(-0.10258697 -0.066929996 -0.00019264106)
(-0.090733226 -0.069166486 -0.00020660915)
(-0.078211428 -0.069233485 -0.00021198461)
(-0.065409099 -0.067068791 -0.00020821038)
(-0.052750532 -0.062730564 -0.00019533217)
(-0.040673877 -0.05640932 -0.00017400318)
(-0.0296043 -0.048430466 -0.00014540712)
(-0.019925981 -0.039246451 -0.00011113234)
(-0.011950447 -0.029419061 -7.3221797e-05)
(-0.005885671 -0.019591992 -3.3974644e-05)
(-0.001893114 -0.010457329 7.1878741e-06)
(-0.00021837776 -0.0027479386 4.9738914e-05)
(-0.00046974564 0.0079126404 -7.254597e-05)
(-0.0029868247 0.022114849 -1.9229074e-05)
(-0.0081262318 0.034436627 1.9610073e-05)
(-0.015050008 0.044803294 4.7504366e-05)
(-0.023288748 0.053251204 7.0238679e-05)
(-0.032530953 0.059874531 8.8919644e-05)
(-0.042498825 0.06479622 0.00010461405)
(-0.052953142 0.068145471 0.00011837018)
(-0.063691183 0.070041168 0.00013088912)
(-0.074536448 0.070581947 0.00014254227)
(-0.085330193 0.069842151 0.00015342026)
(-0.095924962 0.067872629 0.00016336772)
(-0.10617947 0.064705272 0.00017201885)
(-0.11595476 0.060360114 0.00017884107)
(-0.12511164 0.054853925 0.00018318196)
(-0.13350912 0.048209346 0.00018432263)
(-0.14100386 0.040463886 0.00018153595)
(-0.14745052 0.031678251 0.00017415313)
(-0.15270305 0.021943722 0.00016163182)
(-0.15661694 0.011388323 0.00014362818)
(-0.15905273 0.0001816515 0.0001200647)
(-0.15988096 -0.011461863 9.1205142e-05)
(-0.15898847 -0.023282144 5.7672604e-05)
(-0.15628635 -0.034974559 2.050393e-05)
(-0.15171969 -0.046194717 -1.8867634e-05)
(-0.14527834 -0.056567177 -5.8653758e-05)
(-0.13700824 -0.065698875 -9.6795255e-05)
(-0.12702241 -0.073197747 -0.00013109025)
(-0.1155099 -0.078696552 -0.00015935916)
(-0.10274096 -0.081881084 -0.00017963439)
(-0.089066525 -0.082520989 -0.00019035479)
(-0.074910127 -0.080500346 -0.00019053717)
(-0.060751152 -0.075844183 -0.00017990101)
(-0.047099491 -0.068736777 -0.00015891619)
(-0.034463852 -0.059528019 -0.00012874672)
(-0.02331697 -0.048725851 -9.1126461e-05)
(-0.014055057 -0.036974858 -4.8423712e-05)
(-0.0069574834 -0.025021314 -3.3932762e-06)
(-0.0022512262 -0.013669836 4.4590084e-05)
(-0.00026321785 -0.003769945 9.2352435e-05)
(-0.00050046914 0.0095104328 -4.089395e-05)
(-0.0031744632 0.026288568 1.8336768e-05)
(-0.0086253868 0.040652051 5.9452315e-05)
(-0.015957632 0.052605579 8.9028083e-05)
(-0.02466941 0.062257264 0.00011334378)
(-0.034429386 0.069764563 0.00013367971)
(-0.04494465 0.07530352 0.00015124167)
(-0.055965845 0.079045825 0.0001671844)
(-0.067284729 0.081142799 0.00018226763)
(-0.078722916 0.081716491 0.00019688022)
(-0.090122468 0.080856946 0.00021109622)
(-0.10133856 0.078624417 0.00022471373)
(-0.11223351 0.075055296 0.00023729285)
(-0.12267213 0.070170505 0.00024820009)
(-0.13251832 0.063985228 0.00025665594)
(-0.14163268 0.056519078 0.00026178905)
(-0.14987111 0.047806017 0.0002626962)
(-0.15708426 0.037903628 0.00025851206)
(-0.16311805 0.026901495 0.00024848337)
(-0.16781512 0.014928563 0.00023204986)
(-0.17101777 0.0021593344 0.00020892518)
(-0.17257259 -0.011181364 0.00017918644)
(-0.17233679 -0.024815355 0.00014331975)
(-0.17018672 -0.03841073 0.00010229044)
(-0.16602878 -0.051584744 5.7552532e-05)
(-0.15981227 -0.063911222 1.1027539e-05)
(-0.15154371 -0.074933535 -3.4966162e-05)
(-0.14130161 -0.084184111 -7.7839643e-05)
(-0.12925005 -0.091210932 -0.00011491273)
(-0.11564891 -0.095610586 -0.00014363656)
(-0.10085803 -0.097066176 -0.00016183935)
(-0.085332638 -0.095386843 -0.00016796434)
(-0.069607929 -0.09054413 -0.00016126481)
(-0.054271989 -0.082699427 -0.00014191569)
(-0.039929001 -0.072216858 -0.00011099377)
(-0.027156347 -0.059657896 -7.0365033e-05)
(-0.01645285 -0.045756771 -2.2768637e-05)
(-0.0081862754 -0.03137697 2.8496458e-05)
(-0.0026652342 -0.017455805 8.4081994e-05)
(-0.0003161663 -0.00498355 0.00013799963)
(-0.00052562932 0.011197806 2.2194214e-06)
(-0.0033291514 0.030689647 6.7610902e-05)
(-0.0090386844 0.047198058 0.00011067154)
(-0.016711977 0.060813342 0.00014177947)
(-0.025820956 0.071721299 0.0001676507)
(-0.036018107 0.080148378 0.00018973129)
(-0.046998219 0.086328985 0.00020935743)
(-0.058503941 0.090481954 0.00022778079)
(-0.070323223 0.092794957 0.00024581285)
(-0.08227734 0.093416575 0.00026385536)
(-0.094210731 0.092454852 0.00028196256)
(-0.1059829 0.089980922 0.00029988323)
(-0.11746167 0.086036325 0.00031709993)
(-0.12851773 0.080642683 0.0003328733)
(-0.13902035 0.07381256 0.00034628871)
(-0.14883413 0.06556061 0.00035630937)
(-0.15781667 0.055914418 0.00036183653)
(-0.16581709 0.044924697 0.00036178029)
(-0.17267554 0.032674724 0.00035513861)
(-0.17822378 0.019288968 0.000341087)
(-0.18228728 0.0049408603 0.00031907324)
(-0.18468913 -0.010140534 0.00028891913)
(-0.18525611 -0.025665193 0.00025090558)
(-0.18382736 -0.041279328 0.00020585633)
(-0.18026611 -0.056565744 0.00015518501)
(-0.17447418 -0.071048987 0.00010090365)
(-0.16640917 -0.084206831 4.5575778e-05)
(-0.15610334 -0.095489636 -7.7980955e-06)
(-0.1436825 -0.10434873 -5.5966875e-05)
(-0.12938246 -0.11027403 -9.5682849e-05)
(-0.11355965 -0.11283963 -0.00012400468)
(-0.096692254 -0.11175397 -0.00013861682)
(-0.079368102 -0.10690887 -0.00013811819)
(-0.062257358 -0.098419771 -0.00012222555)
(-0.046070989 -0.086649077 -9.1815272e-05)
(-0.031508674 -0.072205909 -4.8838589e-05)
(-0.01919318 -0.05591967 3.5620586e-06)
(-0.0096022064 -0.03878693 6.1449263e-05)
(-0.0031474455 -0.02190095 0.00012548322)
(-0.00037944543 -0.0064204049 0.00018670612)
(-0.00054468027 0.012956758 5.7461929e-05)
(-0.0034480714 0.03527376 0.00012926874)
(-0.009359138 0.054012036 0.00017392441)
(-0.017300591 0.069351943 0.0002064083)
(-0.026724267 0.08156131 0.00023380614)
(-0.037270008 0.090939989 0.00025772021)
(-0.048622961 0.097785084 0.0002796088)
(-0.060519756 0.10236664 0.0003008127)
(-0.072746075 0.10491229 0.0003221912)
(-0.085124226 0.10560021 0.00034415767)
(-0.097502436 0.10455882 0.00036674697)
(-0.10974612 0.10187179 0.00038965977)
(-0.12173044 0.097586688 0.00041230187)
(-0.13333406 0.091725897 0.00043382695)
(-0.14443403 0.084298548 0.00045318104)
(-0.15490168 0.075312604 0.00046915203)
(-0.16459932 0.064786567 0.00048042796)
(-0.17337774 0.052760569 0.00048566694)
(-0.18107465 0.039306848 0.00048357915)
(-0.18751422 0.024539683 0.00047302379)
(-0.19250805 0.0086248373 0.00045311723)
(-0.19585808 -0.0082116255 0.00042335184)
(-0.19736189 -0.025675484 0.00038371337)
(-0.19682095 -0.043398456 0.00033479362)
(-0.19405251 -0.060935254 0.00027787898)
(-0.18890523 -0.077765424 0.00021499971)
(-0.18127877 -0.093301999 0.00014892058)
(-0.17114668 -0.10690925 8.3052051e-05)
(-0.15858102 -0.11793159 2.1269561e-05)
(-0.14377621 -0.12573486 -3.2364693e-05)
(-0.12706811 -0.12975959 -7.3963651e-05)
(-0.10894342 -0.12958316 -0.00010022962)
(-0.090033951 -0.12498463 -0.00010886322)
(-0.071091565 -0.11600238 -9.889383e-05)
(-0.052943315 -0.10297305 -7.0820915e-05)
(-0.036429612 -0.086541307 -2.6585588e-05)
(-0.022321919 -0.067634034 3.0259071e-05)
(-0.011234596 -0.047397039 9.5040736e-05)
(-0.0037101903 -0.02710569 0.00016840832)
(-0.00045535371 -0.0081186424 0.0002382995)
(-0.00055715983 0.01476785 0.00012531642)
(-0.003528925 0.039993411 0.00020379741)
(-0.0095811098 0.061026898 0.00024968471)
(-0.017713341 0.078141041 0.0002833818)
(-0.027363447 0.091688252 0.00031227014)
(-0.038161888 0.10204482 0.00033809735)
(-0.049786533 0.10957393 0.0003624362)
(-0.061969701 0.11460031 0.00038671071)
(-0.074496089 0.11739492 0.00041182692)
(-0.08719019 0.11816848 0.00043821241)
(-0.099905238 0.11707232 0.00046588723)
(-0.11251398 0.1142045 0.00049450965)
(-0.12490063 0.10961983 0.00052341452)
(-0.13695391 0.10334186 0.00055165259)
(-0.1485612 0.095375836 0.00057803072)
(-0.15960352 0.085721693 0.00060115596)
(-0.16995133 0.074386502 0.00061948941)
(-0.17946102 0.06139641 0.00063141275)
(-0.18797225 0.046808079 0.00063531125)
(-0.1953062 0.030719874 0.00062967555)
(-0.20126531 0.013282976 0.00061322172)
(-0.20563477 -0.0052875991 0.00058502843)
(-0.2081865 -0.02470236 0.00054468493)
(-0.20868634 -0.044587933 0.00049243969)
(-0.20690523 -0.064480064 0.00042933695)
(-0.20263513 -0.083821003 0.00035731852)
(-0.19571017 -0.1019638 0.00027926748)
(-0.18603293 -0.11818652 0.00019896384)
(-0.17360489 -0.13171966 0.00012092851)
(-0.15855851 -0.14178924 5.0136435e-05)
(-0.14118669 -0.14767688 -8.3986351e-06)
(-0.12196355 -0.14879464 -5.0140738e-05)
(-0.10154895 -0.14476851 -7.1588631e-05)
(-0.080769701 -0.13551872 -7.0775919e-05)
(-0.0605742 -0.12132141 -4.7563561e-05)
(-0.041961419 -0.10283525 -3.7160592e-06)
(-0.02587926 -0.081081096 5.6836844e-05)
(-0.013111172 -0.057368779 0.00012859767)
(-0.004365742 -0.033184518 0.0002121821)
(-0.00054630218 -0.010122899 0.0002923227)
(-0.0005627689 0.016610584 0.00020605986)
(-0.003570332 0.044798811 0.00029147878)
(-0.0097012408 0.068172243 0.00033822683)
(-0.017943925 0.087095794 0.00037296579)
(-0.027727918 0.10200708 0.00040329307)
(-0.038677105 0.11336047 0.00043108922)
(-0.050464032 0.12158764 0.00045803498)
(-0.06281806 0.12707094 0.00048563435)
(-0.075523897 0.13012773 0.00051484248)
(-0.088409127 0.13100429 0.0005461079)
(-0.101333 0.12987746 0.00057944542)
(-0.11417684 0.12686191 0.00061448186)
(-0.12683551 0.1220212 0.00065049202)
(-0.13920984 0.11538091 0.00068643317)
(-0.15120004 0.1069425 0.00072097869)
(-0.16270001 0.09669705 0.00075255473)
(-0.17359216 0.08463846 0.00077938745)
(-0.183743 0.070776071 0.00079956344)
(-0.19299934 0.055146948 0.00081111112)
(-0.20118527 0.037828181 0.00081210417)
(-0.20810039 0.018949521 0.00080079096)
(-0.21351961 -0.0012934863 0.0007757487)
(-0.21719529 -0.022626035 0.00073606082)
(-0.21886256 -0.044680894 0.00068150425)
(-0.21824888 -0.066986794 0.00061273996)
(-0.21508903 -0.088960257 0.00053147791)
(-0.20914659 -0.10990388 0.00044059063)
(-0.20024256 -0.12901475 0.00034413565)
(-0.18829097 -0.14540754 0.00024724995)
(-0.1733394 -0.15815664 0.00015588051)
(-0.15561051 -0.16636073 7.6333249e-05)
(-0.13553741 -0.16922975 1.4656212e-05)
(-0.11378318 -0.1661892 -2.4087923e-05)
(-0.091233949 -0.15698883 -3.6539234e-05)
(-0.068957928 -0.14179565 -2.1552071e-05)
(-0.048127648 -0.12124749 1.9553222e-05)
(-0.029897091 -0.09644597 8.2572366e-05)
(-0.015257151 -0.06887593 0.00016111441)
(-0.005126189 -0.040264934 0.00025573967)
(-0.00065485139 -0.012484311 0.00034793257)
(-0.00056145351 0.018463989 0.00029974614)
(-0.0035722582 0.049639244 0.00039237806)
(-0.009719473 0.075376103 0.00043961658)
(-0.017991565 0.096128688 0.00047521379)
(-0.027814782 0.11241845 0.00050689962)
(-0.038808592 0.12477806 0.00053667475)
(-0.050641647 0.13370928 0.00056632297)
(-0.063041306 0.13965452 0.00059742861)
(-0.075792988 0.14298046 0.00063100296)
(-0.088728056 0.14397196 0.00066752743)
(-0.10171261 0.14283423 0.00070702645)
(-0.11463766 0.13970098 0.00074911179)
(-0.12741017 0.1346465 0.00079301446)
(-0.13994503 0.12769978 0.00083761287)
(-0.15215782 0.11885914 0.00088145838)
(-0.16395845 0.10810673 0.00092280276)