/*--------------------------------*- C++ -*----------------------------------*\
  =========                 |
  \\      /  F ield         | OpenFOAM: The Open Source CFD Toolbox
   \\    /   O peration     | Website:  https://openfoam.org
    \\  /    A nd           | Version:  7
     \\/     M anipulation  |
\*---------------------------------------------------------------------------*/
FoamFile
{
    version     2.0;
    format      ascii;
    class       volScalarField;
    location    "38";
    object      p;
}
// * * * * * * * * * * * * * * * * * * * * * * * * * * * * * * * * * * * * * //

dimensions      [0 2 -2 0 0 0 0];

internalField   nonuniform List<scalar> 
8800
(
0.990913
0.943124
0.90443
0.875429
0.854555
0.839709
0.829092
0.821585
0.816729
0.81462
0.815825
0.819965
0.826569
0.835852
0.848609
0.866327
0.891093
0.925027
0.96757
1.02627
0.822174
0.829852
0.837316
0.84062
0.839109
0.83402
0.827517
0.821417
0.816659
0.813769
0.813432
0.815875
0.820313
0.826221
0.832962
0.839221
0.842847
0.842103
0.836672
0.827975
0.800595
0.806754
0.810876
0.813811
0.815848
0.816436
0.815308
0.813173
0.811114
0.810146
0.811042
0.813362
0.816113
0.818256
0.818835
0.817614
0.815255
0.811849
0.807286
0.803524
0.79482
0.797469
0.800214
0.802608
0.80423
0.805372
0.806088
0.806169
0.805825
0.805709
0.806386
0.807488
0.808271
0.80829
0.807646
0.806527
0.804689
0.802102
0.79969
0.798186
0.789488
0.790911
0.792683
0.794704
0.796473
0.797793
0.798753
0.799509
0.800067
0.800555
0.801118
0.801532
0.801563
0.801219
0.800478
0.799193
0.797468
0.795598
0.79428
0.793449
0.784473
0.785392
0.786627
0.788183
0.789799
0.791301
0.792554
0.793573
0.794471
0.795274
0.795857
0.796085
0.795959
0.795448
0.794509
0.793261
0.791894
0.790605
0.789769
0.789219
0.779647
0.780315
0.781271
0.782563
0.783955
0.785388
0.786792
0.788062
0.789184
0.790183
0.790875
0.791119
0.790926
0.790324
0.789441
0.78843
0.787364
0.786403
0.785803
0.7854
0.774965
0.77548
0.776258
0.777377
0.778637
0.779985
0.781392
0.782806
0.784147
0.785355
0.786203
0.786516
0.786349
0.785842
0.785138
0.784329
0.783484
0.782753
0.782302
0.781989
0.77036
0.770769
0.771421
0.772418
0.773607
0.774906
0.776306
0.777794
0.779313
0.780756
0.781807
0.782266
0.782251
0.781926
0.781413
0.780786
0.780124
0.77957
0.779227
0.778975
0.765757
0.766089
0.766652
0.767572
0.768712
0.769992
0.771418
0.772985
0.774663
0.776359
0.777676
0.778379
0.778595
0.778481
0.77816
0.777723
0.777226
0.776816
0.776555
0.776347
0.761073
0.761346
0.761849
0.762725
0.763849
0.765151
0.76664
0.768326
0.770199
0.77218
0.77384
0.774864
0.775357
0.77548
0.77536
0.775104
0.774763
0.774475
0.77428
0.774104
0.756238
0.756465
0.756928
0.757791
0.758938
0.760306
0.761902
0.763763
0.765894
0.768232
0.770314
0.771725
0.772535
0.772921
0.773021
0.77294
0.772752
0.772571
0.772429
0.772277
0.751175
0.751365
0.751809
0.752688
0.7539
0.755374
0.757131
0.759237
0.761719
0.764527
0.767121
0.768973
0.770145
0.770825
0.771163
0.771268
0.771228
0.771143
0.771047
0.770914
0.745803
0.745961
0.746399
0.747321
0.748635
0.750263
0.752236
0.754647
0.757548
0.760929
0.764154
0.766561
0.76818
0.769208
0.769822
0.770139
0.770251
0.77026
0.770205
0.770085
0.740027
0.740155
0.740601
0.741593
0.743055
0.744892
0.747155
0.749962
0.753404
0.757498
0.761496
0.764567
0.766715
0.768149
0.769078
0.769632
0.769909
0.770013
0.769997
0.76989
0.733745
0.733845
0.734313
0.735399
0.737048
0.739153
0.741789
0.745107
0.749227
0.754195
0.759145
0.763039
0.765817
0.767738
0.769023
0.769847
0.770324
0.770533
0.770555
0.770454
0.726807
0.726887
0.727373
0.728577
0.730469
0.732911
0.736023
0.739988
0.74498
0.751065
0.757161
0.762001
0.765534
0.768042
0.769785
0.770927
0.771619
0.771939
0.772
0.771905
0.71896
0.719032
0.719579
0.720916
0.723093
0.725967
0.729667
0.734421
0.740447
0.747856
0.755384
0.761446
0.765911
0.769133
0.771435
0.772994
0.773955
0.774408
0.774511
0.774418
0.709977
0.710018
0.710638
0.712176
0.714734
0.718168
0.722636
0.728436
0.735837
0.744942
0.754167
0.761614
0.767155
0.771213
0.774183
0.77623
0.777523
0.77813
0.778274
0.778177
0.699463
0.699491
0.700198
0.701995
0.705016
0.709148
0.71458
0.721673
0.730735
0.741891
0.753213
0.762382
0.76925
0.774342
0.77812
0.78077
0.782466
0.783254
0.783438
0.78333
0.686796
0.686815
0.687651
0.689802
0.693472
0.698558
0.705291
0.714101
0.72532
0.739027
0.752836
0.763981
0.772365
0.778642
0.783371
0.78674
0.788898
0.789881
0.790097
0.789969
0.67114
0.67116
0.672207
0.674898
0.679498
0.685917
0.694415
0.705479
0.719425
0.736253
0.75301
0.766468
0.776609
0.78425
0.790035
0.794215
0.796874
0.798054
0.798295
0.798142
0.6513
0.651331
0.652724
0.656271
0.662258
0.670591
0.681543
0.695619
0.713039
0.73365
0.753853
0.769941
0.782044
0.791207
0.798194
0.80326
0.806439
0.807803
0.808058
0.807874
0.625474
0.625542
0.627553
0.632528
0.640744
0.651938
0.666407
0.684532
0.70634
0.731465
0.755591
0.774579
0.788837
0.79966
0.807914
0.813942
0.817626
0.819148
0.819405
0.819188
0.590679
0.590875
0.594136
0.601751
0.613744
0.629382
0.648879
0.672328
0.699521
0.72988
0.758358
0.780489
0.797039
0.809641
0.819302
0.826314
0.830466
0.832093
0.832322
0.83207
0.541218
0.542269
0.548826
0.561835
0.580388
0.602891
0.629322
0.659515
0.693069
0.729277
0.762408
0.787801
0.806729
0.821177
0.832286
0.840288
0.844849
0.846498
0.846665
0.846373
0.468187
0.475604
0.490824
0.513903
0.542158
0.573781
0.608694
0.646684
0.687346
0.729987
0.768225
0.797252
0.818887
0.8355
0.848385
0.85752
0.862587
0.86436
0.864536
0.864291
0.389518
0.406863
0.431494
0.465215
0.503561
0.544493
0.587994
0.634029
0.682303
0.732231
0.776722
0.810507
0.835772
0.855312
0.870616
0.881362
0.88704
0.888892
0.889119
0.889039
0.324232
0.344569
0.377029
0.419607
0.466809
0.516495
0.568303
0.622207
0.677929
0.734919
0.785361
0.823597
0.852264
0.874477
0.891677
0.903348
0.909411
0.911751
0.912018
0.912015
0.270733
0.292775
0.330631
0.379544
0.433765
0.490757
0.549883
0.610985
0.67367
0.737315
0.793338
0.835661
0.867316
0.891675
0.910215
0.923069
0.930193
0.932369
0.932703
0.93275
0.226107
0.24922
0.290686
0.344708
0.404599
0.467626
0.533013
0.600482
0.669491
0.73929
0.800449
0.846462
0.880675
0.906787
0.926581
0.940206
0.947905
0.950395
0.950896
0.950975
0.188013
0.211716
0.256036
0.313928
0.378571
0.446746
0.517572
0.590683
0.665412
0.740845
0.806726
0.856027
0.892439
0.91994
0.940575
0.954836
0.962972
0.965938
0.966586
0.966689
0.15453
0.178613
0.225088
0.286259
0.354876
0.42752
0.503162
0.581348
0.661307
0.741961
0.812198
0.86446
0.902725
0.931335
0.952665
0.96742
0.975917
0.979231
0.979985
0.980083
0.124255
0.148674
0.196881
0.260806
0.332858
0.409406
0.489353
0.572169
0.656974
0.742525
0.816852
0.87183
0.911724
0.941261
0.963084
0.978194
0.986915
0.990451
0.991267
0.991353
0.0963016
0.12104
0.170693
0.23694
0.312
0.391993
0.475817
0.562875
0.652208
0.742414
0.820668
0.878243
0.919667
0.950057
0.972309
0.987684
0.996522
1.00018
1.00102
1.00106
0.0699078
0.0950109
0.146013
0.21425
0.291911
0.374966
0.462297
0.55326
0.646845
0.741516
0.823626
0.883789
0.926753
0.958002
0.980718
0.996261
1.00521
1.0089
1.00978
1.00979
0.0447163
0.0702322
0.122341
0.192371
0.272336
0.358117
0.448621
0.543183
0.640762
0.73975
0.825708
0.888537
0.933143
0.965321
0.988518
1.00427
1.01323
1.01686
1.01773
1.01774
0.0203249
0.0463723
0.0993973
0.171103
0.253075
0.341299
0.43468
0.532549
0.633872
0.737036
0.826888
0.892546
0.938953
0.972192
0.995941
1.0119
1.02088
1.02446
1.02521
1.02516
-0.00340262
0.0230929
0.0771598
0.150291
0.234032
0.324436
0.420413
0.521311
0.626128
0.733326
0.827138
0.895834
0.944272
0.97873
1.00312
1.01931
1.02825
1.03171
1.03236
1.03223
-0.0265955
0.000445628
0.0554526
0.129855
0.215175
0.307507
0.405808
0.509452
0.617509
0.728575
0.826395
0.898379
0.949131
0.98502
1.01014
1.02654
1.03535
1.0386
1.03911
1.03893
-0.0493725
-0.021723
0.0341796
0.109764
0.196482
0.290524
0.390894
0.497005
0.608023
0.722749
0.824583
0.900108
0.95353
0.991127
1.01708
1.03363
1.0422
1.04514
1.0455
1.04527
-0.0717401
-0.0434098
0.0133712
0.0900273
0.177989
0.273527
0.375724
0.484018
0.597703
0.715829
0.821628
0.900921
0.957418
0.99711
1.02405
1.04064
1.04876
1.05127
1.05146
1.05121
-0.0935388
-0.0645652
-0.00693647
0.0706783
0.159736
0.256585
0.360363
0.470572
0.586614
0.707842
0.817462
0.900695
0.960679
1.003
1.03127
1.04778
1.05507
1.05693
1.05694
1.05667
-0.11474
-0.0851551
-0.026728
0.0517667
0.141783
0.239762
0.344906
0.45675
0.574843
0.698826
0.812043
0.899279
0.963129
1.00872
1.03897
1.05549
1.06144
1.06216
1.06187
1.06164
-0.135408
-0.10514
-0.0459671
0.0333282
0.124195
0.223143
0.329445
0.442662
0.562489
0.688857
0.805333
0.896524
0.964515
1.01403
1.04729
1.06459
1.06885
1.06741
1.06629
1.06632
-0.155364
-0.124492
-0.0645938
0.0154281
0.107032
0.20681
0.314075
0.428422
0.549675
0.678042
0.797342
0.892286
0.96453
1.01843
1.0559
1.0758
1.07946
1.07511
1.0715
1.07073
-0.174698
-0.143198
-0.0826223
-0.00196003
0.0902595
0.190718
0.29874
0.41397
0.536333
0.666307
0.787938
0.886299
0.962834
1.02124
1.06379
1.08883
1.09533
1.09068
1.08081
1.06487
-0.193333
-0.161245
-0.100171
-0.019029
0.073587
0.174529
0.28302
0.398817
0.521915
0.652997
0.776447
0.877721
0.958757
1.02138
1.06858
1.10021
1.11059
1.09998
1.08136
1.0662
-0.211088
-0.178756
-0.117049
-0.0355488
0.0573244
0.158592
0.267142
0.383296
0.50674
0.638398
0.762999
0.866175
0.951697
1.01778
1.0653
1.09668
1.11072
1.09041
1.02093
0.98881
-0.227298
-0.196919
-0.132934
-0.0509356
0.0421984
0.143407
0.251408
0.367632
0.491029
0.622646
0.747572
0.851446
0.940495
1.01012
1.04975
1.0735
1.07156
1.02046
0.950198
0.906594
-0.283299
-0.212912
-0.147526
-0.0662237
0.0267072
0.127545
0.235755
0.351554
0.474428
0.605313
0.729617
0.83309
0.921634
0.99838
1.00419
1.0152
0.975582
0.909479
0.833195
0.790428
-0.24458
-0.228608
-0.169012
-0.0877656
0.00416849
0.104737
0.211913
0.3269
0.44854
0.577587
0.699266
0.800307
0.880269
0.958478
0.952528
0.846444
0.74422
0.672994
0.600198
0.633686
-0.27581
-0.246467
-0.185898
-0.105381
-0.0133956
0.0868347
0.194192
0.308464
0.428918
0.555963
0.674513
0.771324
0.843356
0.884182
0.839208
0.695794
0.569829
0.479872
0.38111
0.434043
-0.299869
-0.267572
-0.205716
-0.124945
-0.0329062
0.0671617
0.174369
0.287728
0.406676
0.531172
0.645803
0.736809
0.799222
0.80795
0.705117
0.53357
0.380831
0.26187
0.131334
0.165659
-0.323423
-0.289544
-0.226476
-0.144855
-0.0526611
0.0472498
0.153902
0.266224
0.383478
0.505085
0.614989
0.699458
0.746535
0.723859
0.568463
0.37208
0.180331
0.00831347
-0.183753
-0.197679
-0.34633
-0.312004
-0.248031
-0.165669
-0.0732761
0.026427
0.13241
0.243585
0.358907
0.477281
0.581896
0.659008
0.688244
0.630651
0.438645
0.226944
0.0068182
-0.187819
-0.436023
-0.745012
-0.369511
-0.335176
-0.270652
-0.18779
-0.0951828
0.00436827
0.109758
0.219765
0.33307
0.448
0.54716
0.615805
0.626711
0.51853
0.326126
0.11457
-0.0927756
-0.268831
-0.337202
-0.424201
-0.393888
-0.3595
-0.294675
-0.211556
-0.118867
-0.019553
0.0851532
0.193828
0.30481
0.415806
0.509098
0.567408
0.553746
0.411686
0.226811
0.0344469
-0.130111
-0.224059
-0.248289
-0.26486
-0.419774
-0.385289
-0.320262
-0.237045
-0.14445
-0.0455313
0.0582587
0.165305
0.273555
0.379984
0.466922
0.512304
0.480336
0.312559
0.137203
-0.029627
-0.157892
-0.196646
-0.210777
-0.212121
-0.447366
-0.412702
-0.347466
-0.264237
-0.171864
-0.073553
0.0290784
0.134167
0.239252
0.340541
0.420336
0.452149
0.403137
0.220445
0.0544566
-0.0949301
-0.174673
-0.190924
-0.192213
-0.192061
-0.476706
-0.441748
-0.376294
-0.293108
-0.201101
-0.103581
-0.0023628
0.100429
0.201925
0.297566
0.369216
0.389677
0.306378
0.136149
-0.0219522
-0.145078
-0.181203
-0.182012
-0.181937
-0.181287
-0.507496
-0.472337
-0.406621
-0.323549
-0.232045
-0.135526
-0.0359959
0.0641549
0.161629
0.25116
0.314317
0.318792
0.214765
0.0577999
-0.0827086
-0.161805
-0.172097
-0.174573
-0.175137
-0.174923
-0.539151
-0.503872
-0.438183
-0.355312
-0.264475
-0.16919
-0.0716216
0.0255265
0.118583
0.201576
0.256192
0.243789
0.131832
-0.00941932
-0.129015
-0.156919
-0.169623
-0.171178
-0.170562
-0.170189
-0.57122
-0.535827
-0.470486
-0.387976
-0.298005
-0.204202
-0.108899
-0.0151032
0.0731366
0.149419
0.194349
0.170071
0.0515932
-0.066065
-0.161387
-0.190056
-0.175378
-0.170761
-0.169613
-0.168827
-0.602836
-0.567609
-0.502656
-0.420884
-0.33205
-0.240025
-0.147295
-0.0571651
0.0258593
0.0953299
0.13051
0.0976469
-0.0275645
-0.110468
-0.165383
-0.171956
-0.175903
-0.177197
-0.1765
-0.175753
-0.632387
-0.597979
-0.533767
-0.453096
-0.365793
-0.275877
-0.186048
-0.0998317
-0.022345
0.0400318
0.0696402
0.0138031
-0.109021
-0.158616
-0.147636
-0.184263
-0.191686
-0.188404
-0.188639
-0.188804
-0.658422
-0.624955
-0.562716
-0.483463
-0.398147
-0.310722
-0.224144
-0.142033
-0.0701229
-0.0152994
0.0115462
-0.0786528
-0.217217
-0.237254
-0.204201
-0.231124
-0.241011
-0.24281
-0.242658
-0.241527
-0.678878
-0.647171
-0.587349
-0.510574
-0.427773
-0.343312
-0.260288
-0.182454
-0.115797
-0.0689111
-0.0467828
-0.165679
-0.370205
-0.507809
-0.437859
-0.411716
-0.401725
-0.394972
-0.379264
-0.36915
-0.691687
-0.662588
-0.606063
-0.532566
-0.453109
-0.37218
-0.292996
-0.219473
-0.157539
-0.117903
-0.102666
-0.231075
-0.490325
-0.959233
-0.993046
-0.682625
-0.542157
-0.497808
-0.473011
-0.464441
-0.69435
-0.669155
-0.616991
-0.547711
-0.472443
-0.395733
-0.320626
-0.251224
-0.193312
-0.157697
-0.146303
-0.228146
-0.362059
-0.643633
-0.806829
-0.495215
-0.35177
-0.333469
-0.344113
-0.347704
-0.685228
-0.664658
-0.618159
-0.554496
-0.484305
-0.41239
-0.341557
-0.275765
-0.220801
-0.185694
-0.160967
-0.119743
0.105941
0.401769
0.29614
-0.0719628
-0.280058
-0.290776
-0.291939
-0.291074
-0.662212
-0.646197
-0.607983
-0.551814
-0.487771
-0.42106
-0.35442
-0.291393
-0.238212
-0.202641
-0.175701
-0.0923022
0.181024
0.721441
0.591758
0.0942998
-0.222819
-0.239851
-0.266256
-0.283133
-0.627154
-0.616416
-0.586961
-0.539942
-0.482829
-0.421465
-0.358525
-0.297243
-0.24344
-0.207007
-0.19762
-0.286838
-0.645767
-1.26729
-1.83827
-2.16134
-1.95293
-1.51869
-1.12625
-1.04223
-0.585521
-0.579293
-0.559271
-0.521219
-0.471212
-0.414422
-0.35401
-0.292689
-0.234766
-0.191142
-0.184725
-0.469289
-1.27945
-2.38015
-3.06612
-3.26214
-3.01698
-2.61917
-2.24933
-2.01617
-0.545253
-0.541689
-0.530427
-0.500761
-0.456069
-0.402205
-0.342256
-0.277964
-0.212188
-0.147707
-0.114224
-0.216712
-0.55171
-0.810153
-0.862852
-0.655696
-0.332247
-0.0311082
0.185301
0.288837
-0.513313
-0.511129
-0.505422
-0.483395
-0.442428
-0.388605
-0.326476
-0.255357
-0.176927
-0.0855076
0.0219356
0.167181
0.40796
0.858622
1.4526
2.01051
2.43413
2.68204
2.78667
2.81556
-0.486887
-0.48604
-0.484587
-0.470931
-0.43348
-0.377803
-0.310821
-0.233178
-0.142462
-0.0353541
0.0962168
0.237084
0.523908
1.06165
1.68728
2.24404
2.64
2.86878
2.97379
3.00226
-0.469153
-0.468806
-0.468773
-0.461217
-0.428003
-0.370144
-0.297841
-0.214715
-0.118521
-0.00732146
0.111433
0.236838
0.425032
0.904179
1.43781
1.90739
2.24812
2.43836
2.52066
2.54218
-0.454326
-0.453727
-0.453676
-0.451292
-0.423536
-0.364272
-0.287433
-0.200667
-0.105337
0.0015236
0.106668
0.216928
0.34153
0.691027
1.10811
1.45104
1.702
1.84149
1.90214
1.91845
-0.445932
-0.444335
-0.444017
-0.444056
-0.419654
-0.357488
-0.27622
-0.187696
-0.0948238
0.00550852
0.0995649
0.187357
0.276376
0.503955
0.798408
1.03856
1.20964
1.30548
1.34777
1.35779
-0.446785
-0.447144
-0.450517
-0.450155
-0.418741
-0.345826
-0.258897
-0.170427
-0.0820287
0.00896856
0.087193
0.152055
0.207139
0.366659
0.563633
0.723085
0.83873
0.902258
0.929787
0.935822
-0.429634
-0.435531
-0.442875
-0.437523
-0.395674
-0.315687
-0.228659
-0.145715
-0.0669119
0.0103895
0.0752376
0.12326
0.165728
0.271372
0.404235
0.508211
0.580619
0.620772
0.637204
0.639907
-0.338984
-0.346182
-0.3536
-0.347135
-0.309854
-0.245711
-0.176725
-0.109565
-0.0456313
0.0175833
0.070182
0.106278
0.138644
0.209341
0.297755
0.366779
0.412641
0.436857
0.446955
0.447971
-0.180661
-0.185223
-0.19077
-0.189556
-0.17228
-0.140923
-0.103065
-0.06164
-0.0176166
0.0293368
0.0687947
0.0965927
0.122403
0.169358
0.226354
0.271539
0.30177
0.318305
0.324774
0.324739
-0.0231117
-0.0252918
-0.0298705
-0.0360876
-0.0394109
-0.0379567
-0.0284786
-0.0116735
0.0126634
0.0435172
0.0734666
0.0986027
0.120039
0.15098
0.18629
0.215098
0.234312
0.244936
0.248728
0.24803
0.0822063
0.0810731
0.0765198
0.0658058
0.0501677
0.0368389
0.0297354
0.0306687
0.0404086
0.0585122
0.0804846
0.102233
0.122806
0.142822
0.163662
0.18049
0.19262
0.199669
0.202154
0.201064
0.132361
0.131626
0.127615
0.116957
0.100058
0.0825395
0.068796
0.061444
0.0619463
0.0707682
0.0854393
0.103438
0.1202
0.132401
0.143661
0.155144
0.164015
0.169109
0.170431
0.169073
0.147218
0.146639
0.143541
0.135132
0.121208
0.1055
0.0914525
0.0813798
0.0770285
0.0794282
0.0878168
0.0997006
0.112028
0.117202
0.123639
0.132194
0.1397
0.144193
0.1454
0.144012
0.144821
0.144371
0.142205
0.13639
0.126438
0.114383
0.102478
0.0926362
0.086164
0.0840684
0.0860599
0.0906236
0.095449
0.0966202
0.100915
0.109357
0.116932
0.121332
0.122523
0.12123
0.135905
0.135563
0.134146
0.130453
0.123901
0.115435
0.106357
0.0979742
0.0910784
0.0859175
0.0815524
0.0770899
0.0710661
0.0687929
0.0772972
0.0877963
0.0956004
0.0996087
0.10058
0.0994782
0.1257
0.125433
0.124531
0.122329
0.118319
0.112817
0.10644
0.0999434
0.0935768
0.0868246
0.0775727
0.0641303
0.0501944
0.0488984
0.0599977
0.0714618
0.0787329
0.0818945
0.0825092
0.0817072
0.116429
0.116218
0.115646
0.114401
0.112138
0.108848
0.104788
0.100304
0.0955973
0.0888872
0.0773703
0.0582045
0.0385525
0.0405312
0.0550578
0.066329
0.0718908
0.0733711
0.0736398
0.0732698
0.10865
0.108505
0.108169
0.107516
0.106374
0.104639
0.102487
0.100152
0.0976859
0.0940517
0.0852094
0.067557
0.0509926
0.0571859
0.0709033
0.0788834
0.0813933
0.0813996
0.0812973
0.0810465
0.101822
0.101741
0.101578
0.101269
0.100938
0.100366
0.0998336
0.0997373
0.100206
0.101319
0.10052
0.0937646
0.0881026
0.096382
0.104762
0.107941
0.107905
0.107142
0.106884
0.106568
0.0951199
0.0951052
0.0950951
0.0950358
0.0949962
0.0954321
0.0962955
0.0982297
0.102163
0.109552
0.120045
0.129651
0.136485
0.145643
0.14774
0.145758
0.144228
0.143913
0.143689
0.14318
0.0876296
0.0876692
0.0878091
0.0879705
0.0884057
0.0892221
0.0912099
0.0949561
0.102035
0.115459
0.137648
0.164902
0.188906
0.195099
0.18929
0.183518
0.181488
0.181367
0.180635
0.179857
0.0787382
0.0788263
0.0791038
0.0794742
0.0802358
0.0813432
0.0840834
0.0888998
0.097928
0.115664
0.146974
0.190292
0.228131
0.231964
0.218697
0.210088
0.208955
0.209563
0.208416
0.207416
0.0677194
0.0678263
0.0681682
0.0687228
0.0694871
0.0712504
0.0736517
0.0794464
0.089369
0.108119
0.141761
0.187797
0.236219
0.238708
0.224321
0.219078
0.218782
0.21919
0.217509
0.21625
0.0541356
0.0542179
0.0546097
0.0554647
0.0566885
0.058173
0.0607544
0.0654709
0.0745127
0.0914859
0.120529
0.162581
0.20043
0.203037
0.193773
0.19407
0.200127
0.203159
0.20113
0.199485
0.0386001
0.0386371
0.0389634
0.0398608
0.0410789
0.0429181
0.0454621
0.0489185
0.0551269
0.0664206
0.0847652
0.106865
0.122915
0.127566
0.132795
0.143374
0.151569
0.154075
0.152435
0.150535
0.0218203
0.0217953
0.0219825
0.022694
0.0236851
0.0246975
0.0261492
0.0287368
0.0325263
0.037475
0.0434557
0.0417713
0.0256171
0.0367702
0.0548051
0.0702538
0.0735614
0.0741655
0.0747796
0.073665
0.00475447
0.00459488
0.00436508
0.00409304
0.00380404
0.00386686
0.00433
0.00490383
0.00556977
0.00688192
0.0101229
0.00980812
-0.00423891
-0.00034529
0.00585251
0.00748804
-0.00140262
-0.00401103
0.000347125
0.00365951
0.0524697
0.225838
0.42841
0.603798
0.744733
0.856718
0.94984
1.02864
1.06401
1.04079
0.368304
0.493164
0.627164
0.743253
0.841451
0.923017
0.989032
1.03578
1.05927
1.0712
0.59488
0.680338
0.771751
0.852832
0.922635
0.981043
1.02744
1.06129
1.08564
1.10349
0.760257
0.820945
0.885065
0.943708
0.994853
1.03824
1.07383
1.10215
1.12532
1.14354
0.888901
0.933277
0.980326
1.02518
1.06481
1.09937
1.12891
1.15344
1.17407
1.19185
0.995081
1.02871
1.06755
1.10379
1.13701
1.16674
1.19268
1.21446
1.23247
1.2498
1.08884
1.11796
1.15242
1.18498
1.21529
1.24278
1.26677
1.28667
1.30229
1.31936
1.17815
1.20761
1.24192
1.27424
1.30407
1.33086
1.35388
1.37249
1.38594
1.40298
1.2739
1.30727
1.34411
1.37786
1.40805
1.43436
1.45641
1.47377
1.4857
1.5031
1.38918
1.42711
1.46586
1.50021
1.52965
1.55448
1.57492
1.59086
1.60237
1.62045
1.53429
1.57292
1.60912
1.63986
1.6656
1.68774
1.70684
1.7224
1.73485
1.75286
1.70948
1.74115
1.76737
1.78985
1.80986
1.82861
1.84635
1.86285
1.87821
1.89629
1.89816
1.91539
1.93045
1.9467
1.96263
1.97717
1.99039
2.00433
2.02188
2.04204
2.07994
2.08947
2.10102
2.11184
2.12113
2.13072
2.14152
2.1529
2.16427
2.17963
2.28718
2.29085
2.27591
2.2611
2.25483
2.26052
2.279
2.30932
2.3415
2.36816
2.59349
2.45863
2.382
2.33964
2.32223
2.32619
2.3536
2.41001
2.51263
2.737
0.881511
0.87938
0.874894
0.866264
0.854032
0.841892
0.831646
0.823724
0.818069
0.814763
0.814342
0.817013
0.822062
0.829242
0.838599
0.850117
0.862753
0.873776
0.879882
0.882931
0.805977
0.811822
0.818156
0.822641
0.825101
0.824764
0.82201
0.818173
0.814624
0.812309
0.812092
0.814216
0.817819
0.822062
0.825834
0.827693
0.826738
0.823242
0.81807
0.811446
0.797581
0.799877
0.803276
0.806264
0.808328
0.80981
0.810544
0.810197
0.809129
0.808185
0.80828
0.809629
0.811378
0.812631
0.81277
0.811849
0.810277
0.807923
0.804647
0.801721
0.792107
0.793193
0.795022
0.797391
0.799402
0.800814
0.801809
0.802525
0.802877
0.803031
0.803433
0.804148
0.804669
0.804672
0.80421
0.803323
0.801823
0.799715
0.797613
0.796224
0.786954
0.787617
0.78872
0.790416
0.792184
0.793797
0.795065
0.796041
0.796866
0.797577
0.798201
0.798643
0.798742
0.798498
0.797869
0.796764
0.795296
0.793721
0.792382
0.791597
0.782042
0.782502
0.783284
0.784573
0.786046
0.787543
0.788977
0.79023
0.7913
0.792261
0.793052
0.793486
0.793516
0.793144
0.792366
0.791311
0.790133
0.788959
0.788018
0.787496
0.777294
0.777639
0.778246
0.779307
0.780587
0.781939
0.783344
0.784741
0.78604
0.787211
0.788171
0.788699
0.788729
0.788327
0.787623
0.786761
0.785839
0.784919
0.784215
0.783831
0.77266
0.772928
0.773418
0.77432
0.775476
0.776749
0.778107
0.779541
0.780998
0.78239
0.783557
0.784225
0.78434
0.784057
0.78353
0.782858
0.782119
0.781409
0.780879
0.780586
0.768067
0.768279
0.768687
0.76948
0.770557
0.771782
0.773125
0.774594
0.776166
0.77777
0.779186
0.780063
0.780371
0.780289
0.779957
0.779471
0.778908
0.778369
0.777971
0.777741
0.763434
0.763604
0.763953
0.764674
0.765706
0.766906
0.768271
0.769809
0.771509
0.773328
0.775036
0.776218
0.7768
0.776959
0.776834
0.776538
0.776153
0.775763
0.775473
0.77529
0.758684
0.75882
0.759126
0.759805
0.760823
0.762046
0.763472
0.765123
0.767008
0.769097
0.771165
0.772724
0.773629
0.77406
0.774163
0.774057
0.773837
0.773583
0.773382
0.773236
0.753745
0.753852
0.754129
0.754791
0.755831
0.757123
0.758655
0.760473
0.762612
0.76505
0.767568
0.769582
0.770862
0.771597
0.771954
0.772052
0.771996
0.771869
0.771743
0.771627
0.748536
0.748618
0.748877
0.749545
0.750641
0.752042
0.753729
0.755778
0.758245
0.761139
0.764216
0.766771
0.768493
0.769583
0.770225
0.770554
0.770668
0.770667
0.770609
0.770517
0.742974
0.743033
0.743282
0.743978
0.745164
0.746715
0.748611
0.750953
0.753825
0.757273
0.76104
0.764268
0.766539
0.768062
0.769035
0.769625
0.769921
0.770047
0.770053
0.769985
0.73696
0.736996
0.737242
0.737982
0.739292
0.741044
0.743222
0.745952
0.749344
0.753481
0.758092
0.762146
0.765077
0.767114
0.768458
0.76933
0.769869
0.770134
0.770205
0.770156
0.730374
0.730382
0.730624
0.73143
0.732901
0.734916
0.73745
0.740675
0.744748
0.749775
0.755436
0.760468
0.764168
0.766802
0.768618
0.769824
0.770618
0.771036
0.771175
0.771144
0.723002
0.722998
0.723265
0.724147
0.72582
0.728132
0.73112
0.734956
0.739843
0.745941
0.752882
0.759128
0.763799
0.767179
0.769563
0.77121
0.772313
0.772906
0.773119
0.773106
0.714615
0.714577
0.714872
0.715877
0.717802
0.720523
0.724085
0.728708
0.734647
0.742094
0.750613
0.75833
0.764128
0.768375
0.771444
0.773642
0.775119
0.77593
0.776227
0.776228
0.704916
0.704855
0.705191
0.706359
0.708594
0.711827
0.716123
0.721751
0.729025
0.73817
0.748615
0.758076
0.765241
0.770546
0.774428
0.777266
0.779203
0.780278
0.780666
0.780677
0.693384
0.693299
0.693705
0.695084
0.697728
0.701627
0.70687
0.713789
0.722743
0.733971
0.74677
0.758358
0.767146
0.773707
0.778583
0.782201
0.784702
0.786083
0.786568
0.786581
0.679298
0.679189
0.679717
0.681416
0.684642
0.689482
0.696038
0.704699
0.715864
0.729744
0.74538
0.759423
0.770064
0.778063
0.784089
0.788572
0.791701
0.793412
0.793991
0.794
0.661659
0.661529
0.662262
0.664461
0.668546
0.674724
0.683097
0.694092
0.7081
0.725249
0.74429
0.76122
0.774007
0.783639
0.790959
0.796429
0.800259
0.802313
0.802976
0.802972
0.638999
0.638861
0.639941
0.642935
0.648383
0.656575
0.667586
0.681818
0.699558
0.720768
0.743808
0.763991
0.779159
0.790586
0.799312
0.80586
0.810419
0.8128
0.813535
0.813513
0.608995
0.608887
0.610597
0.615005
0.622751
0.634156
0.649072
0.667768
0.690304
0.716419
0.744056
0.767858
0.785606
0.798987
0.809215
0.816949
0.822232
0.824905
0.825682
0.825636
0.567565
0.567625
0.570738
0.578068
0.590057
0.606734
0.627455
0.652173
0.680705
0.712563
0.745313
0.77299
0.793464
0.808886
0.820748
0.829723
0.835684
0.838558
0.839324
0.839242
0.507112
0.508334
0.51597
0.529754
0.549455
0.574465
0.603324
0.635718
0.671345
0.709633
0.747841
0.779523
0.802766
0.820266
0.833724
0.843906
0.850508
0.853449
0.854097
0.853973
0.434901
0.436796
0.451355
0.47516
0.505728
0.540488
0.578254
0.618888
0.662203
0.707707
0.752416
0.789252
0.816314
0.836797
0.852572
0.864371
0.87183
0.875027
0.875796
0.875796
0.360349
0.366747
0.3882
0.422156
0.462931
0.507229
0.553872
0.602795
0.653899
0.70677
0.758227
0.80047
0.831529
0.855206
0.873667
0.887341
0.895655
0.898558
0.89918
0.899291
0.299693
0.308235
0.334321
0.375265
0.423919
0.476286
0.530888
0.587538
0.646054
0.705981
0.763837
0.811133
0.845889
0.872368
0.892812
0.907738
0.916459
0.919985
0.921186
0.921372
0.250203
0.259323
0.288899
0.334951
0.389693
0.448559
0.509861
0.573305
0.638548
0.705016
0.76885
0.820794
0.858829
0.887645
0.909744
0.925816
0.935493
0.939746
0.94119
0.941402
0.208622
0.217975
0.249917
0.299858
0.359562
0.423836
0.490824
0.560186
0.631443
0.703885
0.773213
0.829393
0.870303
0.901058
0.92442
0.941339
0.951861
0.956662
0.958329
0.958569
0.17259
0.18202
0.215694
0.2688
0.33257
0.401434
0.473383
0.547982
0.624656
0.702556
0.77696
0.836991
0.880421
0.91277
0.937088
0.954689
0.965893
0.971135
0.972947
0.973212
0.140546
0.149981
0.184974
0.240723
0.307879
0.3807
0.45702
0.536323
0.617952
0.700916
0.780053
0.843633
0.889282
0.922956
0.94805
0.966222
0.977772
0.983416
0.98531
0.985585
0.111292
0.120748
0.156813
0.214777
0.284834
0.36111
0.441306
0.524877
0.611075
0.698792
0.78242
0.849354
0.897052
0.931905
0.957644
0.976153
0.987971
0.993831
0.995795
0.996088
0.0840202
0.0935174
0.130549
0.190374
0.262955
0.342253
0.42592
0.513376
0.603813
0.696029
0.783988
0.854189
0.903892
0.939885
0.966259
0.985099
0.997047
1.00304
1.00498
1.00525
0.0581902
0.0677466
0.105663
0.167074
0.241886
0.323845
0.410628
0.50163
0.59601
0.6925
0.784693
0.858173
0.909925
0.947117
0.97414
0.993317
1.00543
1.0114
1.01334
1.01349
0.0333041
0.0430419
0.0817357
0.144584
0.221368
0.305682
0.395273
0.489511
0.587557
0.688115
0.784477
0.861327
0.915264
0.953773
0.981525
1.00104
1.01326
1.01921
1.02108
1.02124
0.00913604
0.0191032
0.0585247
0.122757
0.201242
0.287641
0.379759
0.476948
0.578382
0.682807
0.783294
0.863651
0.91998
0.959978
0.988572
1.00849
1.02083
1.02671
1.02846
1.02859
-0.0144174
-0.00422688
0.0359879
0.101438
0.181418
0.269678
0.364047
0.463905
0.568457
0.676528
0.781091
0.865125
0.924103
0.965814
0.995389
1.01575
1.02815
1.0339
1.03549
1.03556
-0.0375039
-0.0269882
0.0139223
0.0805387
0.161867
0.251768
0.348139
0.450393
0.557786
0.669267
0.777809
0.86568
0.927612
0.971333
1.00205
1.02287
1.03527
1.04079
1.04217
1.04215
-0.0601016
-0.0492919
-0.00763202
0.0600371
0.142584
0.233934
0.332079
0.436456
0.546401
0.66102
0.773398
0.865221
0.930448
0.976555
1.00865
1.02994
1.04216
1.0473
1.04843
1.04834
-0.0822522
-0.0711133
-0.0286594
0.0399678
0.123598
0.216218
0.315918
0.422164
0.534365
0.651815
0.76782
0.863654
0.932498
0.981457
1.01531
1.0371
1.04891
1.05343
1.05424
1.05408
-0.103764
-0.0923677
-0.049151
0.0203665
0.104964
0.198698
0.299726
0.407594
0.521757
0.64172
0.761064
0.860881
0.933608
0.985939
1.02213
1.04468
1.05577
1.05921
1.05952
1.0593
-0.124774
-0.113014
-0.0690743
0.00126008
0.0867173
0.181417
0.283603
0.392833
0.508675
0.630826
0.753152
0.856797
0.93358
0.989786
1.02913
1.05313
1.06339
1.06499
1.06429
1.06396
-0.145111
-0.13302
-0.0883936
-0.0172985
0.0689386
0.164462
0.26763
0.378007
0.495236
0.619208
0.744138
0.851319
0.932205
0.992655
1.03602
1.06281
1.07307
1.07226
1.06919
1.06784
-0.16483
-0.152422
-0.107051
-0.0352537
0.0516684
0.147904
0.251894
0.363198
0.481556
0.607015
0.734108
0.844381
0.92928
0.994085
1.04207
1.07336
1.08609
1.08451
1.07739
1.06789
-0.183842
-0.171177
-0.125142
-0.0527563
0.0346967
0.131457
0.236053
0.347996
0.467173
0.593721
0.722501
0.835362
0.924219
0.993495
1.04618
1.08338
1.10206
1.10301
1.0931
1.0852
-0.202096
-0.1892
-0.142658
-0.0697625
0.0180332
0.115119
0.220128
0.332387
0.452049
0.579221
0.709148
0.823924
0.91633
0.990113
1.04597
1.08746
1.10902
1.11521
1.07807
1.02488
-0.219297
-0.205715
-0.159486
-0.0862005
0.00157704
0.0987502
0.204073
0.316489
0.43625
0.563588
0.694002
0.80991
0.904623
0.983558
1.03937
1.07464
1.09711
1.08455
1.02764
0.963444
-0.235773
-0.22126
-0.175452
-0.101412
-0.0143126
0.0828329
0.187664
0.300364
0.419921
0.546995
0.677092
0.793172
0.887998
0.974911
1.02446
1.07583
1.04433
1.00195
0.932206
0.864132
-0.221775
-0.203803
-0.154852
-0.076256
0.015964
0.116817
0.226958
0.342499
0.465002
0.595363
0.719085
0.822162
0.908874
1.00163
1.04764
0.967861
0.92173
0.85861
0.785817
0.737677
-0.246158
-0.229938
-0.194179
-0.125556
-0.0389622
0.057547
0.162516
0.274573
0.393314
0.519078
0.64717
0.761331
0.852996
0.93323
1.00549
1.00471