/*--------------------------------*- C++ -*----------------------------------*\
  =========                 |
  \\      /  F ield         | OpenFOAM: The Open Source CFD Toolbox
   \\    /   O peration     | Website:  https://openfoam.org
    \\  /    A nd           | Version:  7
     \\/     M anipulation  |
\*---------------------------------------------------------------------------*/
FoamFile
{
    version     2.0;
    format      ascii;
    class       volScalarField;
    location    "46";
    object      p;
}
// * * * * * * * * * * * * * * * * * * * * * * * * * * * * * * * * * * * * * //

dimensions      [0 2 -2 0 0 0 0];

internalField   nonuniform List<scalar> 
16000
(
8.1641702e-06
-0.00013228327
-0.00044380867
-0.00084617482
-0.0012643911
-0.0016530652
-0.0019813255
-0.0022303307
-0.0023894431
-0.002452959
-0.0024179396
-0.0022829278
-0.0020473519
-0.0017114547
-0.0012765937
-0.00074577889
-0.00012432341
0.00057950444
0.0013539284
0.002183298
0.0030479888
0.0039246398
0.0047867639
0.0056057667
0.0063523253
0.0069980679
0.0075174443
0.0078896562
0.0081004926
0.008143905
0.0080231449
0.0077513407
0.0073514955
0.0068560171
0.006305719
0.0057481258
0.0052383408
0.0048327211
0.0045929301
0.0045542262
0.00015261339
7.6799741e-06
-0.00024241449
-0.00055129993
-0.00087349875
-0.0011747016
-0.0014306653
-0.0016252094
-0.0017479722
-0.0017925105
-0.0017548855
-0.0016327348
-0.0014248043
-0.0011308616
-0.00075189659
-0.00029051365
0.00024857775
0.00085806458
0.0015276097
0.0022435788
0.0029889749
0.0037437748
0.004485272
0.0051891059
0.0058304175
0.0063853092
0.0068324669
0.0071548011
0.0073409732
0.0073866791
0.0072955681
0.007079672
0.0067592553
0.0063621049
0.005922383
0.0054790162
0.0050731504
0.0047483022
0.0045497644
0.0045144881
0.00047124044
0.00025335747
-2.4811809e-06
-0.00028153221
-0.00056177944
-0.00081871806
-0.0010345612
-0.0011972523
-0.0012985845
-0.0013330359
-0.0012968872
-0.0011876068
-0.0010035556
-0.00074397976
-0.00040922574
-1.1086805e-06
0.00047663696
0.0010178959
0.001613773
0.0022523322
0.0029185684
0.0035945324
0.0042598711
0.0048925896
0.0054701402
0.0059707776
0.0063750895
0.0066675574
0.0068379833
0.0068826352
0.0068050127
0.00661616
0.0063344474
0.0059847583
0.00559713
0.0052049582
0.0048427229
0.0045446286
0.004347142
0.0042799232
0.0008928517
0.00056159442
0.00026090197
-2.4885038e-05
-0.00029549075
-0.00053464159
-0.00073077261
-0.00087667126
-0.00096726735
-0.00099886507
-0.00096864974
-0.00087433398
-0.00071404613
-0.00048644877
-0.00019103526
0.00017145133
0.0005985336
0.0010855061
0.0016249954
0.0022066504
0.0028170347
0.0034396969
0.0040556798
0.0046442062
0.0051837203
0.0056531954
0.0060336402
0.0063096811
0.0064710364
0.0065136844
0.0064405707
0.0062617973
0.005994288
0.0056609147
0.0052890503
0.0049086571
0.004550346
0.0042439069
0.0040158803
0.0038802769
0.0013436469
0.00088398041
0.00052082719
0.00021051295
-6.719755e-05
-0.00030325873
-0.00049199273
-0.00063113707
-0.00071903657
-0.00075412713
-0.00073474618
-0.00065899144
-0.00052477869
-0.00033009668
-7.3412717e-05
0.00024581825
0.00062659103
0.0010657847
0.0015576477
0.0020933974
0.002661007
0.003245238
0.0038280062
0.0043890714
0.0049070641
0.0053607969
0.005730786
0.0060008768
0.0061598145
0.0062025387
0.0061309761
0.0059541924
0.00568791
0.0053534833
0.0049763641
0.004584198
0.0042053278
0.0038668445
0.0035841443
0.0033604886
0.0017704944
0.0011773666
0.00074270454
0.00039665789
0.00010009654
-0.00014419548
-0.00033590895
-0.00047749419
-0.00057064119
-0.00061592662
-0.00061286227
-0.00055992349
-0.00045475446
-0.00029455471
-7.6601913e-05
0.00020112823
0.00053929033
0.00093649717
0.0013887005
0.0018886836
0.0024257329
0.0029855743
0.0035506199
0.0041006202
0.0046136896
0.0050676729
0.0054417479
0.0057181383
0.0058837889
0.0059318154
0.0058624857
0.005683503
0.0054094947
0.0050608058
0.004661749
0.0042386813
0.003819131
0.0034296561
0.0030771283
0.0027498179
0.0021281878
0.0014032111
0.00089362269
0.00050539189
0.00018212283
-7.885569e-05
-0.00028206129
-0.00043427363
-0.00054027355
-0.00060260467
-0.00062181783
-0.00059664026
-0.0005243102
-0.00040108633
-0.00022288539
1.398375e-05
0.00031202616
0.00067175776
0.0010909527
0.0015640053
0.0020814761
0.002629915
0.003191983
0.0037470328
0.0042721017
0.0047433362
0.0051377295
0.0054350056
0.0056194617
0.0056815854
0.0056192447
0.0054382124
0.005151827
0.0047797503
0.0043459547
0.0038766104
0.0033998004
0.0029432922
0.0025070843
0.0020655484
0.0023781613
0.0015267584
0.00094268344
0.00050950625
0.00015491997
-0.00012863424
-0.00035002758
-0.00051994746
-0.00064592538
-0.00073219563
-0.00078011407
-0.00078845131
-0.00075384323
-0.00067141483
-0.0005355275
-0.00034062269
-8.2134901e-05
0.00024256841
0.00063328141
0.0010861615
0.0015931215
0.0021415272
0.0027141753
0.0032897909
0.0038439458
0.0043504939
0.0047834341
0.0051190277
0.0053379236
0.0054270446
0.0053810205
0.0052029783
0.0049044953
0.0045045394
0.0040273378
0.0034999827
0.0029525282
0.0024155823
0.0018841725
0.0013216591
0.0024866079
0.0015163148
0.00086058395
0.00038212081
-6.1861493e-06
-0.00031641026
-0.00056139027
-0.00075531513
-0.00090810414
-0.0010253662
-0.0011089848
-0.0011575257
-0.0011667914
-0.001130548
-0.0010413753
-0.00089161491
-0.00067439437
-0.00038469633
-2.0418783e-05
0.00041664484
0.00092000371
0.0014780108
0.0020736403
0.0026849022
0.0032856518
0.0038469909
0.0043391992
0.0047340691
0.0050073996
0.0051413172
0.005126111
0.0049613626
0.0046562273
0.0042286818
0.0037034792
0.003109567
0.002480416
0.0018511537
0.0012132142
0.00051972328
0.0024230569
0.0013428007
0.000619758
9.7188074e-05
-0.00032585013
-0.00066570032
-0.00093886217
-0.0011626599
-0.0013490528
-0.0015047092
-0.0016317576
-0.001728305
-0.001789083
-0.0018062618
-0.0017703881
-0.0016714288
-0.0014999009
-0.0012480618
-0.00091111738
-0.00048839172
1.564738e-05
0.00059076557
0.0012203523
0.001881805
0.002547146
0.0031843646
0.0037593716
0.0042384981
0.0045913556
0.0047937176
0.0048299922
0.0046949212
0.0043943053
0.0039446039
0.0033710836
0.0027052022
0.0019851986
0.0012524718
0.00049596612
-0.00034118267
0.0021597326
0.00097958372
0.00019460805
-0.00036994511
-0.00082789145
-0.0011996704
-0.0015051953
-0.0017646069
-0.0019915943
-0.0021935992
-0.0023727344
-0.0025264107
-0.0026480667
-0.0027280482
-0.0027546111
-0.0027150402
-0.0025968738
-0.0023892115
-0.0020840692
-0.0016777379
-0.0011720557
-0.00057513953
9.7291075e-05
0.00082241148
0.001570514
0.0023062393
0.0029905284
0.0035832543
0.0040464172
0.004347624
0.0044633914
0.0043817361
0.0041036482
0.0036431903
0.0030258706
0.0022860588
0.0014679533
0.00062099604
-0.00026749841
-0.0012646711
0.0016714373
0.00040254709
-0.00043821564
-0.0010420523
-0.0015346344
-0.0019403453
-0.002282299
-0.0025831773
-0.002858139
-0.0031151624
-0.0033561288
-0.0035775541
-0.0037713907
-0.0039259555
-0.004026969
-0.004058717
-0.0040053443
-0.0038522693
-0.003587686
-0.0032040903
-0.0026997638
-0.0020803038
-0.001359229
-0.00055896801
0.00028945274
0.0011473424
0.0019701881
0.0027103935
0.0033208092
0.0037588303
0.0039906434
0.0039950011
0.0037658702
0.0033133958
0.0026626451
0.0018510554
0.00092984809
-4.1705539e-05
-0.0010773037
-0.0022551429
0.00093576991
-0.0004096472
-0.0012994443
-0.0019395172
-0.0024662555
-0.0029078274
-0.0032903499
-0.0036388046
-0.0039696123
-0.0042911142
-0.0046048098
-0.0049061806
-0.0051855492
-0.0054290364
-0.0056196089
-0.0057382497
-0.0057652812
-0.0056818559
-0.0054715936
-0.005122308
-0.004627763
-0.0039895893
-0.0032182627
-0.0023346517
-0.0013702191
-0.00036655456
0.00062619149
0.001552049
0.0023530822
0.0029741595
0.0033682558
0.0035016525
0.0033581971
0.0029416714
0.0022752964
0.0013993319
0.0003729744
-0.00073280448
-0.0019322833
-0.0033159063
-6.6446236e-05
-0.0014751583
-0.002406743
-0.0030797905
-0.0036401178
-0.0041194968
-0.0045468566
-0.0049492671
-0.0053442561
-0.0057404227
-0.0061388122
-0.0065338128
-0.0069140467
-0.0072633298
-0.0075617007
-0.0077865648
-0.0079140072
-0.0079203126
-0.0077837046
-0.0074862741
-0.0070160444
-0.0063691458
-0.0055516278
-0.0045812829
-0.0034886693
-0.0023173138
-0.0011226809
3.0330853e-05
0.0010714403
0.0019304481
0.0025437407
0.0028611806
0.0028524149
0.0025112722
0.0018566563
0.00093068714
-0.00019875007
-0.0014469738
-0.0028284786
-0.0044474566
-0.0013506266
-0.0028085014
-0.0037742317
-0.0044768422
-0.0050701178
-0.0055892227
-0.0060657146
-0.0065285743
-0.0069963381
-0.0074778317
-0.007973658
-0.0084771447
-0.0089752376
-0.0094494264
-0.0098767185
-0.010230721
-0.010482905
-0.010604108
-0.010566327
-0.010344808
-0.0099204002
-0.0092821232
-0.0084296723
-0.0073758421
-0.0061484305
-0.0047913267
-0.0033643165
-0.0019411638
-0.00060566207
0.00055438975
0.0014549854
0.0020247983
0.0022140504
0.0020016557
0.001398331
0.00044598304
-0.00077862701
-0.0021750244
-0.0037575123
-0.00564569
-0.0029278635
-0.0044200889
-0.0054120339
-0.0061406535
-0.0067660793
-0.0073266208
-0.0078562935
-0.0083858554
-0.0089348222
-0.0095122965
-0.010118542
-0.010745956
-0.011379935
-0.011999732
-0.012579323
-0.013088391
-0.013493487
-0.013759485
-0.013851369
-0.013736427
-0.013386853
-0.012782722
-0.011915179
-0.010789627
-0.0094286547
-0.0078742339
-0.0061886667
-0.0044536631
-0.0027669481
-0.0012360426
3.0717204e-05
0.00093529891
0.0014019877
0.0013881617
0.00089069248
-5.2365034e-05
-0.0013561243
-0.0029023738
-0.0047047437
-0.0068998973
-0.0048044147
-0.0063158488
-0.007325919
-0.0080768097
-0.0087332451
-0.0093364022
-0.0099226045
-0.010524313
-0.011162077
-0.011845424
-0.012574482
-0.013340952
-0.014128918
-0.014915595
-0.015672058
-0.016364064
-0.01695307
-0.017397578
-0.017654871
-0.017683255
-0.017444836
-0.016908863
-0.016055561
-0.01488017
-0.013397032
-0.011643136
-0.0096805397
-0.0075968949
-0.0055031773
-0.0035278633
-0.0018071846
-0.000471796
0.00036890051
0.00064220531
0.00032321884
-0.0005596393
-0.0019155938
-0.0036072574
-0.0056471139
-0.008190409
-0.0069813165
-0.0084969862
-0.0095171062
-0.010286261
-0.010971934
-0.011617876
-0.012262611
-0.012940309
-0.01367271
-0.014470029
-0.015332577
-0.016251702
-0.01721052
-0.018184521
-0.019142134
-0.020045337
-0.020850483
-0.021509465
-0.021971352
-0.022184609
-0.02209998
-0.021674115
-0.020873933
-0.019681576
-0.018099642
-0.016156321
-0.013909615
-0.01144981
-0.0088989952
-0.0064064292
-0.0041387864
-0.0022650366
-0.00093688617
-0.00026762329
-0.0003145806
-0.0010676307
-0.0024345936
-0.0042585365
-0.0065505495
-0.009485755
-0.0094541983
-0.01095996
-0.011982296
-0.012765319
-0.013477431
-0.014164677
-0.014867752
-0.01562266
-0.016452621
-0.01736893
-0.018372525
-0.019454867
-0.020598548
-0.02177776
-0.022958647
-0.024099698
-0.025152321
-0.026061783
-0.02676867
-0.027211004
-0.027327161
-0.027059663
-0.026359962
-0.025194231
-0.023549628
-0.021441183
-0.018918052
-0.016068432
-0.013021613
-0.0099455172
-0.0070380417
-0.0045110778
-0.0025673795
-0.0013729738
-0.0010312837
-0.001562789
-0.0028816483
-0.0048129447
-0.0073667738
-0.010739186
-0.012213372
-0.013696747
-0.014713997
-0.015505955
-0.016240177
-0.016964786
-0.017722755
-0.018552225
-0.019478364
-0.020514095
-0.02166157
-0.022912933
-0.024250809
-0.025648597
-0.027070621
-0.02847227
-0.029800325
-0.030993622
-0.031984267
-0.032699582
-0.033064944
-0.033007615
-0.032461761
-0.031375286
-0.029716165
-0.027481746
-0.024706878
-0.021471652
-0.017906733
-0.014194181
-0.010561326
-0.0072654442
-0.0045680918
-0.0027010112
-0.0018302115
-0.002023394
-0.0032132512
-0.0052116119
-0.0080293648
-0.011884397
-0.01524426
-0.016695472
-0.017701218
-0.018496444
-0.019246299
-0.020000878
-0.020805773
-0.021701831
-0.022716879
-0.023866229
-0.025153973
-0.026573624
-0.028108463
-0.02973167
-0.031406257
-0.033084989
-0.034710433
-0.036215353
-0.037523644
-0.038552021
-0.03921268
-0.039417015
-0.03908064
-0.038131792
-0.036515683
-0.034207825
-0.03122314
-0.027626724
-0.023543054
-0.01916119
-0.014732872
-0.010559914
-0.0069679893
-0.0042669892
-0.0027040824
-0.0024153459
-0.0033698565
-0.0053756986
-0.008448912
-0.012830315
-0.018528217
-0.019941477
-0.020930607
-0.021722439
-0.022478512
-0.023251023
-0.024088868
-0.025036566
-0.026125664
-0.027374874
-0.028791137
-0.030370109
-0.032096396
-0.033943526
-0.035873722
-0.037837593
-0.039773955
-0.041609956
-0.043261727
-0.044635779
-0.045631396
-0.046144321
-0.04607194
-0.045318497
-0.043807423
-0.041488179
-0.038350364
-0.034436994
-0.029857642
-0.024798882
-0.019528287
-0.014387066
-0.0097662317
-0.0060638005
-0.0036272144
-0.0026861684
-0.0032705703
-0.0052009357
-0.0085071147
-0.01345482
-0.022043809
-0.023418903
-0.024388099
-0.025168493
-0.025917423
-0.026689714
-0.027538802
-0.02851441
-0.02965333
-0.030979025
-0.032502385
-0.03422207
-0.036124662
-0.038184548
-0.040363584
-0.042610622
-0.044861133
-0.047037106
-0.049047434
-0.05078903
-0.052148899
-0.053007497
-0.053243555
-0.052740212
-0.051395093
-0.049129911
-0.045904986
-0.041734842
-0.03670523
-0.030989214
-0.024858408
-0.018683476
-0.012916418
-0.0080486058
-0.0045450354
-0.0027568911
-0.0028062597
-0.0045508597
-0.0080496492
-0.013597278
-0.025768624
-0.027112907
-0.028061175
-0.028820091
-0.029543196
-0.030289168
-0.031118047
-0.032087093
-0.033240493
-0.034608212
-0.036206397
-0.038037617
-0.040091009
-0.042342184
-0.044752859
-0.047270335
-0.049826982
-0.052339968
-0.054711434
-0.056829345
-0.058569264
-0.059797317
-0.060374603
-0.060163289
-0.059036103
-0.056885811
-0.053640913
-0.04928252
-0.04386459
-0.037535393
-0.03055666
-0.02331413
-0.016310013
-0.010127329
-0.0053610307
-0.0025116399
-0.0018308475
-0.0032485238
-0.0068776051
-0.013049761
-0.029681762
-0.0310127
-0.03194186
-0.032666227
-0.033337572
-0.034020802
-0.03478589
-0.035701072
-0.036820858
-0.038183927
-0.039813171
-0.041715948
-0.043884363
-0.046295351
-0.048910432
-0.051675239
-0.054518993
-0.057354137
-0.060076355
-0.062565209
-0.064685633
-0.066290538
-0.067224775
-0.067330824
-0.066457551
-0.064469638
-0.061262998
-0.056782517
-0.05104443
-0.044162221
-0.036373416
-0.028061394
-0.019761646
-0.012138717
-0.0059218688
-0.0017850333
-0.00015062973
-0.0010664521
-0.0047372238
-0.011546753
-0.033767261
-0.035115726
-0.036030689
-0.036702595
-0.037286137
-0.037856735
-0.038499458
-0.039298429
-0.040322347
-0.041621263
-0.043226397
-0.045150604
-0.04738906
-0.049919735
-0.052703464
-0.055683677
-0.058785989
-0.061917842
-0.06496844
-0.067809213
-0.070295101
-0.072266802
-0.073554401
-0.073982655
-0.073377346
-0.071577905
-0.068448504
-0.06389732
-0.057899744
-0.05052721
-0.04198039
-0.032622103
-0.022999684
-0.013840596
-0.0060022392
-0.00034793667
0.0024884224
0.0022854502
-0.0013075079
-0.0087529734
-0.038018975
-0.039433548
-0.040342029
-0.040935509
-0.041380782
-0.04177112
-0.042214447
-0.042817536
-0.043668136
-0.04483066
-0.046346103
-0.048233142
-0.050489598
-0.053093623
-0.05600432
-0.059161853
-0.062487284
-0.065882319
-0.069229237
-0.072391219
-0.075213493
-0.077525257
-0.079142882
-0.079874641
-0.079527058
-0.077915011
-0.074873691
-0.070276344
-0.064057383
-0.056242589
-0.04698667
-0.036615645
-0.025665649
-0.014901694
-0.0052917931
0.0021073045
0.0064151858
0.0071744308
0.0038150552
-0.0042485272
-0.042447902
-0.044000472
-0.0449114
-0.045386766
-0.045622248
-0.045741092
-0.045885341
-0.046193311
-0.046777515
-0.047719686
-0.049071525
-0.050857109
-0.053075675
-0.055703925
-0.058697491
-0.061991596
-0.065501259
-0.069121222
-0.072725955
-0.076169809
-0.07928815
-0.081898921
-0.083805501
-0.084800957
-0.084674042
-0.083217856
-0.080241435
-0.075586092
-0.069147576
-0.060906121
-0.050965989
-0.039604519
-0.027325472
-0.014902717
-0.0033874298
0.0059802224
0.012049324
0.014062493
0.011136046
0.0024903231
-0.047093967
-0.048886675
-0.049805807
-0.050099737
-0.050022654
-0.049747118
-0.049464966
-0.049357022
-0.049566576
-0.050194911
-0.051304205
-0.052922259
-0.055047328
-0.057652041
-0.060686018
-0.06407719
-0.067732505
-0.071538019
-0.075359405
-0.079040665
-0.082407006
-0.085264818
-0.087404587
-0.088604785
-0.088637566
-0.087275938
-0.084305469
-0.079538866
-0.072836823
-0.064136881
-0.053492818
-0.041127
-0.027494518
-0.013350308
0.00020499474
0.011771206
0.01991771
0.023528044
0.021289482
0.012118437
-0.052046168
-0.054218998
-0.055138731
-0.055147097
-0.054607853
-0.053772517
-0.052903259
-0.052235673
-0.051948878
-0.052164015
-0.052951387
-0.054338939
-0.056319981
-0.058859215
-0.061897029
-0.065350752
-0.069116915
-0.07307067
-0.077068787
-0.080941056
-0.0845031
-0.087548866
-0.089855432
-0.091186517
-0.091298679
-0.089944512
-0.086888105
-0.081916231
-0.074857871
-0.065611698
-0.054183773
-0.040740158
-0.025677136
-0.0097073426
0.006054441
0.020081415
0.030669244
0.036292899
0.035075469
0.025464836
-0.057478839
-0.060214844
-0.061092079
-0.060640478
-0.059419216
-0.057801778
-0.056145154
-0.054751052
-0.053836221
-0.053538185
-0.053929652
-0.055032463
-0.05682907
-0.059270955
-0.062285979
-0.065775807
-0.069624977
-0.073695779
-0.077830437
-0.081849575
-0.085554291
-0.08872557
-0.091126589
-0.092505791
-0.092601756
-0.091149331
-0.087890138
-0.082585414
-0.07503428
-0.065099192
-0.052741286
-0.038071238
-0.021420969
-0.0034428872
0.014767694
0.031596534
0.045083769
0.053255655
0.053516025
0.043606796
-0.063719669
-0.067238422
-0.067948041
-0.066741698
-0.064513686
-0.061816755
-0.059127012
-0.0568181
-0.055139196
-0.054234405
-0.05416824
-0.054946837
-0.056533818
-0.058861298
-0.061837182
-0.065347689
-0.069260034
-0.07342172
-0.077660554
-0.081784046
-0.085579297
-0.088813301
-0.091234363
-0.092574689
-0.092554636
-0.090888968
-0.087295975
-0.081510334
-0.073300144
-0.062490851
-0.048998398
-0.032876593
-0.014387173
0.0058940938
0.026923676
0.047044088
0.064066812
0.075530504
0.077938711
0.068004602
-0.071381843
-0.075894545
-0.076133423
-0.073673282
-0.069959176
-0.065788344
-0.061769765
-0.058341027
-0.055766003
-0.054176078
-0.053610541
-0.054046439
-0.055417647
-0.057629742
-0.06056625
-0.064092531
-0.068056921
-0.072290306
-0.076605212
-0.080794682
-0.084631575
-0.087868363
-0.090237911
-0.091455487
-0.091222408
-0.089231643
-0.085175957
-0.078760571
-0.069718332
-0.057832274
-0.042966196
-0.025108756
-0.0044397834
0.018569481
0.042964189
0.067104373
0.088610137
0.10448263
0.1101042
0.10076008
-0.081632462
-0.087182681
-0.086271209
-0.081717259
-0.075815575
-0.069655731
-0.063962143
-0.059201434
-0.055614509
-0.053287678
-0.052210333
-0.052311828
-0.053485108
-0.055600386
-0.058511985
-0.062060972
-0.066075227
-0.070368065
-0.074736379
-0.078958752
-0.082794015
-0.085980373
-0.088235485
-0.089257745
-0.088729142
-0.086319818
-0.081694626
-0.074525613
-0.064503745
-0.051359582
-0.034890276
-0.014998423
0.0082480758
0.034514757
0.063012898
0.092225412
0.1196594
0.14172199
0.15240394
0.14512416
-0.096760818
-0.10273913
-0.099198897
-0.091156215
-0.082063475
-0.07326243
-0.065508783
-0.059217966
-0.054541152
-0.051470362
-0.049911159
-0.049723958
-0.050746795
-0.052806963
-0.055725464
-0.059317253
-0.063389324
-0.067737787
-0.072144772
-0.076375561
-0.080176281
-0.083272287
-0.085367459
-0.086144625
-0.085267534
-0.082383724
-0.077129196
-0.069139473
-0.058056537
-0.043545643
-0.025316085
-0.0031516093
0.023040709
0.053141137
0.0866332
0.12228285
0.1577807
0.18895151
0.20809772
0.20632756
-0.12134037
-0.12518801
-0.11587377
-0.10208188
-0.088418001
-0.076198976
-0.066006437
-0.05805291
-0.052292002
-0.048550934
-0.046609092
-0.046233729
-0.047195511
-0.049273434
-0.052253755
-0.055926057
-0.060078284
-0.064491699
-0.068936251
-0.073166611
-0.076918982
-0.079908732
-0.081828897
-0.082349696
-0.08111963
-0.077765329
-0.071896737
-0.063111181
-0.050996993
-0.035142578
-0.015146162
0.0093688156
0.03872526
0.073129533
0.11251963
0.15626245
0.20263073
0.24752299
0.2813008
0.2923564
-0.16445781
-0.15843355
-0.13714904
-0.11415812
-0.09410797
-0.077631868
-0.064738545
-0.055162463
-0.048490592
-0.04429226
-0.04217358
-0.041788165
-0.042833218
-0.045040473
-0.048165575
-0.051977907
-0.05625164
-0.060758194
-0.065260015
-0.069505564
-0.073225401
-0.076129196
-0.077903634
-0.078211387
-0.076691373
-0.072948632
-0.066578535
-0.057141437
-0.044173136
-0.027181118
-0.0056367778
0.02103458
0.053463922
0.092331428
0.13829608
0.19182672
0.25266784
0.31751125
0.3762684
0.41537057
-0.24629467
-0.20631872
-0.16213102
-0.12552966
-0.097144426
-0.075878942
-0.060488324
-0.049753119
-0.042661031
-0.038436999
-0.036491141
-0.036366191
-0.037698166
-0.040185979
-0.043568086
-0.047605072
-0.05206677
-0.056722565
-0.061334015
-0.065649168
-0.069398201
-0.072290137
-0.074010508
-0.074220728
-0.072559395
-0.068606415
-0.061962513
-0.052156686
-0.038683688
-0.020981872
0.001595508
0.029825095
0.064686287
0.10746483
0.15987108
0.22417786
0.30290552
0.39553225
0.49624348
0.60321237
-0.42543944
-0.26573081
-0.17722204
-0.12463666
-0.089117285
-0.065103416
-0.049324624
-0.039186101
-0.032984495
-0.029674889
-0.028571534
-0.029187583
-0.031157659
-0.034190739
-0.038038457
-0.04247418
-0.047279023
-0.052232054
-0.057103113
-0.061647418
-0.065601461
-0.06867984
-0.07057252
-0.070941402
-0.069408689
-0.065630561
-0.059133109
-0.049453554
-0.036075465
-0.018403882
0.0042712196
0.032847192
0.068542672
0.11314213
0.16943673
0.2420173
0.33806619
0.46591595
0.64305476
0.92086234
-0.79331339
-0.32444262
-0.14899787
-0.087725838
-0.055346243
-0.03599994
-0.025091973
-0.019201423
-0.016355953
-0.01561953
-0.016494768
-0.018654584
-0.021853706
-0.025889075
-0.030576094
-0.035734493
-0.041179714
-0.046716964
-0.052136676
-0.057210864
-0.061690189
-0.065301585
-0.067746589
-0.068701619
-0.067825214
-0.06470865
-0.058942461
-0.050073108
-0.037594031
-0.020927778
0.00061009421
0.02788081
0.062058526
0.10491314
0.15945111
0.23152778
0.33385125
0.49409201
0.79001617
1.3837781
1.1489258e-05
-0.00013137345
-0.00044356507
-0.00084612354
-0.0012645278
-0.0016533295
-0.0019816733
-0.0022307378
-0.0023898928
-0.0024534373
-0.0024184337
-0.0022834261
-0.002047844
-0.0017119309
-0.0012770441
-0.00074619241
-0.00012468747
0.00057920338
0.0013537027
0.0021831569
0.0030479381
0.0039246844
0.0047869092
0.0056060164
0.0063526761
0.0069985049
0.0075179439
0.0078901948
0.0081010543
0.0081444769
0.0080237026
0.0077518407
0.0073518903
0.0068562831
0.0063058707
0.0057482004
0.0052383169
0.0048325257
0.0045925277
0.0045540253
0.000153427
8.1588137e-06
-0.00024199461
-0.00055085198
-0.00087300977
-0.0011741593
-0.0014300728
-0.0016245802
-0.0017473225
-0.0017918567
-0.0017542423
-0.0016321153
-0.0014242208
-0.0011303264
-0.00075142276
-0.00029011493
0.00024888815
0.00085827611
0.0015277149
0.0022435722
0.0029888507
0.0037435254
0.0044848959
0.005188611
0.0058298217
0.0063846341
0.006831729
0.0071540111
0.0073401475
0.0073858528
0.0072947901
0.0070789807
0.0067586562
0.0063615822
0.0059219397
0.0054786968
0.0050730146
0.0047482676
0.0045496697
0.0045145606
0.00047169538
0.00025359992
-2.1920502e-06
-0.00028128994
-0.00056160409
-0.00081857995
-0.0010344473
-0.0011971575
-0.0012985051
-0.0013329706
-0.0012968364
-0.001187571
-0.0010035347
-0.00074397291
-0.00040923185
-1.1276366e-06
0.00047660376
0.0010178469
0.0016137093
0.0022522586
0.0029184905
0.0035944523
0.0042597856
0.0048924941
0.0054700357
0.0059706749
0.0063750009
0.0066674831
0.0068379066
0.0068825383
0.0068048994
0.0066160581
0.006334377
0.0059846983
0.0055970307
0.0052048017
0.0048425616
0.0045445031
0.0043469973
0.0042799029
0.00089331851
0.00056163326
0.00026112888
-2.4679018e-05
-0.00029537339
-0.00053456963
-0.00073073153
-0.00087665782
-0.00096727575
-0.00099889031
-0.0009686891
-0.00087438614
-0.00071411011
-0.00048652292
-0.00019111651
0.00017136699
0.00059844914
0.0010854221
0.0016249115
0.0022065683
0.0028169603
0.0034396388
0.0040556424
0.004644185
0.0051837058
0.0056531834
0.0060336392
0.0063097043
0.0064710831
0.0065137297
0.0064405841
0.0062617747
0.0059942593
0.0056609053
0.0052890391
0.0049085891
0.0045501988
0.00424373
0.0040157267
0.0038801515
0.0013441722
0.00088381529
0.00052102575
0.00021074948
-6.7042012e-05
-0.00030312678
-0.00049187195
-0.00063103277
-0.00071894855
-0.00075405335
-0.00073468551
-0.00065894373
-0.00052474482
-0.00033007826
-7.3410806e-05
0.00024580469
0.00062656485
0.001065748
0.0015575996
0.0020933348
0.0026609285
0.0032451487
0.003827916
0.0043889873
0.0049069829
0.0053607069
0.0057306805
0.0060007666
0.0061597213
0.0062024705
0.0061309108
0.0059540962
0.0056877779
0.0053533523
0.0049762708
0.0045841222
0.0042052027
0.0038666943
0.0035841095
0.0033602684
0.0017711129
0.0011770163
0.00074287199
0.00039689942
0.00010024402
-0.00014406657
-0.00033578279
-0.00047737981
-0.00057054093
-0.00061584024
-0.00061278952
-0.00055986387
-0.00045470763
-0.00029452153
-7.658475e-05
0.0002011273
0.0005392719
0.0009364647
0.0013886574
0.0018886297
0.0024256642
0.0029854873
0.0035505186
0.0041005164
0.0046135944
0.0050675844
0.0054416512
0.005718021
0.0058836604
0.0059317026
0.0058624033
0.0056834293
0.0054093903
0.0050606634
0.0046616099
0.0042385732
0.0038190037
0.0034295326
0.0030771829
0.0027494978
0.0021289092
0.0014026954
0.0008937654
0.00050563701
0.00018225616
-7.874105e-05
-0.00028194561
-0.00043416731
-0.0005401792
-0.00060252273
-0.00062174938
-0.00059658578
-0.00052426893
-0.00040105714
-0.00022286862
1.3985495e-05
0.00031201003
0.00067172387
0.0010909053
0.0015639498
0.0020814142
0.0026298417
0.0031918926
0.0037469272
0.0042719945
0.0047432423
0.0051376495
0.005434921
0.0056193537
0.0056814599
0.0056191318
0.0054381313
0.0051517561
0.00477965
0.0043458236
0.0038764761
0.0033996405
0.0029431764
0.0025072449
0.0020651552
0.0023789867
0.0015260952
0.00094280917
0.00050976101
0.00015504778
-0.00012852393
-0.0003499127
-0.00051984045
-0.00064582839
-0.00073210847
-0.00078003833
-0.00078838913
-0.00075379577
-0.00067138128
-0.00053550607
-0.00034061313
-8.2140038e-05
0.00024254459
0.00063323788
0.0010861029
0.0015930554
0.0021414572
0.0027140968
0.0032896951
0.0038438319
0.004350376
0.0047833318
0.0051189448
0.00533784
0.0054269364
0.0053808906
0.0052028577
0.0049044039
0.0045044576
0.0040272366
0.0034998502
0.0029523341
0.0024154583
0.001884438
0.001321181
0.0024875351
0.0015155202
0.0008606985
0.00038238732
-6.0609644e-06
-0.00031630056
-0.00056127202
-0.00075520388
-0.00090800248
-0.001025273
-0.0011089007
-0.0011574526
-0.0011667323
-0.0011305048
-0.0010413474
-0.00089159976
-0.00067439082
-0.00038470712
-2.0449168e-05
0.00041659226
0.00091993366
0.0014779324
0.0020735606
0.0026848173
0.0032855501
0.0038468683
0.0043390695
0.0047339554
0.0050073095
0.0051412303
0.0051260007
0.00496123
0.0046561015
0.0042285816
0.003703393
0.0031094537
0.0024802052
0.0018510194
0.0012135784
0.0005191521
0.0024240804
0.0013418895
0.00061986673
9.7468182e-05
-0.00032572654
-0.00066559074
-0.00093873951
-0.0011625425
-0.0013489448
-0.0015046099
-0.0016316669
-0.001728223
-0.0017890119
-0.0018062053
-0.0017703491
-0.0016714069
-0.0014998928
-0.0012480651
-0.00091113434
-0.00048842837
1.5587149e-05
0.00059068348
0.0012202608
0.0018817145
0.0025470542
0.0031842582
0.0037592428
0.0042383595
0.0045912326
0.00479362
0.0048299004
0.0046948087
0.0043941724
0.0039444785
0.0033709875
0.0027050994
0.0019849816
0.0012523374
0.00049643605
-0.00034185642
0.0021608451
0.00097856907
0.00019471516
-0.00036964875
-0.00082776658
-0.0011995599
-0.0015050679
-0.0017644822
-0.0019914776
-0.0021934911
-0.0023726355
-0.0025263208
-0.0026479856
-0.002727978
-0.0027545562
-0.0027150044
-0.0025968574
-0.0023892107
-0.00208408
-0.0016777606
-0.0011720958
-0.00057520856
9.7197065e-05
0.00082230636
0.0015704114
0.0023061391
0.0029904166
0.0035831207
0.004046273
0.0043474946
0.004463287
0.004381638
0.0041035321
0.0036430608
0.0030257603
0.00228595
0.0014677226
0.00062086723
-0.00026690616
-0.0012654583
0.0016726309
0.0004014418
-0.0004381081
-0.0010417382
-0.0015345047
-0.0019402312
-0.0022821662
-0.0025830455
-0.0028580128
-0.0031150428
-0.0033560182
-0.0035774539
-0.0037713003
-0.0039258742
-0.0040268986
-0.0040586624
-0.0040053106
-0.0038522577
-0.0035876923
-0.0032041091
-0.0026997958
-0.0020803534
-0.0013593065
-0.00055907296
0.00028933437
0.001147227
0.0019700781
0.0027102753
0.0033206717
0.0037586838
0.0039905114
0.0039948916
0.003765765
0.0033132795
0.002662536
0.0018509382
0.00092959072
-4.1833178e-05
-0.0010765711
-0.0022560568
0.00093703608
-0.00041082864
-0.0012993353
-0.0019391863
-0.0024661186
-0.0029077065
-0.0032902094
-0.003638665
-0.0039694772
-0.0042909832
-0.0046046853
-0.0049060661
-0.0051854463
-0.0054289444
-0.0056195268
-0.0057381785
-0.0057652262
-0.0056818233
-0.005471586
-0.0051223218
-0.0046277923
-0.003989628
-0.0032183194
-0.0023347372
-0.0013703343
-0.00036668513
0.00062606365
0.0015519284
0.002352957
0.0029740197
0.0033681108
0.0035015215
0.0033580832
0.0029415637
0.0022752007
0.0013992165
0.00037268556
-0.00073293751
-0.0019313924
-0.0033169664
-6.5117798e-05
-0.0014763996
-0.0024066309
-0.0030794448
-0.0036399734
-0.0041193672
-0.0045467058
-0.0049491176
-0.0053441116
-0.0057402815
-0.0061386751
-0.0065336826
-0.006913927
-0.0072632231
-0.0075616066
-0.0077864816
-0.0079139354
-0.007920257
-0.0077836727
-0.0074862703
-0.0070160656
-0.0063691822
-0.0055516757
-0.0045813487
-0.003488764
-0.0023174388
-0.0011228223
3.0191878e-05
0.0010713099
0.0019303169
0.0025436014
0.0028610408
0.0028522862
0.0025111598
0.0018565713
0.00093058088
-0.00019906861
-0.0014471134
-0.0028274072
-0.0044486893
-0.0013492488
-0.0028097855
-0.0037741139
-0.0044764827
-0.0050699661
-0.0055890845
-0.0060655525
-0.0065284124
-0.0069961819
-0.0074776798
-0.0079735099
-0.0084770011
-0.0089751011
-0.0094493012
-0.0098766077
-0.010230625
-0.010482821
-0.010604036
-0.010566272
-0.010344777
-0.0099204006
-0.0092821512
-0.008429719
-0.0073759018
-0.0061485082
-0.0047914325
-0.0033644517
-0.0019413147
-0.00060581008
0.00055425179
0.0014548517
0.0020246635
0.0022139171
0.002001536
0.0013982498
0.00044588441
-0.00077897656
-0.0021751683
-0.0037562305
-0.0056471257
-0.0029264509
-0.0044214
-0.0054119083
-0.0061402806
-0.0067659195
-0.0073264744
-0.0078561209
-0.0083856809