/*--------------------------------*- C++ -*----------------------------------*\
  =========                 |
  \\      /  F ield         | OpenFOAM: The Open Source CFD Toolbox
   \\    /   O peration     | Website:  https://openfoam.org
    \\  /    A nd           | Version:  7
     \\/     M anipulation  |
\*---------------------------------------------------------------------------*/
FoamFile
{
    version     2.0;
    format      ascii;
    class       surfaceScalarField;
    location    "46";
    object      phi;
}
// * * * * * * * * * * * * * * * * * * * * * * * * * * * * * * * * * * * * * //

dimensions      [0 3 -1 0 0 0 0];

internalField   nonuniform List<scalar> 
45600
(
2.7522063e-07
-2.8218826e-07
-7.8157626e-11
4.0335981e-07
-1.2811463e-07
-2.4563413e-11
1.3257589e-07
2.7079059e-07
-6.5768566e-12
-5.6229908e-07
6.9487666e-07
-1.3844589e-12
-1.6393045e-06
1.0770022e-06
3.6888983e-12
-3.0276173e-06
1.3883062e-06
7.1353954e-12
-4.6524615e-06
1.6248354e-06
9.3912108e-12
-6.445095e-06
1.7926235e-06
1.0990499e-11
-8.3454223e-06
1.9003163e-06
1.2142139e-11
-1.0301442e-05
1.9560079e-06
1.2913905e-11
-1.2267401e-05
1.9659471e-06
1.3339538e-11
-1.420158e-05
1.9341668e-06
1.345292e-11
-1.6064238e-05
1.8626448e-06
1.3286336e-11
-1.7816026e-05
1.7517762e-06
1.2856868e-11
-1.9417054e-05
1.6010155e-06
1.2159085e-11
-2.0826659e-05
1.4095935e-06
1.1164106e-11
-2.2003908e-05
1.177239e-06
9.829024e-12
-2.2908771e-05
9.0485257e-07
8.1279762e-12
-2.350387e-05
5.9509139e-07
6.0936137e-12
-2.3756704e-05
2.5282839e-07
3.8105079e-12
-2.3642144e-05
-1.1456222e-07
1.3692112e-12
-2.3145013e-05
-4.9712941e-07
-1.2033596e-12
-2.226258e-05
-8.824301e-07
-3.9224065e-12
-2.1006623e-05
-1.2559517e-06
-6.7427189e-12
-1.9404868e-05
-1.6017465e-06
-9.4703767e-12
-1.7501561e-05
-1.9032961e-06
-1.1798351e-11
-1.5356975e-05
-2.1445711e-06
-1.3486747e-11
-1.3045758e-05
-2.3111995e-06
-1.4541482e-11
-1.0654099e-05
-2.3916435e-06
-1.5165565e-11
-8.2758116e-06
-2.3782738e-06
-1.5440582e-11
-6.0075645e-06
-2.2682346e-06
-1.5055899e-11
-3.9435334e-06
-2.0640168e-06
-1.3498679e-11
-2.169788e-06
-1.7737298e-06
-1.0659417e-11
-7.5853734e-07
-1.411239e-06
-7.1821221e-12
2.3821991e-07
-9.9675479e-07
-4.0950549e-12
7.965534e-07
-5.5833922e-07
-2.0139205e-12
9.2927016e-07
-1.3272171e-07
6.4446617e-13
7.0556789e-07
2.2370236e-07
5.2757675e-12
2.9045587e-07
4.1511563e-07
1.0863696e-11
2.9046185e-07
5.0747297e-12
1.3291525e-07
-4.1508151e-07
-2.1965789e-11
-3.0165554e-07
3.0647034e-07
-1.3887533e-11
-1.6153788e-06
1.5845265e-06
-1.2177547e-11
-3.8746911e-06
2.9542026e-06
-1.2991605e-11
-7.00733e-06
4.2096565e-06
-1.418172e-11
-1.0879743e-05
5.2607364e-06
-1.5728955e-11
-1.5335158e-05
6.0802701e-06
-1.7183216e-11
-2.0215998e-05
6.6734829e-06
-1.8248814e-11
-2.5374057e-05
7.0583964e-06
-1.8842459e-11
-3.0673271e-05
7.2552421e-06
-1.8963364e-11
-3.5988538e-05
7.2812352e-06
-1.8654454e-11
-4.1202826e-05
7.1484742e-06
-1.7965381e-11
-4.620397e-05
6.863806e-06
-1.692199e-11
-5.0882099e-05
6.4299199e-06
-1.5521683e-11
-5.5128231e-05
5.8471608e-06
-1.3742402e-11
-5.8834319e-05
5.1156913e-06
-1.156381e-11
-6.1894804e-05
4.2377313e-06
-9.0024449e-12
-6.4209611e-05
3.2196639e-06
-6.1349251e-12
-6.5688361e-05
2.0738426e-06
-3.0514227e-12
-6.6255472e-05
8.1993585e-07
1.906222e-13
-6.5855987e-05
-5.1405338e-07
3.6031688e-12
-6.4460812e-05
-1.8923129e-06
7.2324363e-12
-6.2072481e-05
-3.2707723e-06
1.0907991e-11
-5.8729092e-05
-4.5993538e-06
1.4354001e-11
-5.4507078e-05
-5.8237766e-06
1.7278988e-11
-4.9521906e-05
-6.8884883e-06
1.9579165e-11
-4.3926398e-05
-7.7401032e-06
2.1401028e-11
-3.7906451e-05
-8.3311697e-06
2.291153e-11
-3.1674144e-05
-8.6239717e-06
2.3945871e-11
-2.5458399e-05
-8.5940367e-06
2.396686e-11
-1.9493609e-05
-8.2330452e-06
2.2562378e-11
-1.4006717e-05
-7.550933e-06
2.0049829e-11
-9.2032878e-06
-6.5771826e-06
1.7377784e-11
-5.2529028e-06
-5.3616389e-06
1.5160809e-11
-2.2739831e-06
-3.9756783e-06
1.28569e-11
-3.1727388e-07
-2.5150489e-06
9.263428e-12
6.5705476e-07
-1.1070601e-06
3.9411161e-12
8.03668e-07
7.7070507e-08
1.0031278e-12
4.1783429e-07
8.0093051e-07
2.7481739e-12
7.0830482e-07
-1.9576499e-12
-2.7357208e-07
-1.414971e-07
-1.2282373e-11
-1.6274618e-06
1.6603675e-06
-7.0317154e-12
-4.2893825e-06
4.2464561e-06
-8.385506e-12
-8.2746582e-06
6.9394858e-06
-7.0263946e-12
-1.3474402e-05
9.4094059e-06
-5.0853893e-12
-1.9708708e-05
1.1495048e-05
-4.0053019e-12
-2.676574e-05
1.3137307e-05
-3.3035196e-12
-3.4426608e-05
1.4334355e-05
-2.7494052e-12
-4.2478624e-05
1.5110416e-05
-2.3029745e-12
-5.0720445e-05
1.5497066e-05
-1.895385e-12
-5.8962291e-05
1.5523083e-05
-1.4757793e-12
-6.7023687e-05
1.5209872e-05
-1.0395173e-12
-7.4730529e-05
1.457065e-05
-6.064605e-13
-8.1912717e-05
1.3612109e-05
-1.9872993e-13
-8.8403147e-05
1.2337589e-05
1.7739682e-13
-9.4038476e-05
1.0751019e-05
5.4977358e-13
-9.8661797e-05
8.8610497e-06
9.630753e-13
-0.0001021271
6.6849614e-06
1.4204656e-12
-0.00010430523
4.2519715e-06
1.8469583e-12
-0.00010509101
1.6057105e-06
2.1339925e-12
-0.00010441064
-1.1944192e-06
2.2592732e-12
-0.00010222946
-4.0735006e-06
2.3227377e-12
-9.8558523e-05
-6.9417121e-06
2.4776349e-12
-9.3460007e-05
-9.6978717e-06
2.7713881e-12
-8.7050397e-05
-1.2233388e-05
3.0287431e-12
-7.9501001e-05
-1.4437885e-05
2.9777639e-12
-7.1035284e-05
-1.6205823e-05
2.5680058e-12
-6.1922727e-05
-1.7443731e-05
2.1538725e-12
-5.2469149e-05
-1.8077553e-05
2.2230058e-12
-4.300368e-05
-1.8059506e-05
2.8129987e-12
-3.3862824e-05
-1.73739e-05
3.2859957e-12
-2.5372228e-05
-1.6041529e-05
2.9536557e-12
-1.7826885e-05
-1.4122531e-05
2.0402208e-12
-1.1470407e-05
-1.1718124e-05
1.741066e-12
-6.4738652e-06
-8.9722231e-06
2.8788798e-12
-2.9140446e-06
-6.0748656e-06
4.5392295e-12
-7.5122695e-07
-3.269872e-06
4.6753124e-12
1.9435084e-07
-8.6850719e-07
3.6388645e-12
2.6548897e-07
7.2977786e-07
4.1968741e-12
9.7379503e-07
5.4822611e-13
-7.4584066e-07
6.0435622e-07
-1.2603136e-11
-3.1796249e-06
4.0941532e-06
-1.1266093e-12
-7.3460932e-06
8.4129314e-06
-6.5809639e-12
-1.3163048e-05
1.2756447e-05
-5.9751127e-12
-2.0455814e-05
1.6702176e-05
-3.4035816e-12
-2.8992634e-05
2.0031871e-05
-2.0869467e-12
-3.8513879e-05
2.2658554e-05
-1.191454e-12
-4.8752681e-05
2.4573158e-05
-3.8972985e-13
-5.9446988e-05
2.5804724e-05
2.4359173e-13
-7.0344841e-05
2.6394919e-05
7.3186906e-13
-8.1205136e-05
2.6383378e-05
1.1414954e-12
-9.179599e-05
2.5800725e-05
1.5128289e-12
-0.00010189242
2.466708e-05
1.8555355e-12
-0.00011127464
2.2994326e-05
2.1504733e-12
-0.00011972779
2.0790739e-05
2.3563163e-12
-0.00012704362
1.8066843e-05
2.4462723e-12
-0.00013302417
1.4841597e-05
2.4493672e-12
-0.00013748743
1.1148215e-05
2.4349763e-12
-0.00014027452
7.0390669e-06
2.433521e-12
-0.00014125806
2.589247e-06
2.3794464e-12
-0.00014035078
-2.1017007e-06
2.1590106e-12
-0.00013751439
-6.9098914e-06
1.6857458e-12
-0.00013276703
-1.1689076e-05
1.0858612e-12
-0.00012618931
-1.6275589e-05
6.1310343e-13
-0.00011792789
-2.049481e-05
4.186982e-13
-0.00010819592
-2.4169859e-05
3.4575256e-13
-9.7269878e-05
-2.7131859e-05
2.9024925e-14
-8.5482416e-05
-2.9231192e-05
-6.7519032e-13
-7.3210953e-05
-3.0349018e-05
-1.3531514e-12
-6.0862271e-05
-3.0408189e-05
-1.3137703e-12
-4.8853457e-05
-2.9382713e-05
-3.876069e-13
-3.7589905e-05
-2.7305074e-05
6.5356873e-13
-2.7441313e-05
-2.4271119e-05
8.325064e-13
-1.8716689e-05
-2.044275e-05
2.7157237e-13
-1.1639458e-05
-1.6049464e-05
3.2440447e-13
-6.3235757e-06
-1.1390756e-05
1.9718041e-12
-2.7515398e-06
-6.8419089e-06
4.2711249e-12
-7.5715366e-07
-2.8628919e-06
5.131449e-12
-9.5282412e-09
-1.7855956e-08
4.4521935e-12
9.6426321e-07
3.3854643e-12
-1.227965e-06
1.8323355e-06
-1.4182037e-11
-4.7881057e-06
7.6542893e-06
4.7888758e-12
-1.0521537e-05
1.4146369e-05
-5.7587557e-12
-1.8214328e-05
2.0449245e-05
-6.8598496e-12
-2.7603933e-05
2.6091785e-05
-4.5109728e-12
-3.8396293e-05
3.0824236e-05
-3.8266407e-12
-5.0283052e-05
3.4545316e-05
-3.5028908e-12
-6.2954781e-05
3.7244891e-05
-3.024764e-12
-7.6109037e-05
3.8958983e-05
-2.5527998e-12
-8.9453774e-05
3.9739659e-05
-2.1398142e-12
-0.00010270747
3.963708e-05
-1.759723e-12
-0.00011559753
3.8690786e-05
-1.3836123e-12
-0.00012785835
3.6927894e-05
-9.8233222e-13
-0.0001392302
3.4366181e-05
-5.3410405e-13
-0.00014945975
3.1020289e-05
-5.5426383e-14
-0.00015830248
2.6909571e-05
3.9319067e-13
-0.00016552724
2.2066361e-05
7.5937846e-13
-0.00017092275
1.6543722e-05
1.0638847e-12
-0.00017430559
1.0421912e-05
1.3952158e-12
-0.00017552936
3.813008e-06
1.8181167e-12
-0.00017449413
-3.1369277e-06
2.2765237e-12
-0.00017115589
-1.0248135e-05
2.58872e-12
-0.0001655348
-1.7310159e-05
2.6158435e-12
-0.00015772191
-2.4088491e-05
2.437295e-12
-0.0001478832
-3.0333519e-05
2.3538631e-12
-0.0001362606
-3.579246e-05
2.609755e-12
-0.00012316897
-4.0223496e-05
3.0577811e-12
-0.00010898872
-4.3411435e-05
3.19493e-12
-9.4153804e-05
-4.5183937e-05
2.702633e-12
-7.9134856e-05
-4.5427142e-05
1.9767629e-12
-6.4418067e-05
-4.4099508e-05
1.892727e-12
-5.048037e-05
-4.1242773e-05
2.7925484e-12
-3.776214e-05
-3.6989345e-05
3.8321018e-12
-2.6638821e-05
-3.1566066e-05
3.7999351e-12
-1.739317e-05
-2.5295118e-05
2.7045157e-12
-1.0189918e-05
-1.8594018e-05
2.1982054e-12
-5.0547403e-06
-1.1977095e-05
3.626853e-12
-1.8598347e-06
-6.0577981e-06
4.3550142e-12
-3.2223068e-07
-1.5554566e-06
1.0107945e-12
6.4202502e-07
5.9430934e-12
-1.6931679e-06
3.5255202e-06
-1.6698491e-11
-6.3714083e-06
1.233252e-05
1.0160785e-11
-1.367145e-05
2.1446415e-05
-4.8565091e-12
-2.3234055e-05
3.0011857e-05
-7.0049227e-12
-3.4695238e-05
3.7552972e-05
-4.277399e-12
-4.7689816e-05
4.3818818e-05
-3.7387354e-12
-6.1857519e-05
4.8713022e-05
-3.659011e-12
-7.6848063e-05
5.2235438e-05
-3.3174781e-12
-9.2323867e-05
5.443479e-05
-2.9077583e-12
-0.00010796027
5.5376064e-05
-2.5050719e-12
-0.00012344397
5.5120779e-05
-2.1097464e-12
-0.0001384707
5.3717516e-05
-1.7290571e-12
-0.00015274323
5.1200428e-05
-1.3583226e-12
-0.00016597054
4.7593496e-05
-9.6217317e-13
-0.00017786874
4.2918492e-05
-4.9775701e-13
-0.00018816405
3.7204885e-05
2.6791299e-14
-0.00019659789
3.0500202e-05
5.3452472e-13
-0.00020293384
2.2879669e-05
9.4179352e-13
-0.00020696614
1.4454216e-05
1.2495163e-12
-0.0002085293
5.3761614e-06
1.5628601e-12
-0.00020750812
-4.1581048e-06
1.9940032e-12
-0.00020384768
-1.3908574e-05
2.5228919e-12
-0.00019756247
-2.359537e-05
2.9380188e-12
-0.00018874397
-3.2906993e-05
3.0089899e-12
-0.00017756589
-4.15116e-05
2.762292e-12
-0.00016428626
-4.9072095e-05
2.5654652e-12
-0.00014924551
-5.5264245e-05
2.8063934e-12
-0.00013285991
-5.9797044e-05
3.4012308e-12
-0.00011560968
-6.2434165e-05
3.7278595e-12
-9.8021761e-05
-6.3015059e-05
3.2722942e-12
-8.0647226e-05
-6.1474049e-05
2.3900589e-12
-6.403418e-05
-5.7855827e-05
2.1379369e-12
-4.8697449e-05
-5.2326079e-05
3.0268333e-12
-3.5086902e-05
-4.5176611e-05
4.1284889e-12
-2.3556672e-05
-3.6825345e-05
4.0333607e-12
-1.4337866e-05
-2.7812828e-05
3.1359971e-12
-7.5174869e-06
-1.8797484e-05
3.6928154e-12
-3.0267243e-06
-1.0548564e-05
3.5802815e-12
-6.4249013e-07
-3.9396853e-06
-1.5820133e-12
-4.734978e-10
8.6413801e-12
-2.1329373e-06
5.6584771e-06
-1.9475765e-11
-7.8910754e-06
1.8090643e-05
1.4954819e-11
-1.6717403e-05
3.0272747e-05
-4.1391843e-12
-2.8105739e-05
4.14002e-05
-7.1090691e-12
-4.1585087e-05
5.1032324e-05
-3.8667877e-12
-5.6714134e-05
5.8947868e-05
-3.3248469e-12
-7.3078278e-05
6.5077169e-05
-3.3551818e-12
-9.028709e-05
6.9444252e-05
-3.083386e-12
-0.00010797133
7.2119027e-05
-2.7365731e-12
-0.00012577927
7.3184012e-05
-2.3765704e-12
-0.00014337275
7.2714254e-05
-1.98514e-12
-0.00016042342
7.0768193e-05
-1.5798939e-12
-0.00017661019
6.7387201e-05
-1.1967345e-12
-0.00019161814
6.2601447e-05
-8.468353e-13
-0.00020513951
5.6439867e-05
-4.8630552e-13
-0.00021687684
4.8942213e-05
-5.0604114e-14
-0.00022654815
4.017151e-05
4.6800857e-13
-0.00023389407
3.0225592e-05
9.8289511e-13
-0.0002386865
1.9246651e-05
1.3745313e-12
-0.00024073842
7.4280802e-06
1.6085347e-12
-0.00023991436
-4.98216e-06
1.7973994e-12
-0.00023614102
-1.768192e-05
2.1254721e-12
-0.00022941747
-3.0318921e-05
2.6226173e-12
-0.00021982416
-4.2500306e-05
3.0604859e-12
-0.00020752992
-5.3805839e-05
3.1102847e-12
-0.0001927961
-6.3805921e-05
2.7224084e-12
-0.0001759767
-7.2083647e-05
2.3205261e-12
-0.00015751364
-7.8260109e-05
2.4538123e-12
-0.00013792613
-8.2021676e-05
3.1338064e-12
-0.00011779373
-8.3147458e-05
3.6406643e-12
-9.7732955e-05
-8.1534822e-05
3.2746126e-12
-7.8368126e-05
-7.7220661e-05
2.3517381e-12
-6.0297866e-05
-7.0396347e-05
2.0566922e-12
-4.4059524e-05
-6.1414957e-05
2.9091413e-12
-3.0094427e-05
-5.0790441e-05
3.800202e-12
-1.871726e-05
-3.9189994e-05
3.893645e-12
-1.0093049e-05
-2.7421699e-05
4.6370459e-12
-4.2253101e-06
-1.6416308e-05
3.3570766e-12
-9.584844e-07
-7.2065055e-06
-4.6584598e-12
-9.5896749e-07
1.0615653e-11
-2.5450546e-06
8.2035541e-06
-2.2283756e-11
-9.3288451e-06
2.4874415e-05
1.9235607e-11
-1.9615361e-05
4.0559267e-05
-3.6467206e-12
-3.2756846e-05
5.4541692e-05
-7.3885448e-12
-4.8175883e-05
6.6451365e-05
-3.7066859e-12
-6.5354088e-05
7.6126076e-05
-3.1992512e-12
-8.3822138e-05
8.3545222e-05
-3.3317185e-12
-0.00010315062
8.8772739e-05
-3.103547e-12
-0.00012294162
9.1910028e-05
-2.8131253e-12
-0.00014282096
9.3063349e-05
-2.5278166e-12
-0.00016243135
9.2324644e-05
-2.1965919e-12
-0.00018142688
8.9763729e-05
-1.8033496e-12
-0.00019946925
8.5429573e-05
-1.3765896e-12
-0.00021622605
7.9358245e-05
-9.7300625e-13
-0.00023137131
7.1585129e-05
-6.2171696e-13
-0.00024458832
6.2159233e-05
-2.7706185e-13
-0.0002555746
5.1157786e-05
1.4899037e-13
-0.00026404868
3.8699675e-05
6.9084218e-13
-0.00026975868
2.4956654e-05
1.2624129e-12
-0.0002724921
1.0161501e-05
1.7012379e-12
-0.00027208668
-5.3875757e-06
1.9160765e-12
-0.00026844172
-2.132688e-05
2.0304646e-12
-0.00026152975
-3.7230898e-05
2.2789339e-12
-0.00025140739
-5.2622665e-05
2.7800714e-12
-0.00023822498
-6.6988251e-05
3.3049202e-12
-0.00022223364
-7.9797265e-05
3.418996e-12
-0.00020378863
-9.0528653e-05
2.9684746e-12
-0.00018334762
-9.8701127e-05
2.4034027e-12
-0.00016146241
-0.00010390689
2.4220715e-12
-0.00013876327
-0.0001058466
3.1388707e-12
-0.00011593535
-0.00010436274
3.7694602e-12
-9.3687548e-05
-9.9468462e-05
3.4997813e-12
-7.2715435e-05
-9.1368464e-05
2.651161e-12
-5.3660747e-05
-8.0469652e-05
2.373322e-12
-3.7071085e-05
-6.7380106e-05
2.9348813e-12
-2.3363945e-05
-5.2897132e-05
3.8423506e-12
-1.2799314e-05
-3.7986333e-05
5.6292273e-12
-5.4648784e-06
-2.3750748e-05
3.5977671e-12
-1.2772567e-06
-1.1394121e-05
-7.7010747e-12
-2.2362362e-06
1.2906893e-11
-2.9284817e-06
1.1132061e-05
-2.5030834e-11
-1.067367e-05
3.2619582e-05
2.304465e-11
-2.2336171e-05
5.2221773e-05
-3.3222744e-12
-3.7135971e-05
6.93415e-05
-7.7294883e-12
-5.4394105e-05
8.3709502e-05
-3.6306715e-12
-7.3517623e-05
9.5249596e-05
-3.1814931e-12
-9.3984296e-05
0.0001040119
-3.429498e-12
-0.00011532796
0.0001101164
-3.2265671e-12
-0.00013712517
0.00011370725
-2.9482885e-12
-0.00015898353
0.00011492171
-2.7025281e-12
-0.00018053178
0.0001138729
-2.4411295e-12
-0.00020141215
0.0001106441
-2.1202647e-12
-0.00022127503
0.00010529246
-1.714862e-12
-0.00023977619
9.78594e-05
-1.2521781e-12
-0.00025657638
8.8385327e-05
-8.0952231e-13
-0.00027134346
7.6926321e-05
-4.3956192e-13
-0.00028375659
6.3570914e-05
-1.0282517e-13
-0.00029351243
4.8455522e-05
3.1278794e-13
-0.00030033322
3.1777445e-05
8.8122726e-13
-0.00030397636
1.3804641e-05
1.5249836e-12
-0.00030424557
-5.1183611e-06
2.0317431e-12
-0.00030100297
-2.456948e-05
2.2719337e-12
-0.00029418252
-4.4051356e-05
2.3105274e-12
-0.00028380325
-6.3001934e-05
2.4629852e-12
-0.00026998221
-8.0809295e-05
2.947967e-12
-0.0002529455
-9.6833985e-05
3.5571019e-12
-0.000233036
-0.00011043815
3.7627427e-12
-0.00021071601
-0.00012102112
3.2982305e-12
-0.00018656267
-0.00012806023
2.6139538e-12
-0.00016125483
-0.00013115444
2.5182841e-12
-0.00013554998
-0.0001300676
3.1978401e-12
-0.00011025148
-0.00012476696
3.8450968e-12
-8.6167387e-05
-0.00011545256
3.6504731e-12
-6.4063736e-05
-0.00010257331
2.9077383e-12
-4.4616672e-05
-8.6827176e-05
2.5012198e-12
-2.8368531e-05
-6.9145276e-05
3.2875685e-12
-1.5693153e-05
-5.0661714e-05
6.1134087e-12
-6.775221e-06
-3.2668683e-05
3.8974185e-12
-1.6070345e-06
-1.6562297e-05
-1.056262e-11
-3.8432863e-06
1.5420604e-11
-3.2816993e-06
1.4413788e-05
-2.7633118e-11
-1.1915868e-05
4.1253726e-05
2.6426267e-11
-2.4855508e-05
6.5161417e-05
-3.1533779e-12
-4.1199914e-05
8.5685915e-05
-8.1238419e-12
-6.0176304e-05
0.0001026859
-3.5844117e-12
-8.1122244e-05
0.00011619554
-3.177986e-12
-0.0001034663
0.00012635596
-3.5575872e-12
-0.00012670888
0.00013335898
-3.4037642e-12
-0.00015040465
0.00013740302
-3.1297618e-12
-0.00017414714
0.0001386642
-2.8777463e-12
-0.00019755594
0.0001372817
-2.6330849e-12
-0.00022026669
0.00013335484
-2.3774087e-12
-0.00024192389
0.00012694967
-2.0616879e-12
-0.00026217668
0.0001181122
-1.6386403e-12
-0.00028067717
0.00010688582
-1.1316686e-12
-0.00029708131
9.3330457e-05
-6.3614873e-13
-0.00031105196
7.754157e-05
-2.3458644e-13
-0.00032226415
5.9667711e-05
9.6802487e-14
-0.0003304122
3.9925505e-05
4.9184846e-13
-0.00033521897
1.8611411e-05
1.0629691e-12
-0.00033644713
-3.8902039e-06
1.746836e-12
-0.00033391173
-2.7104878e-05
2.3808257e-12
-0.00032749597
-5.0467125e-05
2.6541849e-12
-0.00031716688
-7.3331025e-05
2.6232621e-12
-0.0003029923
-9.4983879e-05
2.6616281e-12
-0.00028515683
-0.00011466946
3.0879319e-12
-0.00026397518
-0.0001316198
3.7373376e-12
-0.00023990062
-0.00014509569
4.0175158e-12
-0.00021352583
-0.00015443502
3.5695065e-12
-0.00018557378
-0.0001591065
2.8322462e-12
-0.00015687658
-0.00015876481
2.6623204e-12
-0.00012834164
-0.00015330191
3.2645207e-12
-0.00010090607
-0.00014288813
3.853836e-12
-7.5482476e-05
-0.0001279969
3.6375978e-12
-5.2901148e-05
-0.00010940851
2.7873213e-12
-3.3855116e-05
-8.8191313e-05
2.9818207e-12
-1.8854785e-05
-6.5662051e-05
6.2937186e-12
-8.1982634e-06
-4.3325207e-05
3.8982493e-12
-1.9611625e-06
-2.2799384e-05
-1.3629154e-11
-5.8044674e-06
1.8189962e-11
-3.6023022e-06
1.8016122e-05
-3.0036512e-11
-1.304487e-05
5.0696267e-05
2.9427554e-11
-2.7149285e-05
7.9265837e-05
-3.1064082e-12
-4.4907164e-05
0.0001034438
-8.5949976e-12
-6.5461499e-05
0.00012324024
-3.6214674e-12
-8.8087227e-05
0.00013882127
-3.2062341e-12
-0.0001121688
0.00015043753
-3.6945373e-12
-0.00013717742
0.0001583676
-3.6145183e-12
-0.00016264988
0.00016287548
-3.3839742e-12
-0.00018816993
0.00016418426
-3.1369698e-12
-0.00021335264
0.00016246442
-2.8678612e-12
-0.00023783203
0.00015783423
-2.6064498e-12
-0.00026125191
0.00015036955
-2.3511238e-12
-0.00028325983
0.00014012012
-2.0364854e-12
-0.00030350382
0.00012712982
-1.5945355e-12
-0.00032163166
0.0001114583
-1.0385194e-12
-0.00033729244
9.3202355e-05
-4.758384e-13
-0.00035014038
7.2515649e-05
-2.4161987e-14
-0.00035984079
4.9625913e-05
3.1059667e-13
-0.00036607842
2.4849047e-05
6.597311e-13
-0.00036856896
-1.399666e-06
1.1645007e-12
-0.00036707134
-2.8602501e-05
2.0019204e-12
-0.00036140637
-5.6132101e-05
2.7265168e-12
-0.00035147458
-8.3262817e-05
3.048576e-12
-0.00033727782
-0.00010918064
2.9750283e-12
-0.00031894091
-0.00013300639
2.903892e-12
-0.00029673175
-0.00015382896
3.2418468e-12
-0.00027107727
-0.00017075017
3.8745138e-12
-0.00024257163
-0.00018294066
4.1801086e-12
-0.00021197328
-0.00018970486
3.7541383e-12
-0.0001801876
-0.00019055049
3.0275073e-12
-0.00014823332
-0.00018525619
2.8442397e-12
-0.00011719276
-0.00017392869
3.3691635e-12
-8.8148953e-05
-0.00015704071
3.7546922e-12
-6.2115384e-05
-0.00013544208
3.1987893e-12
-3.9966491e-05
-0.00011034021
3.1548605e-12
-2.2377611e-05
-8.3250939e-05
6.6927475e-12
-9.7826903e-06
-5.5920131e-05
3.7357194e-12
-2.3546952e-06
-3.0227361e-05
-1.7176701e-11
-8.1591839e-06
2.1252358e-11
-3.8870497e-06
2.1903205e-05
-3.2224894e-11
-1.4048657e-05
6.0857845e-05
3.2055999e-11
-2.9192049e-05
9.4409234e-05
-3.1191495e-12
-4.8215259e-05
0.00012246702
-9.1074627e-12
-7.0187836e-05
0.00014521282
-3.761931e-12
-9.4330054e-05
0.00016296349
-3.3102488e-12
-0.00011998821
0.00017609569
-3.8530785e-12
-0.00014660908
0.00018498847
-3.8241301e-12
-0.00017371588
0.00018998228
-3.6601645e-12
-0.00020088685
0.00019135523
-3.469795e-12
-0.00022773708
0.00018931465
-3.2083515e-12
-0.0002539038
0.00018400096
-2.906477e-12
-0.00027903519
0.00017550094
-2.6220467e-12
-0.00030278231
0.00016386725
-2.3581392e-12
-0.00032479396
0.00014914147
-2.0414258e-12
-0.00034471404
0.00013137837
-1.5838378e-12
-0.00036218125
0.00011066957
-9.7762896e-13
-0.00037683113
8.7165529e-05
-3.3601316e-13
-0.00038830041
6.1095196e-05
1.8325306e-13
-0.00039623427
3.2782902e-05
5.4597427e-13
-0.00040029638
2.6624411e-06
9.2625475e-13
-0.00040018387
-2.8715008e-05
1.4387715e-12
-0.00039564405
-6.0671927e-05
2.2462024e-12
-0.00038649736
-9.2409514e-05
3.043902e-12
-0.00037266263
-0.00012301537
3.433127e-12
-0.00035418497
-0.00015148405
3.3468434e-12
-0.0003312638
-0.00017675014
3.1912607e-12
-0.00030427783
-0.00019773614
3.4298701e-12
-0.00027380299
-0.00021341551
3.9870129e-12
-0.0002406183
-0.00022288955
4.2489882e-12
-0.00020569519
-0.00022547361
3.8297861e-12
-0.00017016638
-0.00022078501
3.1753487e-12
-0.00013527318
-0.0002088219
3.0524099e-12
-0.00010229332
-0.00019002056
3.372466e-12
-7.2455933e-05
-0.00016527947
3.1623965e-12
-4.6853292e-05
-0.00013594285
3.39917e-12
-2.6361363e-05
-0.00010374288
7.4643293e-12
-1.1580442e-05
-7.0701057e-05
3.7018456e-12
-2.8033145e-06
-3.9004467e-05
-2.124922e-11
-1.0962523e-05
2.4672786e-11
-4.1321164e-06
2.6035358e-05
-3.4184005e-11
-1.4914094e-05
7.1639792e-05
3.4264785e-11
-3.0957126e-05
0.00011045227
-3.1600787e-12
-5.1080649e-05
0.00014259056
-9.5950925e-12
-7.4292267e-05
0.00016842444
-3.9706603e-12
-9.976612e-05
0.00018843735
-3.5069329e-12
-0.00012681668
0.00020314625
-4.0751998e-12
-0.0001548713
0.00021304309
-4.048776e-12
-0.00018344394
0.00021855492
-3.917966e-12
-0.0002121115
0.0002200228
-3.7995552e-12
-0.00024049344
0.00021769659
-3.6090663e-12
-0.00026823493
0.00021174245
-3.3222143e-12
-0.00029499352
0.00020225953
-2.9858199e-12
-0.00032042905
0.00018930278
-2.6675987e-12
-0.0003441964
0.00017290883
-2.3835789e-12
-0.00036594074
0.00015312271
-2.0626418e-12
-0.00038529504
0.00013002388
-1.5956005e-12
-0.00040188001
0.00010375049
-9.4483934e-13
-0.00041530644
7.4521624e-05
-2.2020846e-13
-0.00042518077
4.2657233e-05
4.001287e-13
-0.00043111396
8.5956339e-06
8.4843802e-13
-0.00043273622
-2.7092757e-05
1.1230712e-12
-0.00042971416
-6.3693989e-05
1.6429553e-12
-0.00042177618
-0.0001003475
2.4796595e-12
-0.00040874172
-0.00013604983
3.3396158e-12
-0.00039055538
-0.00016967038
3.786932e-12
-0.0003673235
-0.00019998203
3.7074244e-12
-0.0003393498
-0.00022570984
3.497019e-12
-0.00030716537
-0.00024559994
3.6330436e-12
-0.00027154683
-0.00025850808
4.0568721e-12
-0.00023351601
-0.00026350443
4.2064209e-12
-0.00019431498
-0.00025998604
3.8002798e-12
-0.00015535291
-0.00024778397
3.3033874e-12
-0.00011812527
-0.00022724821
3.1232273e-12
-8.4111829e-05
-0.00019929291
2.7751414e-12
-5.466548e-05
-0.0001653892
3.3491337e-12
-3.090734e-05
-0.00012750102
8.3770005e-12
-1.3644697e-05
-8.7963704e-05
3.8582464e-12
-3.3229924e-06
-4.9326146e-05
-2.5839939e-11
-1.4285544e-05
2.862111e-11
-4.3334537e-06
3.0368849e-05
-3.5865128e-11
-1.5627792e-05
8.2934098e-05
3.5998309e-11
-3.2417907e-05
0.00012724239
-3.2504153e-12
-5.3460303e-05
0.00016363297
-1.0027355e-11
-7.7712455e-05
0.0001926766
-4.1898433e-12
-0.000104311
0.00021503589
-3.7578771e-12
-0.00013254491
0.00023138017
-4.3734319e-12
-0.00016182693
0.00024232512
-4.3368382e-12
-0.00019166588
0.00024839387
-4.1898109e-12
-0.00022164124
0.00024999817
-4.0936603e-12
-0.00025138097
0.00024743632
-3.977499e-12
-0.00028054265
0.00024090414
-3.7774229e-12
-0.00030879822
0.00023051511
-3.4698457e-12
-0.00033582178
0.00021632635
-3.094713e-12
-0.00036128018
0.00019836723
-2.7295208e-12
-0.00038482595
0.00017666849
-2.412477e-12
-0.00040609255
0.00015129049
-2.0835783e-12
-0.00042469178
0.00012234972
-1.6133269e-12
-0.00044021385
9.004369e-05
-9.2570726e-13
-0.00045223065
5.4674034e-05
-1.0969952e-13
-0.00046030304
1.6668018e-05
6.1569673e-13
-0.00046399357
-2.3402221e-05
1.0573706e-12
-0.00046288448
-6.4803082e-05
1.3902715e-12
-0.00045660341
-0.00010662858
1.9106643e-12
-0.00044485609
-0.00014779716
2.7457451e-12
-0.00042746613
-0.00018706035
3.6275617e-12
-0.00040442022
-0.00022302794
4.1024326e-12
-0.00037591561
-0.00025421446
4.0306349e-12
-0.00034240458
-0.00027911098
3.7833134e-12
-0.00030462862
-0.00029628405
3.8048184e-12
-0.00026363338
-0.00030449968
4.0394068e-12
-0.00022075513
-0.00030286429
4.0546204e-12
-0.00017757163
-0.00029096747
3.7340433e-12
-0.00013581501
-0.00026900484
3.2590993e-12
-9.7251931e-05
-0.00023785599
2.4628287e-12
-6.3544839e-05
-0.0001990963
3.0817079e-12
-3.611469e-05
-0.00015493118
9.2384138e-12
-1.6028558e-05
-0.00010804984
4.0487493e-12
-3.929836e-06
-6.1424838e-05
-3.1075325e-11
-1.8215413e-05
3.327968e-11
-4.487223e-06
3.4856111e-05
-3.7197608e-11
-1.6177322e-05
9.4624163e-05
3.7243655e-11
-3.3549897e-05
0.00014461497
-3.4175037e-12
-5.5314552e-05
0.00018539763
-1.0425634e-11
-8.0390365e-05
0.00021775242
-4.4010764e-12
-0.0001078848
0.00024253033
-4.0078222e-12
-0.00013706725
0.00026056262
-4.7018621e-12
-0.00016734027
0.00027259814
-4.6931906e-12
-0.0001982112
0.0002792648
-4.5306952e-12
-0.00022926561
0.00028105259
-4.4044519e-12
-0.00026014368
0.00027831439
-4.2938546e-12
-0.00029051967
0.00027128013
-4.1654748e-12
-0.00032008483
0.00026008027
-3.9597078e-12
-0.00034853318
0.0002447747
-3.63376e-12
-0.00037554993
0.00022538399
-3.2149541e-12
-0.00040080218
0.00020192075
-2.7899959e-12
-0.0004239316
0.00017441991
-2.4258788e-12
-0.0004445493
0.00014296742
-2.080857e-12
-0.00046223321
0.0001077276
-1.6058253e-12
-0.00047652863
6.8969443e-05
-8.8317964e-13
-0.00048695288
2.7092272e-05
1.0986486e-14
-0.00049300565
-1.7349459e-05
8.1349601e-13
-0.00049418564
-6.3623089e-05
1.3522537e-12
-0.00049001583
-0.00011079839
1.730537e-12
-0.00048007775
-0.00015773524
2.2520979e-12
-0.00046405567
-0.00020308243
3.0660987e-12
-0.00044178976
-0.00024529385
3.9207088e-12
-0.00041333575
-0.00028266847
4.3756021e-12
-0.00037902596
-0.00031342077
4.2926388e-12
-0.00033952333
-0.00033578667
4.0010343e-12
-0.00029585751
-0.0003481655
3.8763623e-12
-0.00024942979
-0.00034929201
3.9084885e-12
-0.00020197497
-0.0003384223
3.8658506e-12
-0.00015547284
-0.00031550697
3.4729585e-12
-0.00011201159
-0.00028131724
2.3552301e-12
-7.3617495e-05
-0.0002374904
2.860436e-12
-4.2077003e-05
-0.00018647168
1.0137864e-11
-1.8784002e-05
-0.00013134284
4.1738399e-12
-4.6400102e-06
-7.5568793e-05
-3.7172765e-11
-2.2855462e-05
3.8761696e-11
-4.5902826e-06
3.9446434e-05
-3.8136443e-11
-1.6552688e-05
0.00010658653
3.8025129e-11
-3.4333348e-05
0.00016239564
-3.6436716e-12
-5.6610886e-05
0.00020767518
-1.0814333e-11
-8.2277185e-05
0.00024341872
-4.6355638e-12
-0.00011041819
0.00027067134
-4.2471052e-12
-0.00014028892
0.00029043336
-5.0070432e-12
-0.00017128552
0.00030359474
-5.0610862e-12
-0.00020291689
0.00031089618
-4.9335165e-12
-0.00023477769
0.00031291339
-4.7910558e-12
-0.00026652359
0.00031006029
-4.6323028e-12
-0.00029784946
0.00030260601
-4.4863083e-12
-0.00032847061
0.00029070143
-4.3406981e-12
-0.00035810672
0.00027441082
-4.1273949e-12
-0.00038646825
0.00025374552
-3.7829082e-12
-0.00041324486
0.00022869735
-3.315888e-12
-0.00043809568
0.00019927073
-2.8203071e-12
-0.00046064152
0.00016551328
-2.3945751e-12
-0.00048045932
0.0001275454
-2.0180194e-12
-0.00049707946
8.5589583e-05
-1.5276435e-12
-0.0005099872
4.0000007e-05
-7.7519564e-13
-0.00051862939
-8.7072682e-06
1.7923291e-13
-0.00052242835
-5.9824132e-05
1.0731982e-12
-0.00052080463
-0.00011242211
1.7048138e-12
-0.0005132109
-0.00016532897
2.1466544e-12
-0.00049917822
-0.00021711511
2.6810546e-12
-0.0004783755
-0.00026609658
3.4494935e-12
-0.0004506806
-0.00031036337
4.2192272e-12
-0.00041625891
-0.00034784246
4.5941892e-12
-0.00037564086
-0.00037640473
4.4559215e-12
-0.00032978532
-0.00039402104
4.0778253e-12
-0.0002801119
-0.00039896543
3.7997062e-12
-0.00022848373
-0.00039005048
3.7207029e-12
-0.00017712616
-0.00036686454
3.4430533e-12
-0.00012847765
-0.00032996575
2.214368e-12
-8.4985583e-05
-0.00028098247
2.7285361e-12
-4.887864e-05
-0.00022257864
1.1247809e-11
-2.1960824e-05
-0.00015826066
4.2932462e-12
-5.4696777e-06
-9.2059895e-05
-4.4297884e-11
-2.8325185e-05
4.5149693e-11
-4.6407189e-06
4.4087193e-05
-3.8687338e-11
-1.6747987e-05
0.00011869376
3.8354893e-11
-3.4756312e-05
0.00018040397
-3.8771292e-12
-5.7328464e-05
0.00023024735
-1.1172766e-11
-8.3339267e-05
0.00026942953
-4.9228115e-12
-0.00011185972
0.0002991918
-4.5163669e-12
-0.00014213476
0.0003207084
-5.2916545e-12
-0.00017355703
0.00033501702
-5.3897661e-12
-0.00020563945
0.0003429786
-5.327709e-12
-0.00023798811
0.00034526206
-5.2288398e-12
-0.00027027702
0.0003423492
-5.050758e-12
-0.0003022252
0.0003345542
-4.8364719e-12
-0.00033357653
0.00032205276
-4.6423605e-12
-0.00036408207
0.00030491636
-4.4658931e-12
-0.00039348459
0.00028314805
-4.2369571e-12
-0.00042150501
0.00025671777
-3.8693889e-12
-0.00044783032
0.00022559605
-3.3490246e-12
-0.00047210323
0.00018978618
-2.7749646e-12
-0.00049391354
0.00014935571
-2.2741567e-12
-0.00051279208
0.00010446813
-1.8461844e-12
-0.00052820808
5.5416006e-05
-1.3235247e-12
-0.0005395714
2.6560499e-06
-5.3527914e-13
-0.00054624184
-5.3153694e-05
4.5909833e-13
-0.00054754742
-0.00011111653
1.4278201e-12
-0.00054281501
-0.00017006139
2.1489209e-12
-0.00053141581
-0.00022851431
2.6622125e-12
-0.00051282804
-0.00028468434
3.204961e-12
-0.00048671737
-0.00033647404
3.8891313e-12
-0.00045303246
-0.00038152737
4.5050852e-12
-0.00041210824
-0.00041732895
4.7217616e-12
-0.00036476274
-0.00044136654
4.4513462e-12
-0.00031236681
-0.00045136137
3.9622423e-12
-0.0002568608
-0.00044555649
3.623028e-12
-0.0002006938
-0.00042303154
3.2170359e-12
-0.00014667113
-0.00038398842
1.8346524e-12
-9.7717406e-05
-0.0003299362
2.5102312e-12
-5.6590333e-05
-0.00026370573
1.2586037e-11
-2.5605327e-05
-0.00018924567
4.4868426e-12
-6.4348945e-06