/*--------------------------------*- C++ -*----------------------------------*\
  =========                 |
  \\      /  F ield         | OpenFOAM: The Open Source CFD Toolbox
   \\    /   O peration     | Website:  https://openfoam.org
    \\  /    A nd           | Version:  7
     \\/     M anipulation  |
\*---------------------------------------------------------------------------*/
FoamFile
{
    version     2.0;
    format      ascii;
    class       surfaceScalarField;
    location    "46";
    object      phi_0;
}
// * * * * * * * * * * * * * * * * * * * * * * * * * * * * * * * * * * * * * //

dimensions      [0 3 -1 0 0 0 0];

internalField   nonuniform List<scalar> 
45600
(
2.7522041e-07
-2.8218816e-07
-7.8198791e-11
4.0335947e-07
-1.2811446e-07
-2.4590655e-11
1.325758e-07
2.7079048e-07
-6.5883912e-12
-5.6229916e-07
6.9487624e-07
-1.395136e-12
-1.6393051e-06
1.0770021e-06
3.6706689e-12
-3.0276183e-06
1.3883071e-06
7.1266825e-12
-4.6524618e-06
1.6248365e-06
9.4040758e-12
-6.4450944e-06
1.7926235e-06
1.1004967e-11
-8.3454216e-06
1.9003154e-06
1.2129274e-11
-1.0301442e-05
1.956007e-06
1.2873555e-11
-1.2267401e-05
1.9659473e-06
1.3301459e-11
-1.420158e-05
1.9341679e-06
1.3443118e-11
-1.6064237e-05
1.8626457e-06
1.3302961e-11
-1.7816025e-05
1.7517757e-06
1.2873504e-11
-1.9417052e-05
1.6010136e-06
1.2144412e-11
-2.0826658e-05
1.4095916e-06
1.1108944e-11
-2.200391e-05
1.177239e-06
9.7672179e-12
-2.2908773e-05
9.0485518e-07
8.1215175e-12
-2.3503871e-05
5.9509443e-07
6.1666802e-12
-2.3756702e-05
2.5282822e-07
3.905053e-12
-2.3642141e-05
-1.1456685e-07
1.3778816e-12
-2.3145013e-05
-4.9713482e-07
-1.3237322e-12
-2.2262584e-05
-8.8243013e-07
-4.0778287e-12
-2.1006628e-05
-1.2559442e-06
-6.7602676e-12
-1.9404869e-05
-1.6017377e-06
-9.2768155e-12
-1.7501554e-05
-1.9032966e-06
-1.1562161e-11
-1.5356966e-05
-2.1445844e-06
-1.3507348e-11
-1.3045758e-05
-2.3112141e-06
-1.4917635e-11
-1.0654111e-05
-2.3916411e-06
-1.5569273e-11
-8.2758256e-06
-2.3782507e-06
-1.5355995e-11
-6.0075616e-06
-2.2682126e-06
-1.4385716e-11
-3.9435105e-06
-2.0640248e-06
-1.287187e-11
-2.1697683e-06
-1.7737669e-06
-1.0869486e-11
-7.5854885e-07
-1.4112646e-06
-8.1651932e-12
2.3818328e-07
-9.9673058e-07
-4.7138666e-12
7.9653287e-07
-5.5828407e-07
-1.3240592e-12
9.2930535e-07
-1.3270645e-07
2.0694769e-12
7.0562958e-07
2.2362888e-07
5.4584965e-12
2.9048961e-07
4.1499777e-07
8.854793e-12
2.9040447e-07
2.1637344e-12
1.3291514e-07
-4.1508167e-07
-2.1977199e-11
-3.0165609e-07
3.0647047e-07
-1.3902854e-11
-1.6153792e-06
1.5845268e-06
-1.2173845e-11
-3.8746907e-06
2.9542023e-06
-1.2976645e-11
-7.0073297e-06
4.2096555e-06
-1.418786e-11
-1.0879743e-05
5.2607356e-06
-1.575971e-11
-1.533516e-05
6.0802705e-06
-1.7204166e-11
-2.0215998e-05
6.6734839e-06
-1.8237001e-11
-2.5374057e-05
7.0583966e-06
-1.8820228e-11
-3.067327e-05
7.2552412e-06
-1.8969806e-11
-3.5988538e-05
7.281234e-06
-1.8698879e-11
-4.1202827e-05
7.148474e-06
-1.8020407e-11
-4.6203971e-05
6.8638072e-06
-1.6949382e-11
-5.0882099e-05
6.4299218e-06
-1.5501403e-11
-5.512823e-05
5.8471617e-06
-1.36935e-11
-5.8834318e-05
5.1156901e-06
-1.154237e-11
-6.1894803e-05
4.2377288e-06
-9.0571538e-12
-6.4209613e-05
3.219663e-06
-6.2350549e-12
-6.5688365e-05
2.0738457e-06
-3.0987524e-12
-6.6255474e-05
8.1994151e-07
2.799415e-13
-6.5855985e-05
-5.1405027e-07
3.7837457e-12
-6.4460807e-05
-1.8923167e-06
7.3304379e-12
-6.2072477e-05
-3.2707808e-06
1.0775499e-11
-5.8729095e-05
-4.5993584e-06
1.4056975e-11
-5.4507087e-05
-5.8237698e-06
1.7111884e-11
-4.9521912e-05
-6.8884735e-06
1.9794195e-11
-4.3926391e-05
-7.7400955e-06
2.186853e-11
-3.7906435e-05
-8.3311811e-06
2.3121281e-11
-3.1674135e-05
-8.6239943e-06
2.3516202e-11
-2.5458413e-05
-8.5940449e-06
2.3214668e-11
-1.9493634e-05
-8.2330225e-06
2.2369924e-11
-1.4006723e-05
-7.5508987e-06
2.088651e-11
-9.2032587e-06
-6.5771792e-06
1.8486303e-11
-5.2528662e-06
-5.3616814e-06
1.5148163e-11
-2.2739875e-06
-3.9757228e-06
1.1431687e-11
-3.1733118e-07
-2.5150316e-06
8.0139666e-12
6.5700098e-07
-1.1069756e-06
4.7748864e-12
8.0368678e-07
7.7151125e-08
3.6867959e-12
4.1792822e-07
8.0093626e-07
4.6250203e-12
7.082598e-07
-2.9971271e-12
-2.7357187e-07
-1.4149746e-07
-1.2287017e-11
-1.6274622e-06
1.6603673e-06
-7.0447486e-12
-4.2893835e-06
4.2464566e-06
-8.3864944e-12
-8.2746586e-06
6.9394866e-06
-6.9974564e-12
-1.3474401e-05
9.4094057e-06
-5.0522514e-12
-1.9708708e-05
1.1495047e-05
-4.0086079e-12
-2.6765741e-05
1.3137306e-05
-3.3426414e-12
-3.4426609e-05
1.4334355e-05
-2.7779021e-12
-4.2478625e-05
1.5110417e-05
-2.2945334e-12
-5.0720444e-05
1.5497067e-05
-1.8687852e-12
-5.8962289e-05
1.5523083e-05
-1.4703327e-12
-6.7023686e-05
1.5209871e-05
-1.0767586e-12
-7.4730529e-05
1.4570649e-05
-6.7266685e-13
-8.1912719e-05
1.3612109e-05
-2.4842804e-13
-8.8403148e-05
1.2337592e-05
1.9294455e-13
-9.4038475e-05
1.0751021e-05
6.3084544e-13
-9.8661794e-05
8.8610492e-06
1.0354635e-12
-0.00010212709
6.6849581e-06
1.3905555e-12
-0.00010430523
4.2519687e-06
1.7073884e-12
-0.00010509101
1.6057123e-06
2.0113903e-12
-0.00010441065
-1.1944125e-06
2.3125999e-12
-0.00010222946
-4.0734945e-06
2.5635842e-12
-9.8558515e-05
-6.9417141e-06
2.6945979e-12
-9.3459999e-05
-9.6978824e-06
2.6887724e-12
-8.7050398e-05
-1.2233397e-05
2.621768e-12
-7.9501013e-05
-1.4437881e-05
2.6141522e-12
-7.1035296e-05
-1.6205804e-05
2.7078998e-12
-6.1922723e-05
-1.7443715e-05
2.7899196e-12
-5.2469127e-05
-1.8077562e-05
2.6926541e-12
-4.3003663e-05
-1.8059536e-05
2.4215518e-12
-3.3862837e-05
-1.7373919e-05
2.2442689e-12
-2.5372265e-05
-1.6041508e-05
2.4442218e-12
-1.7826902e-05
-1.4122486e-05
2.939115e-12
-1.1470373e-05
-1.1718108e-05
3.2636499e-12
-6.473808e-06
-8.9722702e-06
3.1064666e-12
-2.9140335e-06
-6.0749377e-06
2.7098151e-12
-7.5128736e-07
-3.2698941e-06
2.5441531e-12
1.9429647e-07
-8.684608e-07
3.6275475e-12
2.655322e-07
7.298251e-07
5.845257e-12
9.7378667e-07
9.4908196e-13
-7.4584029e-07
6.043561e-07
-1.2590156e-11
-3.1796246e-06
4.0941525e-06
-1.1252771e-12
-7.3460938e-06
8.412931e-06
-6.5955318e-12
-1.3163049e-05
1.2756448e-05
-5.9718465e-12
-2.0455814e-05
1.6702176e-05
-3.3656157e-12
-2.8992633e-05
2.0031871e-05
-2.048171e-12
-3.8513878e-05
2.2658552e-05
-1.1933974e-12
-4.8752681e-05
2.4573157e-05
-4.2811616e-13
-5.9446989e-05
2.5804724e-05
2.1016034e-13
-7.0344842e-05
2.639492e-05
7.3337897e-13
-8.1205136e-05
2.6383379e-05
1.170799e-12
-9.1795989e-05
2.5800725e-05
1.5362719e-12
-0.00010189242
2.4667078e-05
1.8376916e-12
-0.00011127464
2.2994324e-05
2.0850807e-12
-0.00011972779
2.0790739e-05
2.2901965e-12
-0.00012704362
1.8066846e-05
2.4552024e-12
-0.00013302417
1.48416e-05
2.5586051e-12
-0.00013748742
1.1148216e-05
2.5610194e-12
-0.00014027452
7.039063e-06
2.4373417e-12
-0.00014125806
2.5892421e-06
2.2132857e-12
-0.00014035079
-2.1017005e-06
1.9594223e-12
-0.0001375144
-6.9098835e-06
1.6844793e-12
-0.00013276703
-1.1689066e-05
1.3725328e-12
-0.00012618931
-1.6275588e-05
9.5817262e-13
-0.00011792788
-2.0494822e-05
4.1644325e-13
-0.00010819591
-2.4169875e-05
-1.4976939e-13
-9.7269893e-05
-2.713186e-05
-5.4475379e-13
-8.5482434e-05
-2.9231171e-05
-6.527942e-13
-7.3210952e-05
-3.0348994e-05
-5.8388694e-13
-6.0862244e-05
-3.0408193e-05
-5.769473e-13
-4.8853431e-05
-2.9382749e-05
-6.865776e-13
-3.7589917e-05
-2.7305105e-05
-6.071475e-13
-2.744136e-05
-2.4271101e-05
4.4357146e-14
-1.8716718e-05
-2.0442692e-05
1.1916991e-12
-1.1639426e-05
-1.6049425e-05
2.2202691e-12
-6.3235148e-06
-1.1390782e-05
2.6625924e-12
-2.7515317e-06
-6.8419668e-06
2.8978112e-12
-7.5720736e-07
-2.8629121e-06
3.5978377e-12
-9.541873e-09
-1.78338e-08
4.5770468e-12
9.642773e-07
3.9524136e-12
-1.2279651e-06
1.832336e-06
-1.4161352e-11
-4.7881052e-06
7.6542893e-06
4.8200506e-12
-1.0521537e-05
1.4146368e-05
-5.7550985e-12
-1.8214329e-05
2.0449244e-05
-6.8784586e-12
-2.7603934e-05
2.6091786e-05
-4.5087734e-12
-3.8396293e-05
3.0824237e-05
-3.7867951e-12
-5.0283051e-05
3.4545316e-05
-3.4620152e-12
-6.295478e-05
3.724489e-05
-3.0219638e-12
-7.6109036e-05
3.8958981e-05
-2.5891021e-12
-8.9453774e-05
3.9739658e-05
-2.1812208e-12
-0.00010270747
3.9637081e-05
-1.7707907e-12
-0.00011559753
3.8690788e-05
-1.3523697e-12
-0.00012785834
3.6927895e-05
-9.3321129e-13
-0.0001392302
3.436618e-05
-5.207733e-13
-0.00014945975
3.1020287e-05
-1.1310406e-13
-0.00015830248
2.690957e-05
3.0489879e-13
-0.00016552724
2.2066363e-05
7.4365006e-13
-0.00017092275
1.6543727e-05
1.1832437e-12
-0.00017430559
1.0421914e-05
1.5741816e-12
-0.00017552935
3.8130041e-06
1.8763401e-12
-0.00017449413
-3.1369349e-06
2.1004249e-12
-0.00017115589
-1.0248137e-05
2.2942688e-12
-0.00016553481
-1.7310151e-05
2.5118485e-12
-0.00015772191
-2.4088477e-05
2.7289359e-12
-0.00014788319
-3.0333514e-05
2.8367864e-12
-0.00013626058
-3.5792473e-05
2.7484861e-12
-0.00012316896
-4.0223518e-05
2.534455e-12
-0.00010898874
-4.3411442e-05
2.4166165e-12
-9.415383e-05
-4.5183914e-05
2.5564747e-12
-7.9134861e-05
-4.5427109e-05
2.8329103e-12
-6.4418037e-05
-4.4099504e-05
2.9164684e-12
-5.0480335e-05
-4.1242812e-05
2.6698697e-12
-3.7762146e-05
-3.6989389e-05
2.4253661e-12
-2.6638869e-05
-3.1566064e-05
2.6426636e-12
-1.7393203e-05
-2.5295069e-05
3.2535657e-12
-1.0189889e-05
-1.8593982e-05
3.7738881e-12
-5.0546941e-06
-1.1977112e-05
4.1530836e-12
-1.8598471e-06
-6.0578326e-06
3.4631579e-12
-3.2225329e-07
-1.5554606e-06
4.6321985e-13
6.4203637e-07
6.0465591e-12
-1.6931686e-06
3.5255206e-06
-1.66969e-11
-6.3714087e-06
1.2332521e-05
1.0197313e-11
-1.3671449e-05
2.1446415e-05
-4.8159007e-12
-2.3234055e-05
3.0011856e-05
-7.0031939e-12
-3.4695239e-05
3.7552972e-05
-4.3020914e-12
-4.7689818e-05
4.3818819e-05
-3.7461924e-12
-6.1857519e-05
4.8713023e-05
-3.6261213e-12
-7.6848062e-05
5.2235438e-05
-3.2749614e-12
-9.2323866e-05
5.4434789e-05
-2.895674e-12
-0.00010796027
5.5376063e-05
-2.53527e-12
-0.00012344397
5.5120778e-05
-2.1601992e-12
-0.0001384707
5.3717517e-05
-1.75629e-12
-0.00015274323
5.1200431e-05
-1.3249485e-12
-0.00016597054
4.7593498e-05
-8.8035365e-13
-0.00017786874
4.2918491e-05
-4.4165533e-13
-0.00018816405
3.7204881e-05
-1.4363019e-14
-0.0001965979
3.05002e-05
4.1999733e-13
-0.00020293384
2.2879672e-05
8.8220049e-13
-0.00020696615
1.4454222e-05
1.3597984e-12
-0.00020852929
5.3761657e-06
1.7975014e-12
-0.00020750811
-4.1581079e-06
2.1325728e-12
-0.00020384768
-1.3908584e-05
2.3581068e-12
-0.00019756247
-2.3595377e-05
2.5383886e-12
-0.00018874398
-3.2906986e-05
2.7613244e-12
-0.0001775659
-4.1511582e-05
3.0270135e-12
-0.00016428625
-4.9072083e-05
3.2048842e-12
-0.00014924549
-5.5264256e-05
3.1518794e-12
-0.00013285989
-5.9797072e-05
2.9102749e-12
-0.00011560969
-6.2434181e-05
2.7464213e-12
-9.8021794e-05
-6.3015038e-05
2.8990864e-12
-8.0647239e-05
-6.1474007e-05
3.2619977e-12
-6.403415e-05
-5.7855811e-05
3.4309968e-12
-4.8697408e-05
-5.2326111e-05
3.1998015e-12
-3.5086904e-05
-4.5176656e-05
2.8818532e-12
-2.3556718e-05
-3.682535e-05
2.9156153e-12
-1.433789e-05
-2.7812792e-05
3.5218156e-12
-7.5174579e-06
-1.8797461e-05
4.7642888e-12
-3.0267058e-06
-1.0548577e-05
3.7743523e-12
-6.4249817e-07
-3.9397003e-06
-1.9621311e-12
-4.7305751e-10
8.438921e-12
-2.1329376e-06
5.6584766e-06
-1.9493713e-11
-7.8910768e-06
1.8090644e-05
1.4958161e-11
-1.6717404e-05
3.0272748e-05
-4.0924561e-12
-2.8105738e-05
4.1400199e-05
-7.0674842e-12
-4.1585086e-05
5.1032323e-05
-3.8692746e-12
-5.6714134e-05
5.8947867e-05
-3.3565103e-12
-7.3078279e-05
6.507717e-05
-3.3689496e-12
-9.028709e-05
6.9444253e-05
-3.0576828e-12
-0.00010797132
7.2119028e-05
-2.6914286e-12
-0.00012577927
7.3184012e-05
-2.3495135e-12
-0.00014337274
7.2714252e-05
-2.0039067e-12
-0.00016042342
7.0768192e-05
-1.6391758e-12
-0.00017661019
6.7387201e-05
-1.2444719e-12
-0.00019161814
6.260145e-05
-8.1652113e-13
-0.00020513951
5.643987e-05
-3.726642e-13
-0.00021687684
4.8942212e-05
5.5510661e-14
-0.00022654814
4.0171507e-05
4.5322301e-13
-0.00023389407
3.0225588e-05
8.4003836e-13
-0.00023868651
1.9246652e-05
1.2492088e-12
-0.00024073843
7.4280873e-06
1.6819801e-12
-0.00023991436
-4.9821528e-06
2.0803971e-12
-0.00023614101
-1.7681921e-05
2.3677955e-12
-0.00022941746
-3.0318933e-05
2.5052618e-12
-0.00021982416
-4.2500318e-05
2.5696833e-12
-0.00020752994
-5.3805835e-05
2.6940923e-12
-0.00019279611
-6.38059e-05
2.9177018e-12
-0.00017597669
-7.2083627e-05
3.097875e-12
-0.00015751361
-7.8260116e-05
3.0341656e-12
-0.00013792611
-8.2021708e-05
2.7329257e-12
-0.00011779374
-8.3147483e-05
2.4991902e-12
-9.7732992e-05
-8.1534809e-05
2.6446546e-12
-7.8368144e-05
-7.7220619e-05
3.0818898e-12
-6.0297838e-05
-7.0396325e-05
3.3611235e-12
-4.4059485e-05
-6.1414981e-05
3.1950159e-12
-3.0094432e-05
-5.0790477e-05
2.822545e-12
-1.8717297e-05
-3.9189996e-05
3.1312366e-12
-1.0093056e-05
-2.7421674e-05
4.9920197e-12
-4.225293e-06
-1.6416297e-05
3.9290451e-12
-9.5847623e-07
-7.2065127e-06
-4.5751415e-12
-9.5897506e-07
1.043269e-11
-2.5450537e-06
8.203553e-06
-2.2291053e-11
-9.3288463e-06
2.4874415e-05
1.9207143e-11
-1.9615362e-05
4.0559268e-05
-3.640925e-12
-3.2756847e-05
5.4541693e-05
-7.3441817e-12
-4.8175883e-05
6.6451365e-05
-3.6674545e-12
-6.5354088e-05
7.6126075e-05
-3.2019525e-12
-8.3822139e-05
8.3545221e-05
-3.3658333e-12
-0.00010315062
8.8772739e-05
-3.1281852e-12
-0.00012294162
9.191003e-05
-2.7996478e-12
-0.00014282096
9.306335e-05
-2.4795022e-12
-0.00016243135
9.2324644e-05
-2.1483439e-12
-0.00018142688
8.9763727e-05
-1.8046613e-12
-0.00019946925
8.5429571e-05
-1.4439779e-12
-0.00021622605
7.9358245e-05
-1.0481673e-12
-0.00023137131
7.1585132e-05
-6.0655811e-13
-0.00024458833
6.2159237e-05
-1.3930666e-13
-0.00025557459
5.1157786e-05
3.1122543e-13
-0.00026404867
3.8699671e-05
7.1770179e-13
-0.00026975868
2.4956648e-05
1.0960357e-12
-0.0002724921
1.01615e-05
1.4905983e-12
-0.00027208669
-5.3875682e-06
1.9198055e-12
-0.00026844173
-2.1326869e-05
2.3449275e-12
-0.00026152974
-3.7230896e-05
2.6453221e-12
-0.00025140738
-5.2622678e-05
2.7569784e-12
-0.00023822498
-6.6988268e-05
2.7569526e-12
-0.00022223365
-7.9797267e-05
2.8204428e-12
-0.00020378866
-9.052863e-05
3.0343467e-12
-0.00018334762
-9.87011e-05
3.2540815e-12
-0.00016146238
-0.00010390689
3.2246857e-12
-0.00013876325
-0.00010584663
2.910437e-12
-0.00011593536
-0.00010436277
2.6381727e-12
-9.3687586e-05
-9.9468455e-05
2.7703402e-12
-7.2715453e-05
-9.1368427e-05
3.2293508e-12
-5.3660721e-05
-8.0469632e-05
3.4779828e-12
-3.7071056e-05
-6.7380124e-05
3.1415714e-12
-2.3363955e-05
-5.2897157e-05
3.1524e-12
-1.2799335e-05
-3.7986332e-05
5.2304206e-12
-5.4648797e-06
-2.3750734e-05
3.8035488e-12
-1.2772482e-06
-1.1394115e-05
-7.4286025e-12
-2.2362397e-06
1.2951367e-11
-2.9284805e-06
1.1132061e-05
-2.5009938e-11
-1.067367e-05
3.2619581e-05
2.3028074e-11
-2.2336173e-05
5.2221772e-05
-3.3536753e-12
-3.7135973e-05
6.9341501e-05
-7.7297028e-12
-5.4394106e-05
8.3709504e-05
-3.5887947e-12
-7.3517623e-05
9.5249596e-05
-3.1427892e-12
-9.3984295e-05
0.0001040119
-3.4301212e-12
-0.00011532796
0.0001101164
-3.2639603e-12
-0.00013712517
0.00011370725
-2.9879536e-12
-0.00015898353
0.00011492171
-2.7045694e-12
-0.00018053178
0.0001138729
-2.3878477e-12
-0.00020141215
0.0001106441
-2.0449618e-12
-0.00022127503
0.00010529246
-1.6926556e-12
-0.00023977618
9.7859396e-05
-1.3265404e-12
-0.00025657638
8.8385326e-05
-9.2124372e-13
-0.00027134347
7.6926324e-05
-4.5789988e-13
-0.00028375659
6.3570919e-05
4.4783846e-14
-0.00029351243
4.8455524e-05
5.3556446e-13
-0.00030033322
3.177744e-05
9.7002551e-13
-0.00030397636
1.3804632e-05
1.3496954e-12
-0.00030424558
-5.1183655e-06
1.7248244e-12
-0.00030100299
-2.4569473e-05
2.1713878e-12
-0.00029418252
-4.4051342e-05
2.6255671e-12
-0.00028380324
-6.3001928e-05
2.9568706e-12
-0.0002699822
-8.0809308e-05
3.0628694e-12
-0.00025294549
-9.6834007e-05
3.0078627e-12
-0.00023303602
-0.00011043816
3.0048969e-12
-0.00021071603
-0.0001210211
3.1923722e-12
-0.00018656268
-0.0001280602
3.433676e-12
-0.00016125481
-0.00013115444
3.4330697e-12
-0.00013554995
-0.00013006763
3.1240129e-12
-0.00011025149
-0.00012476699
2.8527053e-12
-8.6167421e-05
-0.00011545255
2.999694e-12
-6.4063748e-05
-0.00010257328
3.3700526e-12
-4.4616649e-05
-8.6827162e-05
3.2947598e-12
-2.8368515e-05
-6.9145289e-05
3.3692873e-12
-1.569316e-05
-5.0661729e-05
5.6958554e-12
-6.7752318e-06
-3.2668682e-05
3.6641479e-12
-1.6070351e-06
-1.656229e-05
-1.0487034e-11
-3.8432836e-06
1.553375e-11
-3.281699e-06
1.4413789e-05
-2.7607874e-11
-1.1915867e-05
4.1253726e-05
2.644784e-11
-2.4855508e-05
6.5161416e-05
-3.1729712e-12
-4.1199915e-05
8.5685915e-05
-8.1634022e-12
-6.0176306e-05
0.0001026859
-3.5955106e-12
-8.1122245e-05
0.00011619554
-3.1475332e-12
-0.0001034663
0.00012635596
-3.5210827e-12
-0.00012670888
0.00013335898
-3.3995498e-12
-0.00015040465
0.00013740301
-3.1685089e-12
-0.00017414714
0.0001386642
-2.9339447e-12
-0.00019755595
0.0001372817
-2.6524555e-12
-0.00022026669
0.00013335485
-2.3187766e-12
-0.00024192389
0.00012694967
-1.9560875e-12
-0.00026217668
0.00011811219
-1.587081e-12
-0.00028067717
0.00010688582
-1.2096346e-12
-0.00029708131
9.3330455e-05
-7.9296248e-13
-0.00031105196
7.7541572e-05
-3.0828432e-13
-0.00032226415
5.9667717e-05
2.3359462e-13
-0.0003304122
3.9925509e-05
7.7383833e-13
-0.00033521897
1.8611407e-05
1.2343116e-12
-0.00033644713
-3.8902152e-06
1.5877553e-12
-0.00033391174
-2.7104886e-05
1.9816324e-12
-0.00032749598
-5.046712e-05
2.4228045e-12
-0.00031716689
-7.3331008e-05
2.8971759e-12
-0.00030299229
-9.4983868e-05
3.2602976e-12
-0.00028515681
-0.00011466947
3.3663137e-12
-0.00026397517
-0.00013161982
3.261343e-12
-0.00023990064
-0.0001450957
3.1871667e-12
-0.00021352586
-0.00015443501
3.3258235e-12
-0.00018557379
-0.00015910647
3.550595e-12
-0.00015687656
-0.0001587648
3.5472205e-12
-0.00012834161
-0.00015330193
3.2586105e-12
-0.00010090608
-0.00014288815
3.0536263e-12
-7.5482503e-05
-0.0001279969
3.1546255e-12
-5.2901154e-05
-0.00010940849
3.1253968e-12
-3.3855101e-05
-8.8191304e-05
3.4629898e-12
-1.8854777e-05
-6.566206e-05
6.3288388e-12
-8.1982681e-06
-4.3325216e-05
3.6629555e-12
-1.9611677e-06
-2.2799384e-05
-1.3760843e-11
-5.8044641e-06
1.8202597e-11
-3.6023031e-06
1.8016122e-05
-3.0042287e-11
-1.304487e-05
5.0696268e-05
2.9458085e-11
-2.7149285e-05
7.9265837e-05
-3.0845733e-12
-4.4907164e-05
0.0001034438
-8.6197242e-12
-6.54615e-05
0.00012324024
-3.6664818e-12
-8.8087228e-05
0.00013882127
-3.2265437e-12
-0.0001121688
0.00015043753
-3.6742615e-12
-0.00013717742
0.0001583676
-3.5771984e-12
-0.00016264988
0.00016287548
-3.3693749e-12
-0.00018816993
0.00016418425
-3.1738082e-12
-0.00021335264
0.00016246442
-2.9404564e-12
-0.00023783203
0.00015783424
-2.6452925e-12
-0.00026125191
0.00015036955
-2.290929e-12
-0.00028325983
0.00014012012
-1.9018419e-12
-0.00030350382
0.00012712982
-1.5076669e-12
-0.00032163166
0.00011145829
-1.1121384e-12
-0.00033729244
9.320235e-05
-6.8160483e-13
-0.00035014039
7.2515651e-05
-1.7441776e-13
-0.00035984079
4.9625921e-05
4.0968814e-13
-0.00036607842
2.4849054e-05
9.8843979e-13
-0.00036856895
-1.3996683e-06
1.4326933e-12
-0.00036707133
-2.8602514e-05
1.892449e-12
-0.00036140637
-5.6132114e-05
2.2637045e-12
-0.00035147459
-8.3262815e-05
2.683952e-12
-0.00033727784
-0.00010918062
3.1673499e-12
-0.0003189409
-0.00013300637
3.5517632e-12
-0.00029673173
-0.00015382897
3.6568537e-12
-0.00027107725
-0.00017075019
3.5108195e-12
-0.00024257164
-0.00018294068
3.3726439e-12
-0.0002119733
-0.00018970484
3.4483594e-12
-0.0001801876
-0.00019055047
3.6163716e-12
-0.0001482333
-0.00018525618
3.5886116e-12
-0.00011719274
-0.0001739287
3.3658001e-12
-8.8148962e-05
-0.00015704073
3.1669601e-12
-6.2115402e-05
-0.00013544208
2.8788885e-12
-3.9966493e-05
-0.0001103402
3.35043e-12
-2.2377603e-05
-8.3250933e-05
6.9587713e-12
-9.7826863e-06
-5.5920136e-05
3.7549926e-12
-2.3546973e-06
-3.0227365e-05
-1.7293834e-11
-8.1591841e-06
2.1175346e-11
-3.8870505e-06
2.1903205e-05
-3.2259432e-11
-1.4048659e-05
6.0857846e-05
3.2048759e-11
-2.9192049e-05
9.4409235e-05
-3.0867928e-12
-4.8215258e-05
0.00012246702
-9.0880857e-12
-7.0187836e-05
0.00014521282
-3.7859224e-12
-9.4330055e-05
0.00016296349
-3.3595755e-12
-0.00011998821
0.00017609569
-3.8856308e-12
-0.00014660908
0.00018498847
-3.8152168e-12
-0.00017371588
0.00018998228
-3.6189798e-12
-0.00020088685
0.00019135523
-3.4399565e-12
-0.00022773708
0.00018931465
-3.2389928e-12
-0.0002539038
0.00018400096
-2.9931797e-12
-0.0002790352
0.00017550094
-2.6838549e-12
-0.00030278232
0.00016386725
-2.3060292e-12
-0.00032479396
0.00014914147
-1.8843149e-12
-0.00034471403
0.00013137837
-1.4559074e-12
-0.00036218125
0.00011066957
-1.03367e-12
-0.00037683113
8.7165522e-05
-5.8562876e-13
-0.00038830042
6.1095195e-05
-5.7450989e-14
-0.00039623428
3.278291e-05
5.7879992e-13
-0.00040029638
2.6624508e-06
1.2765884e-12
-0.00040018387
-2.8715007e-05
1.8045611e-12
-0.00039564404
-6.067194e-05
2.2191333e-12
-0.00038649736
-9.2409529e-05
2.5671935e-12
-0.00037266264
-0.00012301537
2.9680012e-12
-0.00035418498
-0.00015148403
3.4422704e-12
-0.00033126379
-0.00017675012
3.8244739e-12
-0.00030427781
-0.00019773614
3.9139714e-12
-0.00027380298
-0.00021341553
3.7293011e-12
-0.00024061831
-0.00022288956
3.5344966e-12
-0.00020569521
-0.0002254736
3.5341688e-12
-0.00017016639
-0.00022078498
3.627673e-12
-0.00013527316
-0.00020882189
3.6065015e-12
-0.00010229331
-0.00019002058
3.3646832e-12
-7.2455939e-05
-0.00016527948
2.7785998e-12
-4.6853303e-05
-0.00013594285
3.1891115e-12
-2.6361364e-05
-0.00010374287
7.5552288e-12
-1.1580437e-05
-7.0701054e-05
3.8350954e-12
-2.8033124e-06
-3.9004469e-05
-2.1238902e-11
-1.0962525e-05
2.461486e-11
-4.1321158e-06
2.6035357e-05
-3.4207371e-11
-1.4914096e-05
7.1639792e-05
3.4219191e-11
-3.0957128e-05
0.00011045227
-3.1679077e-12
-5.1080649e-05
0.00014259056
-9.5663469e-12
-7.4292267e-05
0.00016842444
-3.9493948e-12
-9.976612e-05
0.00018843735
-3.5265119e-12
-0.00012681669
0.00020314625
-4.1267441e-12
-0.0001548713
0.00021304309
-4.0954991e-12
-0.00018344394
0.00021855492
-3.9218638e-12
-0.0002121115
0.0002200228
-3.7536437e-12
-0.00024049344
0.00021769659
-3.5606709e-12
-0.00026823493
0.00021174245
-3.3403766e-12
-0.00029499352
0.00020225953
-3.0816735e-12
-0.00032042905
0.00018930278
-2.7571823e-12
-0.0003441964
0.00017290883
-2.3542346e-12
-0.00036594074
0.00015312272
-1.8948516e-12
-0.00038529504
0.00013002388
-1.4233759e-12
-0.00040188
0.00010375049
-9.6644385e-13
-0.00041530644
7.4521616e-05
-4.9645106e-13
-0.00042518077
4.265723e-05
7.1275429e-14
-0.00043111397
8.5956412e-06
7.9581656e-13
-0.00043273622
-2.7092745e-05
1.464408e-12
-0.00042971415
-6.3693985e-05
2.0843826e-12
-0.00042177616
-0.00010034751
2.5469286e-12
-0.00040874172
-0.00013604985
2.8976019e-12
-0.0003905554
-0.00016967039
3.2766248e-12
-0.00036732352
-0.00019998201
3.7205769e-12
-0.0003393498
-0.00022570983
4.0667602e-12
-0.00030716535
-0.00024559994
4.1132724e-12
-0.00027154682
-0.0002585081
3.8816403e-12
-0.00023351602
-0.00026350445
3.6283326e-12
-0.000194315
-0.00025998603
3.5566032e-12
-0.00015535291
-0.00024778396
3.6175671e-12
-0.00011812525
-0.00022724821
3.4935663e-12
-8.4111822e-05
-0.00019929292
2.7768069e-12
-5.4665484e-05
-0.00016538921
3.1159519e-12
-3.0907346e-05
-0.00012750102
8.2356924e-12
-1.3644698e-05
-8.79637e-05
3.8809261e-12
-3.3229903e-06
-4.9326144e-05
-2.578824e-11
-1.4285544e-05
2.8622526e-11
-4.3334525e-06
3.0368849e-05
-3.5850962e-11
-1.5627792e-05
8.2934096e-05
3.5963458e-11
-3.2417908e-05
0.00012724239
-3.2995995e-12
-5.3460304e-05
0.00016363297
-1.0039726e-11
-7.7712456e-05
0.0001926766
-4.1621024e-12
-0.000104311
0.00021503589
-3.7296425e-12
-0.00013254491
0.00023138017
-4.3823654e-12
-0.00016182693
0.00024232512
-4.3890689e-12
-0.00019166588
0.00024839387
-4.2532434e-12
-0.00022164124
0.00024999817
-4.113788e-12
-0.00025138097
0.00024743632
-3.9294624e-12
-0.00028054265
0.00024090414
-3.7086849e-12
-0.00030879822
0.00023051511
-3.4671042e-12
-0.00033582178
0.00021632635
-3.1918048e-12
-0.00036128018
0.00019836722
-2.8506204e-12
-0.00038482595
0.00017666849
-2.4218494e-12
-0.00040609255
0.00015129049
-1.9212203e-12
-0.00042469178
0.00012234972
-1.3997685e-12
-0.00044021384
9.0043685e-05
-8.9744378e-13
-0.00045223065
5.4674024e-05
-3.8554257e-13
-0.00046030304
1.6668012e-05
2.1980837e-13
-0.00046399358
-2.3402215e-05
9.1572154e-13
-0.00046288449
-6.4803069e-05
1.6902002e-12
-0.0004566034
-0.00010662857
2.3870605e-12
-0.00044485607
-0.00014779717
2.8928708e-12
-0.00042746612
-0.00018706036
3.2521446e-12
-0.00040442023
-0.00022302794
3.6047576e-12
-0.00037591562
-0.00025421445
3.9916886e-12
-0.00034240458
-0.00027911096
4.2596439e-12
-0.0003046286
-0.00029628404
4.2259164e-12
-0.00026363337
-0.00030449969
3.9276939e-12
-0.00022075513
-0.0003028643
3.6290436e-12
-0.00017757164
-0.00029096747
3.5478294e-12
-0.00013581501
-0.00026900483
3.445801e-12
-9.7251924e-05
-0.00023785598
2.6907213e-12
-6.3544834e-05
-0.0001990963
3.0904912e-12
-3.6114692e-05
-0.00015493119
9.1043253e-12
-1.6028561e-05
-0.00010804984
3.9564305e-12
-3.9298364e-06
-6.1424836e-05
-3.1083599e-11
-1.8215412e-05
3.3293199e-11
-4.4872228e-06
3.4856112e-05
-3.7167084e-11
-1.6177321e-05
9.4624162e-05
3.7255897e-11
-3.3549897e-05
0.00014461497
-3.4556638e-12
-5.5314554e-05
0.00018539763
-1.047642e-11
-8.0390367e-05
0.00021775242
-4.4150928e-12
-0.0001078848
0.00024253033
-3.9778305e-12
-0.00013706725
0.00026056262
-4.6606352e-12
-0.00016734027
0.00027259814
-4.6865772e-12
-0.0001982112
0.00027926479
-4.5830786e-12
-0.00022926561
0.00028105259
-4.4866138e-12
-0.00026014368
0.00027831439
-4.3349915e-12
-0.00029051967
0.00027128014
-4.1214208e-12
-0.00032008483
0.00026008028
-3.8708815e-12
-0.00034853317
0.0002447747
-3.6007648e-12
-0.00037554993
0.00022538398
-3.3023428e-12
-0.00040080218
0.00020192074
-2.9416422e-12
-0.0004239316
0.00017441991
-2.4858673e-12
-0.0004445493
0.00014296743
-1.9414765e-12
-0.00046223321
0.00010772761
-1.3615418e-12
-0.00047652862
6.8969439e-05
-7.9651267e-13
-0.00048695288
2.7092262e-05
-2.3436156e-13
-0.00049300565
-1.7349466e-05
3.8788274e-13
-0.00049418565
-6.3623084e-05
1.1409019e-12
-0.00049001583
-0.00011079838
1.9717563e-12
-0.00048007774
-0.00015773523
2.7213657e-12
-0.00046405565
-0.00020308244
3.2637079e-12
-0.00044178975
-0.00024529387
3.6264072e-12
-0.00041333576
-0.00028266847
3.9361537e-12
-0.00037902597
-0.00031342077
4.2287745e-12
-0.00033952333
-0.00033578666
4.366613e-12
-0.0002958575
-0.0003481655
4.2078653e-12
-0.00024942979
-0.00034929202
3.847731e-12
-0.00020197497
-0.00033842231
3.5795475e-12
-0.00015547284
-0.00031550697
3.3310856e-12
-0.00011201159
-0.00028131723
2.4463408e-12
-7.3617491e-05
-0.00023749039
2.9887457e-12
-4.2077e-05
-0.00018647169
1.014946e-11
-1.8784003e-05
-0.00013134285
4.1057067e-12
-4.6400117e-06
-7.5568793e-05
-3.7224337e-11
-2.2855462e-05
3.874904e-11
-4.5902837e-06
3.9446435e-05
-3.8130045e-11
-1.6552688e-05
0.00010658653
3.8061534e-11
-3.4333347e-05
0.00016239564
-3.6313278e-12
-5.6610886e-05
0.00020767518
-1.0849003e-11
-8.2277186e-05
0.00024341872
-4.6838334e-12
-0.00011041819
0.00027067134
-4.2632428e-12
-0.00014028892
0.00029043336
-4.9717027e-12
-0.00017128552
0.00030359474
-5.0026376e-12
-0.00020291689
0.00031089618
-4.9086789e-12
-0.00023477769
0.00031291339
-4.84115e-12
-0.00026652359
0.00031006029
-4.7326309e-12
-0.00029784946
0.00030260601
-4.5541171e-12
-0.00032847061
0.00029070143
-4.3099207e-12
-0.00035810672
0.00027441082
-4.0214918e-12
-0.00038646825
0.00025374552
-3.7118701e-12
-0.00041324485
0.00022869735
-3.3812048e-12
-0.00043809568
0.00019927073
-2.9949862e-12
-0.00046064153
0.00016551328
-2.5085364e-12
-0.00048045932
0.0001275454
-1.9161317e-12
-0.00049707946
8.5589589e-05
-1.2692734e-12
-0.00050998719
4.0000005e-05
-6.3274846e-13
-0.00051862938
-8.7072773e-06
-1.2226546e-14
-0.00052242835
-5.982414e-05
6.6017536e-13
-0.00052080464
-0.00011242211
1.4566328e-12
-0.00051321091
-0.00016532896
2.3266076e-12
-0.00049917822
-0.0002171151
3.1080171e-12
-0.00047837548
-0.00026609658
3.664752e-12
-0.00045068059
-0.00031036338
4.0074663e-12
-0.00041625892
-0.00034784247
4.2394163e-12
-0.00037564087
-0.00037640472
4.3825825e-12
-0.00032978532
-0.00039402103
4.3283714e-12
-0.00028011189
-0.00039896543
4.0370738e-12
-0.00022848372
-0.00039005049
3.6995732e-12
-0.00017712616
-0.00036686454
3.2654002e-12
-0.00012847766
-0.00032996575
2.1104365e-12
-8.4985584e-05
-0.00028098247
2.7627129e-12
-4.8878638e-05
-0.00022257864
1.1315676e-11
-2.1960823e-05
-0.00015826066
4.3071995e-12
-5.469678e-06
-9.2059896e-05
-4.4323152e-11
-2.8325185e-05
4.5128097e-11
-4.64072e-06
4.4087194e-05
-3.8711304e-11
-1.6747988e-05
0.00011869376
3.8363908e-11
-3.4756312e-05
0.00018040397
-3.8374827e-12
-5.7328463e-05
0.00023024735
-1.1154532e-11
-8.3339267e-05
0.00026942953
-4.9502087e-12
-0.00011185972
0.0002991918
-4.5636778e-12
-0.00014213476
0.0003207084
-5.3072744e-12
-0.00017355703
0.00033501703
-5.3496309e-12
-0.00020563945
0.0003429786
-5.2527944e-12
-0.00023798811
0.00034526206
-5.1839362e-12
-0.00027027702
0.0003423492
-5.093263e-12
-0.0003022252
0.0003345542
-4.9519215e-12
-0.00033357654
0.00032205277
-4.7420082e-12
-0.00036408207
0.00030491636
-4.4583001e-12
-0.00039348459
0.00028314806
-4.1196725e-12
-0.00042150501
0.00025671777
-3.7573809e-12
-0.00044783032
0.00022559604
-3.3819609e-12
-0.00047210323
0.00018978618
-2.9593367e-12
-0.00049391354
0.00014935571
-2.4339556e-12
-0.00051279209
0.00010446813
-1.78699e-12
-0.00052820808
5.5416013e-05
-1.0676851e-12
-0.00053957139
2.6560504e-06
-3.4831767e-13
-0.00054624183
-5.3153702e-05
3.3429786e-13
-0.00054754742
-0.00011111654
1.0634631e-12
-0.00054281501
-0.00017006139
1.8986475e-12
-0.00053141581
-0.0002285143
2.7859805e-12
-0.00051282804
-0.00028468434
3.5635629e-12
-0.00048671736
-0.00033647404
4.0932547e-12
-0.00045303246
-0.00038152738
4.3685244e-12
-0.00041210824
-0.00041732896
4.4584562e-12
-0.00036476275
-0.00044136654
4.3752716e-12
-0.00031236681
-0.00045136136
4.1106931e-12
-0.0002568608
-0.00044555649
3.7804399e-12
-0.0002006938
-0.00042303154
3.2218427e-12
-0.00014667113
-0.00038398842
1.7363052e-12
-9.7717409e-05
-0.0003299362
2.4434996e-12
-5.6590333e-05
-0.00026370572
1.2596595e-11
-2.5605326e-05
-0.00018924567