/*--------------------------------*- C++ -*----------------------------------*\
  =========                 |
  \\      /  F ield         | OpenFOAM: The Open Source CFD Toolbox
   \\    /   O peration     | Website:  https://openfoam.org
    \\  /    A nd           | Version:  7
     \\/     M anipulation  |
\*---------------------------------------------------------------------------*/
FoamFile
{
    version     2.0;
    format      ascii;
    class       volVectorField;
    location    "46";
    object      U;
}
// * * * * * * * * * * * * * * * * * * * * * * * * * * * * * * * * * * * * * //

dimensions      [0 1 -1 0 0 0 0];

internalField   nonuniform List<vector> 
16000
(
(6.6065857e-05 -6.7311313e-05 -3.9784277e-07)
(0.00016278708 -5.63424e-05 5.7068554e-06)
(0.00014194045 4.6932453e-07 1.9207224e-05)
(-5.0608313e-05 6.1894166e-05 3.6629835e-05)
(-0.00040996485 0.00011563273 5.4738504e-05)
(-0.00090902095 0.00015774467 7.1566986e-05)
(-0.0015177082 0.00018850528 8.5779195e-05)
(-0.002206884 0.00020960941 9.6559923e-05)
(-0.0029505999 0.00022287697 0.00010344883)
(-0.0037264637 0.00022981124 0.00010619905)
(-0.0045150494 0.00023147724 0.00010468341)
(-0.0052990121 0.0002285041 9.8838827e-05)
(-0.006062192 0.00022114751 8.8640606e-05)
(-0.0067888631 0.00020938307 7.4099256e-05)
(-0.0074632152 0.00019301363 5.5273545e-05)
(-0.0080691166 0.00017178048 3.2293751e-05)
(-0.0085901696 0.00014547159 5.3898459e-06)
(-0.00901005 0.00011402187 -2.5080256e-05)
(-0.0093131029 7.7601364e-05 -5.8606734e-05)
(-0.0094851494 3.6687308e-05 -9.4512012e-05)
(-0.0095144494 -7.8865531e-06 -0.00013194647)
(-0.0093927309 -5.4924198e-05 -0.00016989879)
(-0.0091162249 -0.00010284353 -0.00020722236)
(-0.008686603 -0.0001497494 -0.00024267929)
(-0.0081116927 -0.00019351213 -0.00027500003)
(-0.0074058968 -0.00023188633 -0.00030295612)
(-0.006590222 -0.00026266089 -0.0003254413)
(-0.0056918551 -0.00028382701 -0.00034155522)
(-0.0047432603 -0.000293748 -0.00035068283)
(-0.003780817 -0.00029131167 -0.00035256238)
(-0.0028430635 -0.00027604667 -0.00034733436)
(-0.001968654 -0.00024818876 -0.0003355667)
(-0.0011941465 -0.00020869753 -0.00031825511)
(-0.00055166637 -0.00015926141 -0.00029680303)
(-6.6503459e-05 -0.0001024069 -0.00027297813)
(0.00024492417 -4.1754813e-05 -0.00024883823)
(0.00037893938 1.7848462e-05 -0.00022676748)
(0.00034977886 6.7070546e-05 -0.00020920448)
(0.0002061847 8.9852143e-05 -0.00019881943)
(5.7466614e-05 5.7409279e-05 -0.00018437756)
(5.8016176e-05 -0.00016699585 -6.6242507e-06)
(4.0908633e-05 -3.9931427e-05 -3.683439e-07)
(-0.00029495323 0.00024858177 1.1265328e-05)
(-0.0010110095 0.00056213428 2.563144e-05)
(-0.0020992187 0.00084750326 4.0616477e-05)
(-0.0035140825 0.0010831252 5.4624671e-05)
(-0.0051946835 0.0012643046 6.6528791e-05)
(-0.007076629 0.0013940704 7.5576504e-05)
(-0.009098151 0.0014779628 8.1285921e-05)
(-0.011202307 0.0015215287 8.3357378e-05)
(-0.013337037 0.0015292124 8.1607622e-05)
(-0.01545418 0.0015039768 7.5926746e-05)
(-0.017508152 0.0014473583 6.6256398e-05)
(-0.019454719 0.0013597788 5.2585768e-05)
(-0.021250159 0.0012410025 3.4960915e-05)
(-0.022850978 0.0010906589 1.350299e-05)
(-0.024214229 0.00090877519 -1.1568974e-05)
(-0.025298436 0.00069627573 -3.99149e-05)
(-0.026065059 0.00045541429 -7.1054061e-05)
(-0.0264804 0.00019010662 -0.00010435235)
(-0.026517816 -9.3865477e-05 -0.0001390192)
(-0.026159989 -0.00038877577 -0.00017412326)
(-0.02540117 -0.00068509079 -0.00020860856)
(-0.024249171 -0.00097175921 -0.00024134225)
(-0.022726751 -0.0012366942 -0.00027116835)
(-0.02087235 -0.0014674287 -0.00029697542)
(-0.018739914 -0.001651906 -0.000317772)
(-0.016397719 -0.0017793506 -0.00033276308)
(-0.013926127 -0.0018411454 -0.00034142141)
(-0.011414317 -0.0018316351 -0.00034354725)
(-0.008956097 -0.0017487769 -0.00033931066)
(-0.0066450035 -0.0015945878 -0.00032927099)
(-0.0045688966 -0.0013753899 -0.00031437003)
(-0.0028042251 -0.001101966 -0.0002958997)
(-0.0014100213 -0.00078992172 -0.00027544937)
(-0.00042163407 -0.00046058797 -0.00025483054)
(0.00015577076 -0.00014255697 -0.00023595733)
(0.00035672935 0.00012231827 -0.00022085046)
(0.00027526547 0.00027113081 -0.00021161475)
(9.0124367e-05 0.00020509761 -0.00019543396)
(1.9244065e-06 -0.00014894127 -2.0409866e-05)
(-0.00025603409 0.00029704476 -1.1789707e-05)
(-0.0010504358 0.0010236437 1.0867979e-07)
(-0.0023878133 0.0017975533 1.3088887e-05)
(-0.0042394332 0.0025099134 2.6125198e-05)
(-0.0065455552 0.0031100643 3.8076698e-05)
(-0.0092251197 0.0035809311 4.8116475e-05)
(-0.012189997 0.0039234376 5.5683948e-05)
(-0.015352988 0.0041461891 6.0397432e-05)
(-0.018631056 0.0042595943 6.2000152e-05)
(-0.02194608 0.0042728178 6.0319154e-05)
(-0.025224258 0.0041924777 5.5236692e-05)
(-0.028394924 0.0040224715 4.667652e-05)
(-0.031389393 0.0037645252 3.460355e-05)
(-0.034140222 0.0034191711 1.9033897e-05)
(-0.036581145 0.0029869399 5.2007373e-08)
(-0.038647754 0.0024696056 -2.2168389e-05)
(-0.040278948 0.0018713584 -4.7342856e-05)
(-0.041419059 0.0011998076 -7.5057729e-05)
(-0.042020508 0.00046672927 -0.00010475793)
(-0.042046773 -0.00031150075 -0.00013574555)
(-0.041475477 -0.0011138127 -0.00016718569)
(-0.040301323 -0.0019148774 -0.00019813155)
(-0.038538562 -0.0026858631 -0.00022756009)
(-0.036222759 -0.0033956789 -0.0002544227)
(-0.033411587 -0.0040126083 -0.0002777082)
(-0.030184433 -0.0045062497 -0.00029651373)
(-0.026640648 -0.004849638 -0.00031011722)
(-0.022896385 -0.0050213889 -0.00031804395)
(-0.019080023 -0.0050076875 -0.00032012031)
(-0.015326332 -0.0048039532 -0.00031650958)
(-0.011769573 -0.0044160683 -0.000307726)
(-0.0085358372 -0.0038611615 -0.00029462382)
(-0.0057348831 -0.0031681029 -0.00027835946)
(-0.003451706 -0.0023781143 -0.00026032932)
(-0.001737981 -0.0015461876 -0.00024208744)
(-0.00060368404 -0.00074418682 -0.00022523918)
(-8.0361859e-06 -6.6358604e-05 -0.00021137516)
(0.00015540802 0.00036039852 -0.00020218929)
(7.3553683e-05 0.00035437943 -0.00018527762)
(-6.4681468e-05 5.0435002e-05 -3.8661693e-05)
(-0.00060837359 0.0010457779 -2.6121574e-05)
(-0.0019305294 0.0023817539 -1.2140252e-05)
(-0.0039464298 0.0037565332 1.1526525e-06)
(-0.0065890094 0.0050153251 1.3741026e-05)
(-0.009779198 0.0060800717 2.4865377e-05)
(-0.013417129 0.0069205282 3.3988468e-05)
(-0.017395535 0.0075341183 4.0775095e-05)
(-0.021607747 0.0079314003 4.4989375e-05)
(-0.025950709 0.0081270435 4.6459427e-05)
(-0.030325867 0.0081347709 4.5054392e-05)
(-0.034638818 0.0079650036 4.066791e-05)
(-0.038798386 0.0076243761 3.3212936e-05)
(-0.042715708 0.0071165086 2.2627249e-05)
(-0.046303776 0.0064435537 8.8872505e-06)
(-0.049477695 0.0056081438 -7.9725191e-06)
(-0.052155752 0.0046154482 -2.7836808e-05)
(-0.054261315 0.0034751105 -5.0486702e-05)
(-0.055725443 0.0022028881 -7.557923e-05)
(-0.056490045 0.00082185069 -0.00010263299)
(-0.056511345 -0.00063697029 -0.00013102314)
(-0.055763447 -0.0021345973 -0.00015998455)
(-0.054241671 -0.0036248158 -0.0001886354)
(-0.05196532 -0.0050556217 -0.0002160091)
(-0.048979666 -0.0063713942 -0.00024110293)
(-0.045356812 -0.0075157196 -0.00026293904)
(-0.041195195 -0.0084347287 -0.00028063441)
(-0.036617538 -0.009080751 -0.00029347408)
(-0.031767145 -0.0094160279 -0.00030097952)
(-0.02680252 -0.0094162021 -0.00030296312)
(-0.021890419 -0.0090733055 -0.00029956174)
(-0.017197571 -0.0083980417 -0.00029124586)
(-0.012881385 -0.0074212969 -0.00027880343)
(-0.0090800538 -0.0061950236 -0.00026329814)
(-0.0059024819 -0.0047929328 -0.00024600208)
(-0.0034184979 -0.0033118184 -0.00022830805)
(-0.0016495323 -0.0018745328 -0.00021164058)
(-0.00055980109 -0.00063470711 -0.00019738691)
(-5.0115166e-05 0.00021500379 -0.00018678156)
(3.8094459e-05 0.0004138328 -0.00016797464)
(-0.00013086429 0.00044556883 -5.8177905e-05)
(-0.00097094668 0.0022426998 -4.1111528e-05)
(-0.0028462072 0.0043591959 -2.4229138e-05)
(-0.0055648076 0.0064572236 -9.7968008e-06)
(-0.0090094363 0.008353484 3.1218503e-06)
(-0.013075456 0.0099514589 1.4101989e-05)
(-0.017642275 0.011211754 2.2880574e-05)
(-0.022584677 0.012129589 2.9352787e-05)
(-0.02777963 0.012717529 3.3441514e-05)
(-0.033108111 0.012994151 3.5073965e-05)
(-0.038455493 0.012977369 3.417283e-05)
(-0.043711126 0.012681218 3.0649655e-05)
(-0.048767518 0.012115131 2.4407523e-05)
(-0.05351963 0.011284989 1.5352906e-05)
(-0.057864698 0.010195261 3.4145005e-06)
(-0.061702793 0.0088517418 -1.1433092e-05)
(-0.064938228 0.0072644399 -2.914316e-05)
(-0.067481793 0.0054502914 -4.9570529e-05)
(-0.069253702 0.0034354347 -7.2447611e-05)
(-0.070187074 0.0012568424 -9.7365865e-05)
(-0.070231726 -0.0010368525 -0.00012376594)
(-0.069358017 -0.0033854766 -0.00015093922)
(-0.067560464 -0.0057183968 -0.0001780447)
(-0.0648608 -0.0079566871 -0.0002041409)
(-0.061310202 -0.010016304 -0.00022823365)
(-0.056990366 -0.011812192 -0.0002493373)
(-0.052013154 -0.013263142 -0.00026654573)
(-0.046518562 -0.014297146 -0.00027910799)
(-0.040670852 -0.01485689 -0.00028650083)
(-0.034652768 -0.014904998 -0.00028848859)
(-0.028657899 -0.014428609 -0.00028516016)
(-0.022881406 -0.013442969 -0.00027693694)
(-0.017509482 -0.011993826 -0.00026455088)
(-0.012708058 -0.010158717 -0.00024899618)
(-0.008611467 -0.0080474997 -0.00023145663)
(-0.0053117543 -0.0058029605 -0.00021321675)
(-0.0028485197 -0.0036024765 -0.00019559373)
(-0.001200035 -0.0016605447 -0.00017984974)
(-0.00028881022 -0.00023377914 -0.00016670358)
(-2.4716377e-06 0.0003504644 -0.00014547093)
(-0.00019286448 0.0010313081 -7.6658165e-05)
(-0.0013239849 0.0038925383 -5.4753091e-05)
(-0.0037518543 0.0069680057 -3.4548291e-05)
(-0.0071732966 0.0099108258 -1.8454821e-05)
(-0.011414804 0.012527405 -4.6590827e-06)
(-0.016341481 0.014714511 6.7037684e-06)
(-0.021809618 0.016430508 1.5620738e-05)
(-0.027675877 0.017672024 2.2206372e-05)
(-0.033802396 0.018455253 2.6539119e-05)
(-0.040056848 0.018803217 2.8645741e-05)
(-0.046311838 0.018738082 2.850353e-05)
(-0.052444061 0.018277411 2.6041567e-05)
(-0.058333356 0.017433438 2.1150281e-05)
(-0.063862063 0.016214496 1.3699447e-05)
(-0.068914993 0.014627824 3.5624805e-06)
(-0.073380203 0.012683109 -9.3547797e-06)
(-0.077150615 0.01039621 -2.5082843e-05)
(-0.080126455 0.0077926369 -4.3557253e-05)
(-0.082218395 0.0049104446 -6.4589719e-05)
(-0.083351221 0.0018022807 -8.7844494e-05)
(-0.083467825 -0.0014636098 -0.00011282319)
(-0.082533264 -0.0048035806 -0.0001388619)
(-0.080538655 -0.0081200487 -0.00016514276)
(-0.077504588 -0.011304336 -0.00019072411)
(-0.073483764 -0.014240832 -0.000214588)
(-0.068562535 -0.016812392 -0.00023570366)
(-0.062861006 -0.018906783 -0.0002531023)
(-0.056531401 -0.020423861 -0.00026595719)
(-0.049754416 -0.021283051 -0.00027366161)
(-0.042733402 -0.021430611 -0.00027589577)
(-0.035686357 -0.020846122 -0.00027267184)
(-0.028835913 -0.019547674 -0.00026434726)
(-0.022397705 -0.017595393 -0.00025160198)
(-0.01656776 -0.015093169 -0.000235383)
(-0.011509866 -0.012188859 -0.0002168223)
(-0.0073438995 -0.0090736715 -0.00019714545)
(-0.004134536 -0.0059816737 -0.00017763104)
(-0.0018815982 -0.0031890389 -0.00015951602)
(-0.00053619242 -0.0010143225 -0.00014312352)
(-4.1245621e-05 0.0001589487 -0.00011903281)
(-0.00025011643 0.0017985713 -9.2144956e-05)
(-0.0016597719 0.0059841442 -6.5253639e-05)
(-0.0046244546 0.010198622 -4.1567165e-05)
(-0.0087321674 0.014107026 -2.35123e-05)
(-0.013751602 0.017522342 -8.47393e-06)
(-0.019515078 0.020347123 3.6650405e-06)
(-0.025854143 0.02254593 1.311644e-05)
(-0.032607008 0.024122008 2.0196301e-05)
(-0.039621881 0.025098114 2.5126808e-05)
(-0.04675501 0.025503182 2.8026219e-05)
(-0.053868799 0.025364232 2.8920168e-05)
(-0.060830247 0.024702541 2.7749443e-05)
(-0.067509641 0.023533177 2.4385561e-05)
(-0.073779768 0.021866981 1.8654499e-05)
(-0.079515879 0.019714125 1.0366372e-05)
(-0.084596503 0.017088491 -6.5044756e-07)
(-0.08890513 0.014012234 -1.451247e-05)
(-0.092332705 0.010520009 -3.1243759e-05)
(-0.094780825 0.0066624813 -5.0740884e-05)
(-0.09616547 0.0025088061 -7.2743143e-05)
(-0.096421124 -0.0018521458 -9.6811402e-05)
(-0.095505032 -0.006311995 -0.00012231992)
(-0.093401436 -0.010744591 -0.00014846222)
(-0.090125483 -0.015009424 -0.00017427814)
(-0.085726507 -0.01895667 -0.00019869991)
(-0.080290344 -0.022433825 -0.0002206181)
(-0.073940285 -0.025293749 -0.0002389623)
(-0.066836243 -0.027403772 -0.00025278899)
(-0.059171755 -0.028655379 -0.0002613678)
(-0.051168507 -0.028973824 -0.00026425687)
(-0.043068248 -0.028326927 -0.00026135759)
(-0.035122197 -0.026732283 -0.00025293823)
(-0.027578339 -0.024262246 -0.00023961821)
(-0.020667346 -0.021046307 -0.00022231163)
(-0.01458835 -0.017270901 -0.00020213438)
(-0.0094958196 -0.013177225 -0.00018030434)
(-0.0054864895 -0.0090579298 -0.00015812653)
(-0.0025879523 -0.0052522181 -0.00013689462)
(-0.00078446861 -0.0021405352 -0.00011661231)
(-7.6873248e-05 -0.00016053779 -8.940917e-05)
(-0.00030295608 0.0027365296 -0.00010296857)
(-0.0019754984 0.0084981068 -7.0996596e-05)
(-0.0054521405 0.014028584 -4.3848665e-05)
(-0.010217972 0.0190214 -2.370389e-05)
(-0.01598518 0.023311107 -7.2085524e-06)
(-0.022552798 0.026818209 5.9804226e-06)
(-0.029727185 0.029522444 1.6277681e-05)
(-0.037328209 0.03143979 2.4181114e-05)
(-0.045190987 0.032603416 3.0040785e-05)
(-0.053161894 0.033050385 3.4053584e-05)
(-0.061095251 0.032813704 3.6282614e-05)
(-0.068850863 0.031918834 3.6670708e-05)
(-0.076292144 0.030383793 3.5061372e-05)
(-0.083284993 0.028221867 3.1227816e-05)
(-0.089697554 0.025446025 2.4907757e-05)
(-0.095400894 0.022074175 1.5842693e-05)
(-0.10027057 0.018134572 3.8203474e-06)
(-0.10418904 0.013670804 -1.1281698e-05)
(-0.10704872 0.0087459295 -2.9453937e-05)
(-0.10875573 0.0034454468 -5.0517778e-05)
(-0.10923406 -0.0021211642 -7.4097138e-05)
(-0.10842999 -0.0078205202 -9.9604289e-05)
(-0.10631684 -0.013497151 -0.00012623889)
(-0.10289945 -0.018977288 -0.0001530113)
(-0.098218429 -0.024074608 -0.00017878553)
(-0.092353561 -0.028597965 -0.00020234581)
(-0.085426038 -0.032360984 -0.00022248293)
(-0.077598902 -0.035193195 -0.00023809238)
(-0.069075168 -0.036952163 -0.00024827357)
(-0.060093121 -0.037535855 -0.00025241816)
(-0.050918476 -0.036894263 -0.000250277)
(-0.041833362 -0.035039219 -0.00024199619)
(-0.033122487 -0.032051384 -0.00022811393)
(-0.025057301 -0.028083649 -0.00020951156)
(-0.01787965 -0.023360681 -0.00018731568)
(-0.01178648 -0.018174999 -0.00016278681)
(-0.0069140686 -0.012880397 -0.00013732238)
(-0.0033238378 -0.0078822628 -0.00011234978)
(-0.0010368623 -0.0036261493 -8.7642105e-05)
(-0.00011093471 -0.00060701942 -5.7204331e-05)
(-0.00035169312 0.0038338218 -0.00010766543)
(-0.0022696853 0.011410364 -7.0507791e-05)
(-0.006227478 0.018427306 -4.0029824e-05)
(-0.011614747 0.024619964 -1.7779259e-05)
(-0.018090315 0.029857569 2.848166e-07)
(-0.02542102 0.034089886 1.4714205e-05)
(-0.033388714 0.037320721 2.6108425e-05)
(-0.041795671 0.039585255 3.5128349e-05)
(-0.050464969 0.040931448 4.2235038e-05)
(-0.059234591 0.041407243 4.7689285e-05)
(-0.067952675 0.041053188 5.1578733e-05)
(-0.076474041 0.03989967 5.3836707e-05)
(-0.084657598 0.037967843 5.4267994e-05)
(-0.092364714 0.035273273 5.2582623e-05)
(-0.099458592 0.031831291 4.8435412e-05)
(-0.10580463 0.027663185 4.1470109e-05)
(-0.11127169 0.022802465 3.1367097e-05)
(-0.11573423 0.01730063 1.7893103e-05)
(-0.11907517 0.011231986 9.5041748e-07)
(-0.12118942 0.0046971945 -1.9377607e-05)
(-0.12198809 -0.0021747104 -4.2789241e-05)
(-0.12140313 -0.0092260678 -6.8742866e-05)
(-0.11939248 -0.016272194 -9.6446533e-05)
(-0.11594549 -0.023105289 -0.0001248772)
(-0.11108823 -0.029500582 -0.00015281865)
(-0.10488841 -0.035224943 -0.00017892696)
(-0.097459315 -0.040047914 -0.0002018202)
(-0.088962032 -0.043754922 -0.00022018662)
(-0.079605257 -0.046162117 -0.00023290021)
(-0.069641889 -0.047131962 -0.00023912901)
(-0.059361865 -0.046588363 -0.0002384212)
(-0.049080954 -0.044529877 -0.00023075797)
(-0.039125755 -0.041039499 -0.00021656579)
(-0.029815744 -0.03628976 -0.00019668054)
(-0.021444142 -0.030542382 -0.00017225284)
(-0.014259509 -0.02414264 -0.00014462839)
(-0.008446122 -0.017509199 -0.00011536328)
(-0.0041057555 -0.011119103 -8.6097049e-05)
(-0.0013000794 -0.0054896937 -5.6437036e-05)
(-0.0001446606 -0.0011817408 -2.248648e-05)
(-0.00039639244 0.0050786756 -0.00010491639)
(-0.0025408046 0.014693491 -6.2434655e-05)
(-0.0069442127 0.023357985 -2.8828482e-05)
(-0.012909246 0.030860818 -4.5268897e-06)
(-0.020045657 0.03711736 1.5152946e-05)
(-0.028090311 0.042116917 3.0960257e-05)
(-0.036802156 0.045895796 4.3665155e-05)
(-0.045967206 0.048514827 5.4074475e-05)
(-0.055397846 0.050041371 6.274413e-05)
(-0.064925216 0.050537313 6.9984166e-05)
(-0.074393077 0.050052603 7.5893593e-05)
(-0.083653299 0.048623492 8.0384371e-05)
(-0.092562459 0.04627454 8.3211509e-05)
(-0.10097956 0.043023321 8.4010861e-05)
(-0.10876487 0.038886828 8.2342724e-05)
(-0.11577979 0.033888627 7.7740364e-05)
(-0.12188764 0.028066015 6.9762643e-05)
(-0.1269554 0.021476602 5.8049461e-05)
(-0.13085612 0.01420388 4.2377947e-05)
(-0.13347227 0.0063614898 2.2716746e-05)
(-0.13469977 -0.0019040851 -7.2638439e-07)
(-0.13445283 -0.010412654 -2.7475559e-05)
(-0.1326696 -0.018951377 -5.6758446e-05)
(-0.12931856 -0.027278404 -8.7523708e-05)
(-0.12440509 -0.035129036 -0.00011846977)
(-0.11797826 -0.042224891 -0.00014810751)
(-0.11013685 -0.048286167 -0.0001748515)
(-0.10103395 -0.053046901 -0.00019713622)
(-0.090879084 -0.05627275 -0.00021354856)
(-0.079936769 -0.057780336 -0.00022296134)
(-0.068520635 -0.057456695 -0.00022464867)
(-0.056982433 -0.055276926 -0.00021836581)
(-0.045695958 -0.051317905 -0.0002043832)
(-0.03503666 -0.045766099 -0.00018346703)
(-0.025358976 -0.038918055 -0.00015679235)
(-0.016973702 -0.03117332 -0.00012582097)
(-0.010123129 -0.023020492 -9.2329774e-05)
(-0.0049573032 -0.015016289 -5.8251376e-05)
(-0.0015839111 -0.0077601711 -2.307912e-05)
(-0.0001800046 -0.0018919991 1.4784396e-05)
(-0.00043687327 0.0064585703 -9.3518997e-05)
(-0.0027868518 0.018316907 -4.5538437e-05)
(-0.007595899 0.028778331 -9.0540282e-06)
(-0.014088639 0.03769492 1.7199857e-05)
(-0.021830806 0.045038225 3.8503675e-05)
(-0.030532267 0.050846289 5.5796053e-05)
(-0.039931318 0.055195708 7.0006121e-05)
(-0.04979951 0.058179134 8.207184e-05)
(-0.059940135 0.059887937 9.262958e-05)
(-0.070179119 0.060401163 0.00010202536)
(-0.080357623 0.059780208 0.00011035744)
(-0.090326511 0.058068292 0.00011750539)
(-0.099942083 0.055293698 0.00012316401)
(-0.10906306 0.05147568 0.00012688433)
(-0.11754872 0.04663196 0.00012812017)
(-0.12525817 0.040786896 0.00012628011)
(-0.13205051 0.03397955 0.00012078445)
(-0.1377859 0.026271129 0.0001111261)
(-0.14232754 0.0177514 9.6933702e-05)
(-0.14554452 0.0085438163 7.8034848e-05)
(-0.14731572 -0.0011908565 5.451515e-05)
(-0.14753462 -0.011252634 2.6752281e-05)
(-0.14611544 -0.021402754 -4.52298e-06)
(-0.14300051 -0.031366233 -3.8249252e-05)
(-0.13816826 -0.040837689 -7.3044775e-05)
(-0.13164197 -0.0494906 -0.00010726461)
(-0.12349841 -0.056990436 -0.00013909175)
(-0.11387531 -0.063011813 -0.00016665988)
(-0.10297655 -0.06725935 -0.0001882021)
(-0.091073524 -0.069491287 -0.00020221206)
(-0.078501392 -0.06954419 -0.00020759717)
(-0.065648986 -0.067356342 -0.0002037994)
(-0.052942012 -0.062986921 -0.00019086466)
(-0.040820059 -0.05662802 -0.0001694477)
(-0.029709666 -0.048607165 -0.0001407356)
(-0.01999622 -0.039379407 -0.00010632579)
(-0.011992171 -0.029509504 -6.8271533e-05)
(-0.0059060245 -0.019644352 -2.8880541e-05)
(-0.001899594 -0.010479296 1.2428013e-05)
(-0.00021911054 -0.0027504903 5.4764707e-05)
(-0.00047276074 0.0079598541 -7.2382428e-05)
(-0.0030053065 0.022246669 -1.8697416e-05)
(-0.008175481 0.034640716 2.0379622e-05)
(-0.015139637 0.045066395 4.8460244e-05)
(-0.023425072 0.053560171 7.1375329e-05)
(-0.032718087 0.06021691 9.0245964e-05)
(-0.042738978 0.065160522 0.00010615035)
(-0.053246924 0.068521234 0.00012014472)
(-0.064037881 0.070418885 0.00013293376)
(-0.074934241 0.070952923 0.00014488849)
(-0.085776313 0.070198362 0.00015609644)
(-0.096415829 0.068206616 0.00016639554)
(-0.10671081 0.06501009 0.00017541142)
(-0.11652174 0.060629353 0.00018260069)
(-0.12570895 0.055081785 0.00018729925)
(-0.1341311 0.048390755 0.00018877626)
(-0.14164462 0.04059463 0.0001862943)
(-0.14810402 0.031755111 0.00017917505)
(-0.15336319 0.021964581 0.00016686926)
(-0.15727766 0.011352263 0.00014902789)
(-0.15970803 8.9014979e-05 0.00012557115)
(-0.16052491 -0.011609441 9.6759471e-05)
(-0.15961529 -0.023481694 6.3221755e-05)
(-0.15689041 -0.035221788 2.6000953e-05)
(-0.15229557 -0.046484023 -1.3460165e-05)
(-0.14582083 -0.056891693 -5.3362081e-05)
(-0.13751249 -0.066050538 -9.1634097e-05)
(-0.12748404 -0.07356743 -0.00012606206)
(-0.11592513 -0.079074262 -0.00015445304)
(-0.10310687 -0.082256244 -0.00017482591)
(-0.089381231 -0.082882842 -0.00018560825)
(-0.075173049 -0.080838451 -0.00018581146)
(-0.060963177 -0.076149012 -0.00017515431)
(-0.04726309 -0.069000365 -0.00015410873)
(-0.034583091 -0.059744614 -0.00012384142)
(-0.023397398 -0.048892506 -8.6092875e-05)
(-0.014103446 -0.037091896 -4.3242763e-05)
(-0.0069814333 -0.025092622 1.9427609e-06)
(-0.002259006 -0.013702948 5.0090112e-05)
(-0.00026414589 -0.0037760394 9.7645015e-05)
(-0.00050355096 0.009567443 -4.0536926e-05)
(-0.0031932755 0.026445192 1.9080833e-05)
(-0.0086754041 0.040892105 6.0436734e-05)
(-0.016048493 0.052912593 9.0202406e-05)
(-0.024807363 0.062615425 0.00011470638)
(-0.034618418 0.07015923 0.00013524497)
(-0.045186794 0.075721413 0.00015303626)
(-0.056261502 0.079475013 0.00016924348)
(-0.067632972 0.081572554 0.00018462999)
(-0.079121714 0.082137099 0.00019958366)
(-0.090568874 0.081259522 0.0002141743)
(-0.10182886 0.079000777 0.00022819178)
(-0.11276336 0.075397895 0.00024118594)
(-0.1232367 0.070472452 0.00025251118)
(-0.13311239 0.064240362 0.00026137525)
(-0.14225078 0.056722074 0.00026689368)
(-0.15050761 0.047952514 0.00026815134)
(-0.15773347 0.037990339 0.00026427161)
(-0.16377429 0.026926308 0.00025449255)
(-0.16847278 0.014890608 0.00023824721)
(-0.17167133 0.0020590345 0.00021524547)
(-0.17321661 -0.011342254 0.00018556319)
(-0.17296594 -0.025033765 0.00014968796)
(-0.17079571 -0.038682247 0.00010859044)
(-0.16661244 -0.05190362 6.37338e-05)
(-0.16036551 -0.06427038 1.7052086e-05)
(-0.15206157 -0.075324607 -2.9122213e-05)
(-0.14177939 -0.084597521 -7.2185522e-05)
(-0.12968348 -0.091636044 -0.00010944277)
(-0.11603436 -0.096035948 -0.00013832975)
(-0.10119275 -0.097479898 -0.00015665969)
(-0.085615084 -0.095777106 -0.00016286451)
(-0.06983805 -0.090899835 -0.00015619256)
(-0.054451422 -0.083010929 -0.00013681942)
(-0.040061184 -0.072476746 -0.00010582551)
(-0.027246486 -0.059861713 -6.5082521e-05)
(-0.016507705 -0.045903615 -1.7340929e-05)
(-0.0082137714 -0.031469866 3.4087023e-05)
(-0.0026743203 -0.017501843 8.9852924e-05)
(-0.00031729577 -0.0049938553 0.00014356867)
(-0.00052868056 0.011264649 2.8477064e-06)
(-0.0033477382 0.030871107 6.8640881e-05)
(-0.0090880516 0.047474056 0.00011193893)
(-0.016801584 0.06116415 0.00014323803)
(-0.025956887 0.072128403 0.00016930445)
(-0.036204179 0.080594915 0.00019160149)
(-0.047236293 0.086799866 0.00021147819)
(-0.058794243 0.090963771 0.00023019499)
(-0.070664656 0.093275771 0.00024856669)
(-0.082667722 0.093885674 0.00026699312)
(-0.094646998 0.09290253 0.00028552296)
(-0.10646128 0.090398325 0.00030389524)
(-0.11797782 0.086415382 0.00032158078)
(-0.1290669 0.080976108 0.00033782681)
(-0.13959748 0.074093918 0.00035170482)
(-0.14943402 0.065784417 0.00036216387)
(-0.15843404 0.056076247 0.00036809169)
(-0.1664467 0.045021277 0.00036838534)
(-0.17331223 0.032704009 0.00036203203)
(-0.17886253 0.019250186 0.00034819871)
(-0.18292318 0.0048345362 0.00032632814)
(-0.18531738 -0.01031257 0.00029624019)
(-0.18587199 -0.025899806 0.00025821636)
(-0.18442619 -0.041572074 0.00021308446)
(-0.18084315 -0.056910855 0.00016226589)
(-0.17502466 -0.071439353 0.00010778494)
(-0.16692828 -0.08463399 5.2221005e-05)
(-0.15658627 -0.095943791 -1.4075054e-06)
(-0.14412461 -0.10481883 -4.98314e-05)
(-0.12977948 -0.11074796 -8.9785231e-05)
(-0.113908 -0.11330453 -0.00011831028)
(-0.096989368 -0.11219671 -0.00013307492)
(-0.079612827 -0.10731675 -0.00013266747)
(-0.062450284 -0.098781328 -0.00011680074)
(-0.04621468 -0.086954994 -8.635413e-05)
(-0.031607745 -0.072449909 -4.3285303e-05)
(-0.019254152 -0.056099263 9.2515973e-06)
(-0.0096331387 -0.038903927 6.7304355e-05)
(-0.0031578297 -0.021961653 0.00013153223)
(-0.00038078517 -0.0064355928 0.00019255727)
(-0.00054759907 0.013033169 5.8438861e-05)
(-0.0034658572 0.035479376 0.00013065784)
(-0.009406396 0.054322974 0.00017554292)
(-0.017386394 0.069745292 0.00020821686)
(-0.026854433 0.082015897 0.0002358159)
(-0.037448152 0.091436758 0.00025996063)
(-0.048850774 0.098307152 0.00028212249)
(-0.060797324 0.10289913 0.00030365085)
(-0.073072179 0.10544208 0.00032540744)
(-0.085496594 0.10611562 0.00034780259)
(-0.09791795 0.10504936 0.00037086437)
(-0.11020101 0.10232799 0.00039428246)
(-0.12222042 0.098000035 0.00041744974)
(-0.13385451 0.092088791 0.00043950529)
(-0.14498015 0.084604374 0.00045937968)
(-0.15546858 0.075555811 0.00047584526)
(-0.16518214 0.064962758 0.00048757504)
(-0.17397175 0.052866572 0.00049321267)
(-0.1816753 0.039340761 0.0004914558)
(-0.18811716 0.024500892 0.00048115314)
(-0.19310912 0.0085140078 0.00046141397)
(-0.19645328 -0.0083925678 0.00043172731)
(-0.1979473 -0.025923368 0.00039207887)
(-0.19739266 -0.043708869 0.00034306381)
(-0.1946065 -0.061302524 0.00028597532)
(-0.18943731 -0.078182572 0.00022285486)
(-0.18178454 -0.093760685 0.00015648298)
(-0.17162149 -0.10739972 9.0290198e-05)
(-0.15902009 -0.11844267 2.8173771e-05)
(-0.14417482 -0.12625405 -2.5782361e-05)
(-0.1274219 -0.13027328 -6.7670629e-05)
(-0.1092488 -0.13007711 -9.4173532e-05)
(-0.090288549 -0.12544458 -0.00010297599)
(-0.071294716 -0.11641496 -9.3097481e-05)
(-0.053096439 -0.10332684 -6.5036761e-05)
(-0.036536437 -0.086827872 -2.0741103e-05)
(-0.022388441 -0.067848918 3.6223339e-05)
(-0.011268763 -0.04754043 0.00010116727)
(-0.0037218436 -0.027182722 0.0001747382)
(-0.00045691171 -0.008139382 0.00024443324)
(-0.00055984455 0.014853264 0.00012671676)
(-0.0035453373 0.040221779 0.00020561602)
(-0.0096248078 0.061370782 0.00025171959)
(-0.017792802 0.078574533 0.00028560312)
(-0.027484126 0.092187648 0.00031469765)
(-0.038327159 0.10258896 0.00034076966)
(-0.049997929 0.11014418 0.00036540499)
(-0.062227203 0.11518037 0.00039003573)
(-0.07479841 0.11797049 0.00041556917)
(-0.087535023 0.11872695 0.00044242856)
(-0.10028947 0.11760247 0.00047062614)
(-0.11293389 0.11469633 0.00049980829)
(-0.12535206 0.11006442 0.00052929584)
(-0.13743243 0.10373139 0.00055812376)
(-0.14906227 0.095703601 0.00058508178)
(-0.16012262 0.085982169 0.00060875969)
(-0.17048407 0.074575418 0.00062760178)
(-0.18000324 0.061510789 0.00063997413)
(-0.18852004 0.046846254 0.00064424811)
(-0.19585597 0.03068147 0.00063890234)
(-0.20181373 0.013168865 0.00062264369)
(-0.20617875 -0.0054753485 0.00059454536)
(-0.2087231 -0.024960525 0.00055419522)
(-0.20921263 -0.044912161 0.00050184446)
(-0.20741816 -0.064864856 0.0004385438)
(-0.20313139 -0.084259654 0.00036624559)
(-0.19618605 -0.1024483 0.00028784773)
(-0.18648429 -0.11870744 0.0002071505)
(-0.17402712 -0.13226603 0.00012869894)
(-0.15894668 -0.14234853 5.7493925e-05)
(-0.14153585 -0.14823509 -1.4254373e-06)
(-0.12226912 -0.14933666 -4.3499228e-05)
(-0.10180729 -0.14527869 -6.5205745e-05)
(-0.080978726 -0.13598182 -6.4562898e-05)
(-0.060733907 -0.12172372 -4.1425782e-05)
(-0.042074316 -0.1031659 2.4377709e-06)
(-0.025950479 -0.081333242 6.308457e-05)
(-0.013148242 -0.057540539 0.00013499757)
(-0.0043785975 -0.033279405 0.00021878977)
(-0.00054808341 -0.010149843 0.00029873305)
(-0.00056512259 0.016704138 0.0002079523)
(-0.0035848215 0.045047818 0.00029379116)
(-0.0097399818 0.068546105 0.00034073731)
(-0.018014595 0.087565907 0.00037565661)
(-0.027835515 0.10254743 0.0004061935)
(-0.038824727 0.1139479 0.00043424765)
(-0.050653066 0.12220188 0.00046151224)
(-0.063048418 0.12769431 0.0004894986)
(-0.075794276 0.1307448 0.00051916209)
(-0.088717242 0.13160156 0.00055094575)
(-0.1016758 0.13044303 0.00058485558)
(-0.11455071 0.12738527 0.00062050552)
(-0.12723646 0.12249313 0.00065715527)
(-0.13963367 0.11579342 0.00069374502)
(-0.15164252 0.10728888 0.00072892954)
(-0.16315701 0.096971901 0.00076111613)
(-0.17405977 0.084837732 0.00078851221)
(-0.18421763 0.070897085 0.00080918744)
(-0.19347778 0.055188374 0.00082115496)
(-0.20166471 0.037789982 0.00082247549)
(-0.20857841 0.018832873 0.00081138668)
(-0.21399413 -0.0014862903 0.0007864583)
(-0.21766446 -0.022891665 0.00074677066)
(-0.21932461 -0.045015036 0.00069210207)
(-0.21870195 -0.067384156 0.00062311949)
(-0.21553096 -0.089414511 0.00054154333)
(-0.20957472 -0.11040753 0.00045026023)
(-0.20065358 -0.12955896 0.00035334707)
(-0.1886808 -0.14598189 0.00025596535)
(-0.17370326 -0.15874899 0.00016409045)
(-0.15594313 -0.16695712 8.4058666e-05)
(-0.13583341 -0.1698146 2.1947177e-05)
(-0.11403768 -0.16674579 -1.7155258e-05)
(-0.091443307 -0.15750014 -2.9867435e-05)
(-0.069120481 -0.14224565 -1.5031963e-05)
(-0.04824434 -0.1216226 2.6031748e-05)
(-0.029971804 -0.096736575 8.910748e-05)
(-0.015296622 -0.069077572 0.00016778301)
(-0.0051401275 -0.040378991 0.00026261433)
(-0.0006568551 -0.012518071 0.0003546053)
(-0.00056338803 0.018564538 0.00030219032)
(-0.0035843178 0.049906103 0.0003952393)
(-0.0097519586 0.075776055 0.00044265282)
(-0.018051163 0.096630836 0.00047842156)
(-0.027905938 0.11299475 0.0005103183)
(-0.038934098 0.12540358 0.00054036243)
(-0.050802753 0.13436221 0.00057034949)
(-0.063237895 0.14031587 0.00060187025)
(-0.076023793 0.14363374 0.00063593545)
(-0.088990875 0.14460281 0.00067302006)
(-0.10200451 0.14343009 0.00071313868)
(-0.11495519 0.14025091 0.00075588891)
(-0.12774955 0.13514103 0.00080048529)
(-0.14030233 0.12813082 0.00084578789)
(-0.15252914 0.11922005 0.00089032821)
(-0.16434008 0.10839231 0.00093233786)
(-0.17563382 0.095628832 0.00096978683)