/*--------------------------------*- C++ -*----------------------------------*\
  =========                 |
  \\      /  F ield         | OpenFOAM: The Open Source CFD Toolbox
   \\    /   O peration     | Website:  https://openfoam.org
    \\  /    A nd           | Version:  7
     \\/     M anipulation  |
\*---------------------------------------------------------------------------*/
FoamFile
{
    version     2.0;
    format      ascii;
    class       volVectorField;
    location    "46";
    object      U_0;
}
// * * * * * * * * * * * * * * * * * * * * * * * * * * * * * * * * * * * * * //

dimensions      [0 1 -1 0 0 0 0];

internalField   nonuniform List<vector> 
16000
(
(6.6065815e-05 -6.7311295e-05 -3.9786666e-07)
(0.00016278696 -5.6342367e-05 5.7068022e-06)
(0.00014194036 4.6931134e-07 1.9207142e-05)
(-5.0608348e-05 6.1894094e-05 3.6629737e-05)
(-0.00040996499 0.00011563272 5.4738386e-05)
(-0.00090902127 0.00015774482 7.15668e-05)
(-0.0015177085 0.00018850546 8.5778915e-05)
(-0.002206884 0.00020960943 9.6559605e-05)
(-0.0029505997 0.0002228768 0.00010344855)
(-0.0037264635 0.00022981108 0.00010619884)
(-0.0045150495 0.00023147728 0.0001046832)
(-0.0052990122 0.00022850429 9.883862e-05)
(-0.0060621919 0.00022114766 8.8640435e-05)
(-0.0067888626 0.00020938299 7.4099205e-05)
(-0.0074632146 0.0001930133 5.527368e-05)
(-0.0080691163 0.00017178013 3.2294068e-05)
(-0.0085901698 0.00014547157 5.3902451e-06)
(-0.0090100507 0.00011402232 -2.5079926e-05)
(-0.0093131035 7.7601905e-05 -5.860655e-05)
(-0.0094851491 3.6687294e-05 -9.451188e-05)
(-0.0095144485 -7.8873699e-06 -0.00013194619)
(-0.0093927304 -5.4925173e-05 -0.00016989832)
(-0.0091162257 -0.00010284357 -0.00020722191)
(-0.0086866049 -0.00014974808 -0.0002426792)
(-0.0081116939 -0.00019351053 -0.00027500043)
(-0.0074058955 -0.00023188636 -0.00030295663)
(-0.0065902189 -0.00026266321 -0.0003254413)
(-0.0056918533 -0.00028382963 -0.00034155452)
(-0.0047432628 -0.00029374766 -0.00035068214)
(-0.0037808223 -0.0002913076 -0.00035256272)
(-0.0028430656 -0.0002760427 -0.00034733586)
(-0.0019686488 -0.00024819006 -0.00033556797)
(-0.0011941381 -0.0002087041 -0.0003182545)
(-0.00055166493 -0.00015926611 -0.00029680078)
(-6.651301e-05 -0.00010240275 -0.00027297676)
(0.00024491307 -4.1744964e-05 -0.00024883986)
(0.00037894259 1.785154e-05 -0.00022677091)
(0.00034979822 6.7057339e-05 -0.00020920507)
(0.00020620339 8.9830973e-05 -0.00019881472)
(5.7472623e-05 5.7399085e-05 -0.00018437006)
(5.8016154e-05 -0.00016699586 -6.6242529e-06)
(4.0908501e-05 -3.9931367e-05 -3.683677e-07)
(-0.00029495341 0.00024858181 1.1265248e-05)
(-0.0010110095 0.00056213414 2.5631317e-05)
(-0.0020992186 0.00084750304 4.0616363e-05)
(-0.0035140825 0.0010831252 5.4624562e-05)
(-0.0051946839 0.0012643049 6.6528605e-05)
(-0.0070766293 0.0013940706 7.5576202e-05)
(-0.0090981509 0.0014779626 8.1285577e-05)
(-0.011202307 0.0015215284 8.3357097e-05)
(-0.013337036 0.0015292122 8.1607439e-05)
(-0.01545418 0.001503977 7.5926622e-05)
(-0.017508153 0.0014473587 6.6256285e-05)
(-0.019454719 0.0013597791 5.2585663e-05)
(-0.021250158 0.0012410023 3.4960879e-05)
(-0.022850977 0.0010906583 1.3503127e-05)
(-0.024214228 0.00090877468 -1.1568609e-05)
(-0.025298436 0.00069627603 -3.9914399e-05)
(-0.02606506 0.00045541548 -7.1053673e-05)
(-0.026480401 0.00019010773 -0.00010435227)
(-0.026517816 -9.3865736e-05 -0.00013901934)
(-0.026159987 -0.00038877755 -0.00017412326)
(-0.025401169 -0.00068509251 -0.00020860815)
(-0.024249171 -0.00097175871 -0.00024134161)
(-0.022726754 -0.0012366911 -0.00027116808)
(-0.020872353 -0.0014674258 -0.00029697599)
(-0.018739913 -0.001651907 -0.00031777307)
(-0.016397714 -0.0017793557 -0.00033276356)
(-0.013926123 -0.0018411495 -0.00034142055)
(-0.011414318 -0.0018316323 -0.00034354575)
(-0.0089561048 -0.0017487681 -0.00033931038)
(-0.0066450097 -0.0015945824 -0.0003292729)
(-0.004568892 -0.0013753963 -0.00031437245)
(-0.0028042121 -0.0011019795 -0.00029589959)
(-0.0014100151 -0.00078992606 -0.0002754461)
(-0.00042164621 -0.00046057396 -0.00025482761)
(0.00015574915 -0.00014253698 -0.00023595933)
(0.00035672254 0.00012231925 -0.00022085717)
(0.00027528751 0.00027110895 -0.00021161986)
(9.014131e-05 0.00020507759 -0.00019543095)
(1.924441e-06 -0.00014894137 -2.040988e-05)
(-0.00025603413 0.00029704475 -1.1789708e-05)
(-0.0010504361 0.0010236438 1.0864045e-07)
(-0.0023878135 0.0017975534 1.3088762e-05)
(-0.0042394332 0.0025099132 2.6125029e-05)
(-0.006545555 0.0031100639 3.8076571e-05)
(-0.0092251197 0.0035809309 4.8116377e-05)
(-0.012189997 0.0039234379 5.5683788e-05)
(-0.015352988 0.0041461894 6.0397165e-05)
(-0.018631056 0.0042595942 6.1999844e-05)
(-0.021946079 0.0042728174 6.0318913e-05)
(-0.025224257 0.0041924774 5.5236576e-05)
(-0.028394924 0.0040224716 4.6676508e-05)
(-0.031389393 0.0037645257 3.4603571e-05)
(-0.034140223 0.0034191718 1.9033874e-05)
(-0.036581145 0.0029869401 5.1951015e-08)
(-0.038647753 0.002469605 -2.2168339e-05)
(-0.040278947 0.0018713576 -4.7342546e-05)
(-0.041419059 0.0011998077 -7.5057204e-05)
(-0.042020509 0.00046673076 -0.00010475749)
(-0.042046775 -0.00031149878 -0.00013574556)
(-0.041475478 -0.0011138122 -0.00016718614)
(-0.040301322 -0.0019148794 -0.00019813197)
(-0.038538559 -0.0026858661 -0.00022755991)
(-0.036222758 -0.0033956794 -0.0002544219)
(-0.03341159 -0.0040126046 -0.00027770756)
(-0.030184438 -0.0045062446 -0.00029651418)
(-0.02664065 -0.0048496372 -0.0003101187)
(-0.02289638 -0.005021395 -0.00031804502)
(-0.019080015 -0.005007695 -0.0003201195)
(-0.015326331 -0.0048039525 -0.00031650736)
(-0.011769583 -0.0044160575 -0.00030772499)
(-0.0085358478 -0.0038611519 -0.00029462598)
(-0.0057348798 -0.0031681081 -0.00027836306)
(-0.0034516882 -0.0023781323 -0.00026032995)
(-0.0017379676 -0.0015461985 -0.00024208303)
(-0.00060369361 -0.00074417461 -0.00022523376)
(-8.0584956e-06 -6.6334319e-05 -0.00021137506)
(0.00015540566 0.00036040877 -0.00020219409)
(7.3561263e-05 0.00035436858 -0.00018527864)
(-6.4681401e-05 5.0434907e-05 -3.866173e-05)
(-0.00060837345 0.0010457777 -2.6121576e-05)
(-0.0019305295 0.0023817539 -1.2140223e-05)
(-0.0039464302 0.0037565335 1.1526293e-06)
(-0.0065890098 0.0050153252 1.3740898e-05)
(-0.0097791979 0.0060800715 2.4865223e-05)
(-0.013417128 0.0069205277 3.398838e-05)
(-0.017395535 0.0075341181 4.0775056e-05)
(-0.021607747 0.0079314005 4.498929e-05)
(-0.02595071 0.0081270438 4.6459248e-05)
(-0.030325867 0.008134771 4.505416e-05)
(-0.034638818 0.0079650033 4.0667715e-05)
(-0.038798386 0.0076243757 3.3212856e-05)
(-0.042715707 0.0071165085 2.2627295e-05)
(-0.046303776 0.0064435542 8.8873349e-06)
(-0.049477695 0.0056081448 -7.9725381e-06)
(-0.052155752 0.0046154488 -2.7836974e-05)
(-0.054261314 0.00347511 -5.0486855e-05)
(-0.055725442 0.0022028868 -7.5579122e-05)
(-0.056490045 0.00082185012 -0.00010263258)
(-0.056511346 -0.00063696892 -0.00013102274)
(-0.05576345 -0.0021345945 -0.00015998464)
(-0.054241673 -0.0036248142 -0.00018863612)
(-0.051965319 -0.0050556235 -0.00021600993)
(-0.048979662 -0.0063713985 -0.00024110301)
(-0.045356809 -0.0075157218 -0.00026293808)
(-0.041195197 -0.0084347252 -0.00028063331)
(-0.036617544 -0.0090807438 -0.0002934743)
(-0.031767149 -0.0094160249 -0.00030098136)
(-0.026802515 -0.0094162086 -0.00030296485)
(-0.021890409 -0.0090733161 -0.00029956115)
(-0.017197568 -0.0083980437 -0.00029124308)
(-0.012881397 -0.0074212846 -0.00027880168)
(-0.0090800685 -0.0061950091 -0.0002633004)
(-0.0059024814 -0.0047929344 -0.00024600683)
(-0.0034184798 -0.0033118376 -0.00022830993)
(-0.0016495187 -0.0018745485 -0.00021163699)
(-0.00055980988 -0.00063470196 -0.00019738255)
(-5.0128445e-05 0.00021501715 -0.00018678211)
(3.8091891e-05 0.00041383374 -0.00016797645)
(-0.00013086432 0.00044556891 -5.8177952e-05)
(-0.0009709466 0.0022426996 -4.1111576e-05)
(-0.002846207 0.0043591956 -2.4229121e-05)
(-0.0055648078 0.0064572236 -9.7967347e-06)
(-0.0090094368 0.0083534843 3.121853e-06)
(-0.013075456 0.0099514591 1.4101901e-05)
(-0.017642275 0.011211754 2.2880475e-05)
(-0.022584676 0.012129588 2.9352764e-05)
(-0.02777963 0.012717529 3.3441552e-05)
(-0.033108111 0.012994151 3.507398e-05)
(-0.038455493 0.01297737 3.4172758e-05)
(-0.043711127 0.012681218 3.0649491e-05)
(-0.048767518 0.012115131 2.4407325e-05)
(-0.05351963 0.011284988 1.5352776e-05)
(-0.057864698 0.010195261 3.4145055e-06)
(-0.061702793 0.0088517422 -1.1433027e-05)
(-0.064938229 0.0072644412 -2.9143232e-05)
(-0.067481794 0.0054502925 -4.9570855e-05)
(-0.069253702 0.0034354344 -7.2448041e-05)
(-0.070187073 0.0012568407 -9.7366052e-05)
(-0.070231724 -0.0010368539 -0.00012376568)
(-0.069358018 -0.0033854755 -0.00015093878)
(-0.067560467 -0.0057183933 -0.0001780447)
(-0.064860803 -0.0079566841 -0.00020414173)
(-0.061310201 -0.010016305 -0.00022823485)
(-0.056990361 -0.011812197 -0.00024933772)
(-0.052013149 -0.013263146 -0.0002665447)
(-0.046518563 -0.014297143 -0.0002791064)
(-0.04067086 -0.014856881 -0.00028650065)
(-0.034652774 -0.014904992 -0.00028849065)
(-0.028657894 -0.014428615 -0.00028516264)
(-0.022881393 -0.013442982 -0.00027693678)
(-0.017509476 -0.011993831 -0.0002645476)
(-0.012708069 -0.010158705 -0.00024899334)
(-0.0086114829 -0.0080474825 -0.00023145803)
(-0.0053117551 -0.0058029585 -0.00021322104)
(-0.0028485049 -0.003602491 -0.00019559538)
(-0.0012000283 -0.0016605553 -0.00017984714)
(-0.00028881695 -0.00023377556 -0.00016670209)
(-2.4756397e-06 0.00035046942 -0.00014547149)
(-0.00019286462 0.0010313083 -7.6658174e-05)
(-0.0013239851 0.0038925385 -5.4753142e-05)
(-0.0037518543 0.0069680055 -3.454834e-05)
(-0.0071732965 0.0099108255 -1.8454773e-05)
(-0.011414805 0.012527405 -4.6589781e-06)
(-0.016341481 0.014714511 6.7038335e-06)
(-0.021809618 0.016430508 1.5620729e-05)
(-0.027675877 0.017672024 2.2206353e-05)
(-0.033802396 0.018455252 2.6539159e-05)
(-0.040056848 0.018803217 2.8645836e-05)
(-0.046311838 0.018738082 2.8503618e-05)
(-0.052444061 0.018277411 2.6041562e-05)
(-0.058333357 0.017433439 2.1150116e-05)
(-0.063862063 0.016214497 1.3699143e-05)
(-0.068914992 0.014627824 3.5621803e-06)
(-0.073380202 0.012683108 -9.3549255e-06)
(-0.077150615 0.01039621 -2.5082862e-05)
(-0.080126456 0.0077926383 -4.3557383e-05)
(-0.082218396 0.0049104462 -6.4590181e-05)
(-0.083351221 0.0018022808 -8.7845192e-05)
(-0.083467823 -0.0014636118 -0.00011282368)
(-0.082533262 -0.004803583 -0.00013886177)
(-0.080538655 -0.0081200484 -0.00016514215)
(-0.077504591 -0.011304332 -0.00019072382)
(-0.073483769 -0.014240827 -0.00021458879)
(-0.068562535 -0.016812392 -0.00023570523)
(-0.062861 -0.018906789 -0.00025310321)
(-0.056531394 -0.020423868 -0.0002659562)
(-0.049754416 -0.02128305 -0.00027365946)
(-0.042733411 -0.021430601 -0.00027589495)
(-0.035686366 -0.020846113 -0.00027267394)
(-0.02883591 -0.019547679 -0.0002643505)
(-0.022397691 -0.017595408 -0.00025160258)
(-0.016567752 -0.015093177 -0.00023537992)
(-0.011509876 -0.01218885 -0.00021681932)
(-0.0073439131 -0.0090736574 -0.00019714652)
(-0.0041345351 -0.0059816726 -0.0001776343)
(-0.0018815888 -0.0031890482 -0.00015951661)
(-0.00053619018 -0.0010143261 -0.00014312236)
(-4.1246954e-05 0.0001589511 -0.00011903233)
(-0.00025011648 0.0017985713 -9.2144951e-05)
(-0.0016597722 0.0059841445 -6.5253634e-05)
(-0.0046244549 0.010198622 -4.1567235e-05)
(-0.0087321674 0.014107026 -2.3512339e-05)
(-0.013751602 0.017522342 -8.4738526e-06)
(-0.019515078 0.020347123 3.6652144e-06)
(-0.025854144 0.02254593 1.31166e-05)
(-0.032607008 0.024122008 2.0196393e-05)
(-0.039621881 0.025098114 2.5126858e-05)
(-0.04675501 0.025503182 2.8026277e-05)
(-0.053868799 0.025364232 2.8920259e-05)
(-0.060830247 0.024702541 2.7749538e-05)
(-0.067509641 0.023533177 2.4385557e-05)
(-0.073779768 0.021866982 1.8654262e-05)
(-0.079515879 0.019714125 1.036589e-05)
(-0.084596502 0.017088491 -6.5098623e-07)
(-0.088905128 0.014012233 -1.4512809e-05)
(-0.092332705 0.010520009 -3.1243844e-05)
(-0.094780826 0.0066624827 -5.0740977e-05)
(-0.096165472 0.0025088084 -7.2743603e-05)
(-0.096421125 -0.001852145 -9.6812262e-05)
(-0.095505031 -0.0063119971 -0.00012232068)
(-0.093401432 -0.010744595 -0.0001484622)
(-0.090125481 -0.015009425 -0.00017427729)
(-0.08572651 -0.018956666 -0.00019869917)
(-0.08029035 -0.022433819 -0.00022061867)
(-0.073940287 -0.025293748 -0.00023896416)
(-0.066836237 -0.027403779 -0.00025279044)
(-0.059171746 -0.028655388 -0.00026136697)
(-0.051168505 -0.028973825 -0.00026425421)
(-0.043068257 -0.028326917 -0.00026135603)
(-0.035122208 -0.026732272 -0.00025294001)
(-0.027578337 -0.024262248 -0.00023962165)
(-0.020667333 -0.021046321 -0.00022231258)
(-0.014588343 -0.017270909 -0.0002021318)
(-0.0094958278 -0.013177218 -0.00018030216)
(-0.0054864982 -0.0090579204 -0.00015812773)
(-0.0025879504 -0.0052522185 -0.00013689645)
(-0.00078446359 -0.0021405396 -0.00011661254)
(-7.6871738e-05 -0.00016053913 -8.9408639e-05)
(-0.00030295592 0.0027365293 -0.00010296865)
(-0.0019754985 0.0084981069 -7.0996572e-05)
(-0.0054521411 0.014028585 -4.3848687e-05)
(-0.010217972 0.0190214 -2.370396e-05)
(-0.01598518 0.023311106 -7.2085672e-06)
(-0.022552798 0.026818208 5.9805677e-06)
(-0.029727185 0.029522444 1.6277944e-05)
(-0.037328209 0.031439791 2.4181377e-05)
(-0.045190987 0.032603416 3.0040961e-05)
(-0.053161894 0.033050385 3.4053652e-05)
(-0.061095251 0.032813703 3.6282612e-05)
(-0.068850862 0.031918833 3.6670708e-05)
(-0.076292143 0.030383792 3.50614e-05)
(-0.083284993 0.028221867 3.1227763e-05)
(-0.089697555 0.025446026 2.4907433e-05)
(-0.095400895 0.022074175 1.5842041e-05)
(-0.10027057 0.018134571 3.8195867e-06)
(-0.10418904 0.013670802 -1.1282198e-05)
(-0.10704872 0.0087459284 -2.9454004e-05)
(-0.10875573 0.0034454479 -5.0517678e-05)
(-0.10923406 -0.0021211613 -7.4097407e-05)
(-0.10842999 -0.0078205184 -9.9605169e-05)
(-0.10631684 -0.013497153 -0.00012623987)
(-0.10289945 -0.018977293 -0.00015301143)
(-0.098218425 -0.024074611 -0.00017878444)
(-0.092353564 -0.028597961 -0.00020234452)
(-0.085426046 -0.032360976 -0.00022248308)
(-0.077598907 -0.035193191 -0.00023809438)
(-0.069075163 -0.036952169 -0.00024827556)
(-0.060093111 -0.037535866 -0.00025241773)
(-0.050918472 -0.036894266 -0.00025027423)
(-0.041833371 -0.03503921 -0.00024199425)
(-0.033122498 -0.032051373 -0.0002281154)
(-0.0250573 -0.02808365 -0.00020951466)
(-0.017879639 -0.023360692 -0.00018731641)
(-0.011786476 -0.018175004 -0.00016278481)
(-0.0069140747 -0.012880392 -0.00013732125)
(-0.0033238422 -0.0078822577 -0.00011235057)
(-0.001036861 -0.0036261498 -8.7643004e-05)
(-0.00011093323 -0.00060702161 -5.7204458e-05)
(-0.00035169288 0.0038338215 -0.00010766565)
(-0.0022696851 0.011410364 -7.0507875e-05)
(-0.0062274783 0.018427306 -4.0029834e-05)
(-0.011614748 0.024619965 -1.7779278e-05)
(-0.018090316 0.029857569 2.8478022e-07)
(-0.02542102 0.034089886 1.4714262e-05)
(-0.033388714 0.037320721 2.6108648e-05)
(-0.041795671 0.039585255 3.5128687e-05)
(-0.050464969 0.040931449 4.2235369e-05)
(-0.059234591 0.041407244 4.7689488e-05)
(-0.067952675 0.041053189 5.157874e-05)
(-0.07647404 0.039899669 5.3836557e-05)
(-0.084657597 0.037967842 5.4267828e-05)
(-0.092364713 0.035273272 5.2582542e-05)
(-0.099458592 0.031831292 4.8435322e-05)
(-0.10580463 0.027663186 4.1469767e-05)
(-0.11127169 0.022802466 3.1366376e-05)
(-0.11573423 0.01730063 1.7892213e-05)
(-0.11907517 0.011231984 9.4982935e-07)
(-0.12118942 0.0046971925 -1.9377567e-05)
(-0.12198809 -0.0021747099 -4.2788811e-05)
(-0.12140313 -0.0092260644 -6.8742774e-05)
(-0.11939248 -0.016272191 -9.6447297e-05)
(-0.11594549 -0.023105291 -0.00012487837)
(-0.11108822 -0.029500588 -0.000152819)
(-0.1048884 -0.035224947 -0.00017892576)
(-0.097459316 -0.040047911 -0.0002018184)
(-0.08896204 -0.043754913 -0.00022018625)
(-0.079605263 -0.046162111 -0.00023290212)
(-0.069641885 -0.047131966 -0.00023913134)
(-0.059361855 -0.046588374 -0.00023842115)
(-0.04908095 -0.044529881 -0.00023075542)
(-0.039125763 -0.041039491 -0.00021656395)
(-0.029815753 -0.03628975 -0.00019668181)
(-0.02144414 -0.030542383 -0.00017225523)
(-0.014259501 -0.024142647 -0.00014462867)
(-0.0084461203 -0.017509201 -0.00011536202)
(-0.0041057591 -0.0111191 -8.6096444e-05)
(-0.0013000817 -0.0054896913 -5.6437413e-05)
(-0.00014466074 -0.001181741 -2.2486907e-05)
(-0.00039639238 0.0050786756 -0.00010491671)
(-0.0025408044 0.014693491 -6.2434923e-05)
(-0.0069442126 0.023357985 -2.8828608e-05)
(-0.012909247 0.030860818 -4.5268919e-06)
(-0.020045658 0.03711736 1.5152968e-05)
(-0.028090311 0.042116917 3.0960304e-05)
(-0.036802156 0.045895796 4.3665295e-05)
(-0.045967206 0.048514826 5.4074748e-05)
(-0.055397846 0.05004137 6.274449e-05)
(-0.064925216 0.050537313 6.9984498e-05)
(-0.074393077 0.050052603 7.5893747e-05)
(-0.083653299 0.048623493 8.0384244e-05)
(-0.092562459 0.046274539 8.3211158e-05)
(-0.10097956 0.04302332 8.4010507e-05)
(-0.10876487 0.038886827 8.2342557e-05)
(-0.11577979 0.033888627 7.7740322e-05)
(-0.12188764 0.028066017 6.9762431e-05)
(-0.1269554 0.021476604 5.8048835e-05)
(-0.13085612 0.01420388 4.237705e-05)
(-0.13347226 0.0063614872 2.2716131e-05)
(-0.13469977 -0.0019040882 -7.262109e-07)
(-0.13445283 -0.010412654 -2.747475e-05)
(-0.13266961 -0.018951374 -5.67579e-05)
(-0.12931856 -0.027278399 -8.7524261e-05)
(-0.12440509 -0.035129036 -0.00011847112)
(-0.11797826 -0.042224897 -0.0001481082)
(-0.11013685 -0.048286173 -0.0001748504)
(-0.10103395 -0.0530469 -0.00019713413)
(-0.090879092 -0.056272741 -0.00021354778)
(-0.079936776 -0.057780328 -0.00022296304)
(-0.068520631 -0.057456699 -0.00022465102)
(-0.056982423 -0.055276936 -0.00021836593)
(-0.045695955 -0.051317909 -0.00020438103)
(-0.035036667 -0.045766093 -0.00018346562)
(-0.025358982 -0.038918048 -0.0001567934)
(-0.0169737 -0.031173321 -0.00012582249)
(-0.010123124 -0.023020497 -9.2329887e-05)
(-0.0049573024 -0.015016291 -5.8250676e-05)
(-0.0015839131 -0.0077601697 -2.3078826e-05)
(-0.00018000554 -0.0018919979 1.4784225e-05)
(-0.00043687342 0.0064585704 -9.3519337e-05)
(-0.002786852 0.018316907 -4.5538826e-05)
(-0.007595899 0.028778331 -9.0543412e-06)
(-0.014088639 0.037694919 1.7199747e-05)
(-0.021830806 0.045038225 3.8503727e-05)
(-0.030532268 0.050846289 5.579617e-05)
(-0.039931318 0.055195708 7.0006264e-05)
(-0.04979951 0.058179134 8.2072031e-05)
(-0.059940135 0.059887937 9.2629838e-05)
(-0.070179119 0.060401163 0.00010202566)
(-0.080357623 0.059780208 0.0001103577)
(-0.090326511 0.058068292 0.00011750543)
(-0.099942084 0.055293699 0.00012316373)
(-0.10906306 0.05147568 0.0001268838)
(-0.11754872 0.046631959 0.00012811968)
(-0.12525817 0.040786894 0.00012627993)
(-0.13205051 0.033979549 0.00012078457)
(-0.1377859 0.026271131 0.00011112618)
(-0.14232754 0.017751403 9.6933333e-05)
(-0.14554452 0.0085438169 7.8034045e-05)
(-0.14731572 -0.0011908592 5.4514512e-05)
(-0.14753461 -0.011252638 2.6752515e-05)
(-0.14611544 -0.021402755 -4.5218749e-06)
(-0.14300052 -0.031366229 -3.8248278e-05)
(-0.13816827 -0.040837683 -7.3045068e-05)
(-0.13164197 -0.049490598 -0.00010726608)
(-0.1234984 -0.056990441 -0.0001390928)
(-0.1138753 -0.06301182 -0.00016665905)
(-0.10297655 -0.06725935 -0.00018819999)
(-0.091073532 -0.069491279 -0.00020221109)
(-0.078501398 -0.069544183 -0.00020759863)
(-0.065648983 -0.067356345 -0.0002038015)
(-0.052942004 -0.062986929 -0.00019086475)
(-0.040820056 -0.056628023 -0.00016944602)
(-0.029709671 -0.048607161 -0.0001407347)
(-0.019996224 -0.039379402 -0.00010632649)
(-0.01199217 -0.029509505 -6.8272432e-05)
(-0.0059060221 -0.019644354 -2.8880622e-05)
(-0.0018995936 -0.010479297 1.2428331e-05)
(-0.00021911089 -0.0027504897 5.4764851e-05)
(-0.00047276085 0.0079598541 -7.238278e-05)
(-0.0030053069 0.022246669 -1.8697807e-05)
(-0.0081754813 0.034640716 2.0379206e-05)
(-0.015139637 0.045066395 4.8459971e-05)
(-0.023425071 0.053560171 7.1375288e-05)
(-0.032718088 0.06021691 9.0246105e-05)
(-0.042738979 0.065160523 0.00010615056)
(-0.053246924 0.068521235 0.00012014492)
(-0.064037881 0.070418885 0.00013293394)
(-0.074934241 0.070952923 0.00014488866)
(-0.085776312 0.070198362 0.00015609661)
(-0.096415828 0.068206616 0.00016639567)
(-0.10671081 0.06501009 0.00017541136)
(-0.11652174 0.060629354 0.00018260032)
(-0.12570895 0.055081785 0.00018729864)
(-0.1341311 0.048390753 0.00018877574)
(-0.14164462 0.040594628 0.0001862942)
(-0.14810402 0.03175511 0.00017917543)
(-0.1533632 0.021964582 0.00016686973)
(-0.15727766 0.011352265 0.00014902788)
(-0.15970803 8.9016427e-05 0.00012557049)
(-0.16052491 -0.011609443 9.6758756e-05)
(-0.15961528 -0.023481699 6.32219e-05)
(-0.15689041 -0.03522179 2.6002165e-05)
(-0.15229557 -0.04648402 -1.3458902e-05)
(-0.14582083 -0.056891687 -5.336214e-05)
(-0.13751249 -0.066050535 -9.1635592e-05)
(-0.12748403 -0.073567435 -0.00012606337)
(-0.11592513 -0.079074269 -0.00015445249)
(-0.10310687 -0.082256245 -0.00017482401)
(-0.089381238 -0.082882835 -0.00018560734)
(-0.075173055 -0.080838445 -0.00018581269)
(-0.060963174 -0.076149014 -0.00017515598)
(-0.047263084 -0.069000371 -0.00015410878)
(-0.03458309 -0.059744616 -0.00012384031)
(-0.023397401 -0.048892503 -8.6092324e-05)
(-0.014103448 -0.037091894 -4.3243162e-05)
(-0.0069814327 -0.025092622 1.9422705e-06)
(-0.0022590048 -0.013702949 5.0090047e-05)
(-0.0002641455 -0.0037760398 9.7645157e-05)
(-0.00050355085 0.0095674427 -4.053735e-05)
(-0.0031932757 0.026445193 1.9080471e-05)
(-0.0086754047 0.040892106 6.0436355e-05)
(-0.016048494 0.052912593 9.0202067e-05)
(-0.024807363 0.062615425 0.0001147062)
(-0.034618418 0.07015923 0.00013524502)
(-0.045186794 0.075721412 0.00015303647)
(-0.056261503 0.079475013 0.00016924374)
(-0.067632973 0.081572554 0.0001846302)
(-0.079121715 0.082137099 0.00019958376)
(-0.090568873 0.081259521 0.00021417431)
(-0.10182886 0.079000776 0.00022819178)
(-0.11276336 0.075397895 0.00024118595)
(-0.1232367 0.070472453 0.0002525111)
(-0.13311239 0.064240363 0.00026137493)
(-0.14225078 0.056722075 0.00026689314)
(-0.1505076 0.047952512 0.00026815087)
(-0.15773347 0.037990337 0.00026427161)
(-0.16377429 0.026926306 0.00025449317)
(-0.16847278 0.014890609 0.00023824804)
(-0.17167133 0.0020590378 0.0002152458)
(-0.17321662 -0.011342252 0.00018556265)
(-0.17296594 -0.025033766 0.0001496871)
(-0.17079571 -0.038682252 0.00010859036)
(-0.16661244 -0.051903623 6.3734918e-05)
(-0.16036551 -0.064270377 1.7053444e-05)
(-0.15206158 -0.075324601 -2.9122125e-05)
(-0.1417794 -0.084597518 -7.2186975e-05)
(-0.12968348 -0.091636048 -0.00010944418)
(-0.11603435 -0.096035955 -0.00013832944)
(-0.10119274 -0.097479899 -0.00015665814)
(-0.085615089 -0.095777101 -0.00016286381)
(-0.069838054 -0.09089983 -0.00015619353)
(-0.05445142 -0.08301093 -0.00013682061)
(-0.04006118 -0.072476749 -0.00010582557)
(-0.027246485 -0.059861714 -6.5081852e-05)
(-0.016507707 -0.045903614 -1.7340583e-05)
(-0.0082137728 -0.031469865 3.4086847e-05)
(-0.00267432 -0.017501843 8.9852693e-05)
(-0.0003172954 -0.0049938558 0.00014356864)
(-0.00052868034 0.011264648 2.8471925e-06)
(-0.003347738 0.030871106 6.8640479e-05)
(-0.0090880519 0.047474056 0.00011193862)
(-0.016801585 0.061164151 0.00014323777)
(-0.025956887 0.072128403 0.00016930424)
(-0.036204179 0.080594915 0.00019160142)
(-0.047236293 0.086799866 0.00021147828)
(-0.058794243 0.090963771 0.0002301952)
(-0.070664656 0.093275771 0.00024856694)
(-0.082667723 0.093885674 0.00026699329)
(-0.094646998 0.09290253 0.00028552295)
(-0.10646128 0.090398325 0.00030389508)
(-0.11797782 0.086415381 0.00032158062)
(-0.1290669 0.080976107 0.00033782676)
(-0.13959748 0.074093918 0.00035170482)
(-0.14943402 0.065784418 0.00036216374)
(-0.15843404 0.056076248 0.00036809133)
(-0.1664467 0.045021276 0.00036838497)
(-0.17331223 0.032704006 0.00036203209)
(-0.17886253 0.019250183 0.00034819945)
(-0.18292318 0.0048345366 0.00032632921)
(-0.18531739 -0.010312566 0.00029624075)
(-0.185872 -0.025899803 0.0002582159)
(-0.18442619 -0.041572075 0.00021308345)
(-0.18084315 -0.05691086 0.00016226553)
(-0.17502466 -0.071439357 0.00010778583)
(-0.16692828 -0.084633989 5.2222278e-05)
(-0.15658628 -0.095943785 -1.4073759e-06)
(-0.14412461 -0.10481883 -4.9832747e-05)
(-0.12977948 -0.11074796 -8.9786583e-05)
(-0.113908 -0.11330453 -0.00011831015)
(-0.096989368 -0.11219672 -0.00013307378)
(-0.079612831 -0.10731674 -0.00013266699)
(-0.062450287 -0.098781325 -0.0001168014)
(-0.046214679 -0.086954995 -8.6354903e-05)
(-0.031607743 -0.072449912 -4.328536e-05)
(-0.019254152 -0.056099264 9.2519822e-06)
(-0.0096331397 -0.038903926 6.730458e-05)
(-0.0031578304 -0.021961653 0.00013153218)
(-0.00038078526 -0.0064355927 0.00019255718)
(-0.00054759902 0.013033169 5.8438347e-05)
(-0.003465857 0.035479375 0.00013065736)
(-0.0094063959 0.054322973 0.00017554262)
(-0.017386395 0.069745292 0.0002082167)
(-0.026854434 0.082015898 0.0002358158)
(-0.037448152 0.091436759 0.00025996056)
(-0.048850774 0.098307152 0.00028212246)
(-0.060797324 0.10289913 0.0003036509)
(-0.073072179 0.10544208 0.00032540759)
(-0.085496594 0.10611562 0.00034780279)
(-0.097917951 0.10504936 0.00037086447)
(-0.11020101 0.10232799 0.00039428235)
(-0.12222042 0.098000035 0.00041744946)
(-0.13385451 0.09208879 0.00043950503)
(-0.14498015 0.084604373 0.00045937963)
(-0.15546858 0.075555811 0.00047584543)
(-0.16518214 0.064962759 0.00048757518)
(-0.17397175 0.052866573 0.00049321254)
(-0.1816753 0.039340761 0.0004914555)
(-0.18811716 0.024500889 0.00048115313)
(-0.19310912 0.0085140048 0.00046141465)
(-0.19645328 -0.008392568 0.00043172842)
(-0.1979473 -0.025923365 0.00039207953)
(-0.19739266 -0.043708865 0.00034306337)
(-0.1946065 -0.061302524 0.00028597418)
(-0.18943731 -0.078182576 0.00022285424)
(-0.18178453 -0.093760689 0.00015648358)
(-0.17162149 -0.10739972 9.0291262e-05)
(-0.1590201 -0.11844267 2.8173872e-05)
(-0.14417482 -0.12625405 -2.5783526e-05)
(-0.1274219 -0.13027328 -6.7671787e-05)
(-0.1092488 -0.13007711 -9.4173525e-05)
(-0.090288549 -0.12544458 -0.00010297524)
(-0.071294718 -0.11641496 -9.3097147e-05)
(-0.053096441 -0.10332684 -6.5037134e-05)
(-0.036536436 -0.086827872 -2.0741554e-05)
(-0.02238844 -0.06784892 3.622329e-05)
(-0.011268762 -0.047540431 0.00010116748)
(-0.0037218441 -0.027182721 0.00017473833)
(-0.00045691196 -0.0081393816 0.00024443323)
(-0.00055984475 0.014853265 0.00012671638)
(-0.0035453375 0.040221779 0.00020561556)
(-0.0096248076 0.061370781 0.00025171924)
(-0.017792802 0.078574532 0.00028560298)
(-0.027484127 0.092187648 0.00031469766)
(-0.038327159 0.10258896 0.0003407697)
(-0.049997929 0.11014418 0.00036540497)
(-0.062227203 0.11518037 0.00039003564)
(-0.074798409 0.11797049 0.0004155691)
(-0.087535023 0.11872695 0.0004424286)
(-0.10028947 0.11760247 0.00047062627)
(-0.11293389 0.11469633 0.00049980837)
(-0.12535206 0.11006442 0.00052929571)
(-0.13743243 0.10373139 0.00055812343)
(-0.14906227 0.095703601 0.00058508147)
(-0.16012262 0.085982168 0.00060875968)
(-0.17048407 0.074575417 0.00062760213)
(-0.18000324 0.06151079 0.00063997454)
(-0.18852004 0.046846256 0.00064424818)
(-0.19585597 0.03068147 0.00063890204)
(-0.20181373 0.013168863 0.00062264352)
(-0.20617875 -0.0054753516 0.00059454583)
(-0.2087231 -0.024960526 0.00055419619)
(-0.20921263 -0.044912158 0.00050184508)
(-0.20741816 -0.064864852 0.00043854334)
(-0.20313139 -0.084259653 0.00036624437)
(-0.19618605 -0.1024483 0.00028784693)
(-0.18648428 -0.11870745 0.00020715082)
(-0.17402712 -0.13226603 0.00012869975)
(-0.15894668 -0.14234853 5.7493989e-05)
(-0.14153585 -0.14823509 -1.4263403e-06)
(-0.12226912 -0.14933666 -4.3500111e-05)
(-0.10180729 -0.1452787 -6.5205808e-05)
(-0.080978725 -0.13598182 -6.4562437e-05)
(-0.060733909 -0.12172372 -4.1425535e-05)
(-0.042074317 -0.1031659 2.4376006e-06)
(-0.025950479 -0.081333242 6.3084326e-05)
(-0.013148241 -0.057540539 0.00013499753)
(-0.0043785973 -0.033279405 0.00021878984)
(-0.00054808345 -0.010149842 0.0002987331)
(-0.00056512281 0.016704138 0.0002079521)
(-0.003584822 0.045047818 0.00029379087)
(-0.009739982 0.068546105 0.00034073699)
(-0.018014595 0.087565907 0.00037565642)
(-0.027835515 0.10254743 0.00040619351)
(-0.038824727 0.1139479 0.00043424778)
(-0.050653066 0.12220188 0.00046151235)
(-0.063048418 0.12769431 0.00048949855)
(-0.075794276 0.1307448 0.00051916188)
(-0.088717242 0.13160156 0.00055094553)
(-0.1016758 0.13044302 0.00058485551)
(-0.11455071 0.12738527 0.00062050563)
(-0.12723646 0.12249313 0.00065715539)
(-0.13963367 0.11579342 0.00069374495)
(-0.15164252 0.10728888 0.00072892923)
(-0.16315701 0.096971901 0.00076111581)
(-0.17405977 0.084837731 0.00078851223)
(-0.18421763 0.070897084 0.00080918791)
(-0.19347778 0.055188375 0.00082115555)
(-0.20166471 0.037789984 0.00082247567)
(-0.20857842 0.018832874 0.00081138632)
(-0.21399413 -0.001486292 0.0007864579)
(-0.21766445 -0.022891668 0.00074677083)
(-0.21932461 -0.045015037 0.00069210278)
(-0.21870195 -0.067384153 0.00062311997)
(-0.21553096 -0.089414507 0.00054154285)
(-0.20957472 -0.11040753 0.00045025904)
(-0.20065358 -0.12955896 0.00035334621)
(-0.1886808 -0.1459819 0.00025596545)
(-0.17370326 -0.15874899 0.00016409101)
(-0.15594313 -0.16695712 8.4058733e-05)
(-0.13583341 -0.1698146 2.1946583e-05)
(-0.11403768 -0.16674579 -1.7155855e-05)
(-0.091443305 -0.15750014 -2.9867516e-05)
(-0.069120481 -0.14224565 -1.5031696e-05)
(-0.04824434 -0.1216226 2.6031917e-05)
(-0.029971805 -0.096736575 8.9107406e-05)
(-0.015296622 -0.069077572 0.00016778287)
(-0.0051401272 -0.040378991 0.00026261426)
(-0.00065685497 -0.012518071 0.00035460528)
(-0.00056338804 0.018564537 0.00030219023)
(-0.0035843181 0.049906103 0.00039523923)
(-0.0097519591 0.075776055 0.00044265267)
(-0.018051163 0.096630836 0.00047842139)
(-0.027905937 0.11299475 0.00051031824)
(-0.038934098 0.12540358 0.00054036253)
(-0.050802753 0.13436221 0.00057034966)
(-0.063237896 0.14031587 0.00060187032)
(-0.076023794 0.14363374 0.00063593529)
(-0.088990875 0.14460281 0.00067301971)
(-0.10200451 0.14343009 0.00071313833)
(-0.11495519 0.14025091 0.00075588877)
(-0.12774955 0.13514103 0.00080048541)
(-0.14030233 0.12813082 0.00084578812)
(-0.15252914 0.11922005 0.00089032826)
(-0.16434008 0.10839232 0.00093233762)
(-0.17563382 0.095628832 0.0009697865)