/*--------------------------------*- C++ -*----------------------------------*\
  =========                 |
  \\      /  F ield         | OpenFOAM: The Open Source CFD Toolbox
   \\    /   O peration     | Website:  https://openfoam.org
    \\  /    A nd           | Version:  7
     \\/     M anipulation  |
\*---------------------------------------------------------------------------*/
FoamFile
{
    version     2.0;
    format      ascii;
    class       volScalarField;
    location    "2.44";
    object      T;
}
// * * * * * * * * * * * * * * * * * * * * * * * * * * * * * * * * * * * * * //

dimensions      [0 0 0 1 0 0 0];

internalField   nonuniform List<scalar> 
1000
(
1.38444e-183
1.48278e-183
1.84495e-183
2.8885e-183
5.69375e-183
1.30582e-182
3.22234e-182
8.19289e-182
2.10649e-181
5.43728e-181
1.40516e-180
3.63212e-180
9.38696e-180
2.42528e-179
6.26396e-179
1.61726e-178
4.17395e-178
1.07685e-177
2.77715e-177
7.15945e-177
1.845e-176
4.75279e-176
1.22387e-175
3.15033e-175
8.1061e-175
2.08498e-174
5.36072e-174
1.37777e-173
3.53968e-173
9.09037e-173
2.33362e-172
5.98839e-172
1.5361e-171
3.93875e-171
1.00955e-170
2.58657e-170
6.62443e-170
1.6959e-169
4.3399e-169
1.11016e-168
2.83868e-168
7.25561e-168
1.85377e-167
4.73437e-167
1.20863e-166
3.08422e-166
7.86723e-166
2.00595e-165
5.11258e-165
1.30251e-164
3.31698e-164
8.44355e-164
2.14846e-163
5.46446e-163
1.38927e-162
3.53055e-162
8.96844e-162
2.27723e-161
5.77982e-161
1.46635e-160
3.71856e-160
9.42597e-160
2.38832e-159
6.04883e-159
1.53131e-158
3.87496e-158
9.80127e-158
2.47804e-157
6.26247e-157
1.58195e-156
3.99437e-156
1.00812e-155
2.54322e-155
6.41304e-155
1.61641e-154
4.07233e-154
1.02551e-153
2.58133e-153
6.49458e-153
1.63329e-152
4.10559e-152
1.03155e-151
2.59066e-151
6.50323e-151
1.63173e-150
4.09231e-150
1.02586e-149
2.57042e-149
6.43753e-149
1.6115e-148
4.03218e-148
1.00843e-147
2.52084e-147
6.29853e-147
1.573e-146
3.92653e-146
9.79677e-146
2.44314e-145
6.08984e-145
1.51724e-144
3.77825e-144
9.40411e-144
2.33955e-143
5.81748e-143
1.44585e-142
3.5917e-142
8.91788e-142
2.21313e-141
5.48956e-141
1.36098e-140
3.37247e-140
8.35268e-140
2.06769e-139
5.11593e-139
1.26516e-138
3.1271e-138
7.72536e-138
1.90754e-137
4.70764e-137
1.16121e-136
2.8628e-136
7.0542e-136
1.73731e-135
4.27641e-135
1.05209e-134
2.58702e-134
6.35793e-134
1.56171e-133
3.83403e-133
9.40759e-133
2.30711e-132
5.65489e-132
1.38531e-131
3.39182e-131
8.30009e-131
2.03e-130
4.96218e-130
1.2123e-129
2.96011e-129
7.22379e-129
1.7619e-128
4.29493e-128
1.04638e-127
2.54786e-127
6.20039e-127
1.50805e-126
3.66579e-126
8.90579e-126
2.16236e-125
5.2473e-125
1.2726e-124
3.0846e-124
7.4723e-124
1.80907e-123
4.37728e-123
1.05852e-122
2.55821e-122
6.17901e-122
1.49157e-121
3.59841e-121
8.67596e-121
2.09057e-120
5.03443e-120
1.21164e-119
2.91431e-119
7.00539e-119
1.68292e-118
4.04045e-118
9.69456e-118
2.32466e-117
5.57083e-117
1.33417e-116
3.19325e-116
7.63802e-116
1.82581e-115
4.36171e-115
1.04132e-114
2.48446e-114
5.92386e-114
1.41156e-113
3.36135e-113
7.99922e-113
1.90239e-112
4.52137e-112
1.07388e-111
2.54892e-111
6.04606e-111
1.43318e-110
3.39501e-110
8.03695e-110
1.9013e-109
4.4949e-109
1.06193e-108
2.50714e-108
5.91515e-108
1.39462e-107
3.28587e-107
7.73653e-107
1.82029e-106
4.27993e-106
1.00561e-105
2.36112e-105
5.53992e-105
1.29892e-104
3.04337e-104
7.12555e-104
1.66714e-103
3.89778e-103
9.10646e-103
2.12603e-102
4.9599e-102
1.15628e-101
2.6936e-101
6.27028e-101
1.45855e-100
3.39027e-100
7.87454e-100
1.82765e-99
4.23873e-99
9.82317e-99
2.27479e-98
5.26382e-98
1.21711e-97
2.81209e-97
6.49223e-97
1.4977e-96
3.45239e-96
7.95201e-96
1.83019e-95
4.20897e-95
9.67193e-95
2.22079e-94
5.09517e-94
1.16805e-93
2.6756e-93
6.12392e-93
1.40051e-92
3.20033e-92
7.30715e-92
1.66704e-91
3.80005e-91
8.65515e-91
1.9697e-90
4.47883e-90
1.01758e-89
2.30996e-89
5.23936e-89
1.18736e-88
2.68856e-88
6.08257e-88
1.37493e-87
3.10529e-87
7.00726e-87
1.57985e-86
3.55883e-86
8.00972e-86
1.80113e-85
4.0466e-85
9.08343e-85
2.03715e-84
4.56463e-84
1.02188e-83
2.2856e-83
5.10749e-83
1.1403e-82
2.54351e-82
5.66824e-82
1.26201e-81
2.8072e-81
6.23849e-81
1.38509e-80
3.07235e-80
6.8085e-80
1.50737e-79
3.33408e-79
7.36742e-79
1.62644e-78
3.58706e-78
7.9035e-78
1.73971e-77
3.82568e-77
8.40451e-77
1.84453e-76
4.04418e-76
8.85809e-76
1.93827e-75
4.23693e-75
9.25229e-75
2.01839e-74
4.39863e-74
9.57601e-74
2.08259e-73
4.52452e-73
9.81952e-73
2.12889e-72
4.61063e-72
9.97491e-72
2.15574e-71
4.65395e-71
1.00365e-70
2.1621e-70
4.65264e-70
1.00012e-69
2.14748e-69
4.60608e-69
9.86859e-69
2.11202e-68
4.515e-68
9.64124e-68
2.05646e-67
4.38143e-67
9.32439e-67
1.98212e-66
4.20865e-66
8.92596e-66
1.89089e-65
4.00103e-65
8.45612e-65
1.78509e-64
3.76391e-64
7.92688e-64
1.66743e-63
3.50329e-63
7.35158e-63
1.54085e-62
3.22563e-62
6.74431e-62
1.40841e-61
2.93754e-61
6.11931e-61
1.27315e-60
2.64555e-60
5.49041e-60
1.13801e-59
2.35578e-59
4.87047e-59
1.00566e-58
2.07381e-58
4.27097e-58
8.78454e-58
1.80444e-57
3.70167e-57
7.58364e-57
1.55161e-56
3.17034e-56
6.46917e-56
1.31827e-55
2.68271e-55
5.45196e-55
1.10646e-54
2.24245e-54
4.53848e-54
9.17263e-54
1.85128e-53
3.73113e-53
7.50925e-53
1.50917e-52
3.02872e-52
6.06961e-52
1.21461e-51
2.42709e-51
4.84287e-51
9.64907e-51
1.91969e-50
3.81361e-50
7.56479e-50
1.49834e-49
2.96329e-49
5.85172e-49
1.15382e-48
2.27158e-48
4.46536e-48
8.76432e-48
1.71755e-47
3.36067e-47
6.56547e-47
1.28063e-46
2.49402e-46
4.84939e-46
9.4142e-46
1.82467e-45
3.53093e-45
6.82168e-45
1.3158e-44
2.53383e-44
4.8714e-44
9.35007e-44
1.79166e-43
3.42748e-43
6.54586e-43
1.24804e-42
2.37551e-42
4.51386e-42
8.56244e-42
1.62144e-41
3.0652e-41
5.78446e-41
1.08971e-40
2.04927e-40
3.84703e-40
7.20914e-40
1.34856e-39
2.51816e-39
4.69373e-39
8.73315e-39
1.62195e-38
3.00686e-38
5.56412e-38
1.02774e-37
1.89482e-37
3.48695e-37
6.40497e-37
1.17429e-36
2.1489e-36
3.92497e-36
7.15538e-36
1.30197e-35
2.36449e-35
4.28586e-35
7.7535e-35
1.39996e-34
2.52281e-34
4.53735e-34
8.1445e-34
1.45904e-33
2.60861e-33
4.65459e-33
8.28866e-33
1.47303e-32
2.61253e-32
4.62412e-32
8.16789e-32
1.43979e-31
2.53278e-31
4.44627e-31
7.78921e-31
1.36171e-30
2.37557e-30
4.13559e-30
7.1844e-30
1.24544e-29
2.15442e-29
3.71887e-29
6.40558e-29
1.10096e-28
1.88818e-28
3.23128e-28
5.5177e-28
9.40139e-28
1.59835e-27
2.7114e-27
4.58939e-27
7.75089e-27
1.30611e-26
2.19602e-26
3.68399e-26
6.16626e-26
1.02978e-25
1.71585e-25
2.8525e-25
4.7313e-25
7.82962e-25
1.29271e-24
2.12942e-24
3.49957e-24
5.738e-24
9.38632e-24
1.53185e-23
2.49413e-23
4.05136e-23
6.56537e-23
1.06143e-22
1.71197e-22
2.75465e-22
4.42184e-22
7.08112e-22
1.13126e-21
1.80292e-21
2.86647e-21
4.54642e-21
7.19352e-21
1.13543e-20
1.78782e-20
2.80822e-20
4.40025e-20
6.87799e-20
1.07246e-19
1.66815e-19
2.58834e-19
4.00623e-19
6.18557e-19
9.52684e-19
1.46367e-18
2.24315e-18
3.42921e-18
5.22938e-18
7.95471e-18
1.20702e-17
1.82692e-17
2.75827e-17
4.15401e-17
6.24036e-17
9.35108e-17
1.39773e-16
2.08397e-16
3.09933e-16
4.5978e-16
6.80358e-16
1.00422e-15
1.47852e-15
2.17134e-15
3.18077e-15
4.64771e-15
6.77405e-15
9.84827e-15
1.42815e-14
2.0658e-14
2.98062e-14
4.2897e-14
6.15813e-14
8.81807e-14
1.25951e-13
1.79445e-13
2.55015e-13
3.61495e-13
5.11146e-13
7.20929e-13
1.01425e-12
1.42333e-12
1.99238e-12
2.78195e-12
3.87467e-12
5.38308e-12
7.46e-12
1.03124e-11
1.42199e-11
1.9559e-11
2.68358e-11
3.67283e-11
5.01426e-11
6.82866e-11
9.27656e-11
1.25708e-10
1.69929e-10
2.2914e-10
3.08223e-10
4.13582e-10
5.53598e-10
7.39202e-10
9.84627e-10
1.30834e-09
1.73427e-09
2.29328e-09
3.02515e-09
3.98096e-09
5.22616e-09
6.84438e-09
8.9422e-09
1.16551e-08
1.51549e-08
1.96589e-08
2.5441e-08
3.2846e-08
4.23065e-08
5.4364e-08
6.96945e-08
8.91396e-08
1.13745e-07
1.44805e-07
1.83921e-07
2.33066e-07
2.94664e-07
3.7169e-07
4.67781e-07
5.87377e-07
7.35879e-07
9.19847e-07
1.14722e-06
1.42759e-06
1.77253e-06
2.19591e-06
2.71439e-06
3.3479e-06
4.12019e-06
5.05954e-06
6.1995e-06
7.57982e-06
9.24744e-06
1.12577e-05
1.36755e-05
1.65772e-05
2.00518e-05
2.42034e-05
2.9153e-05
3.50413e-05
4.20308e-05
5.03098e-05
6.00949e-05
7.16354e-05
8.52172e-05
0.000101167
0.000119859
0.000141717
0.000167224
0.000196928
0.000231446
0.000271476
0.000317801
0.000371303
0.000432965
0.000503887
0.000585295
0.00067855
0.00078516
0.000906795
0.00104529
0.00120268
0.00138118
0.00158323
0.00181147
0.00206882
0.00235841
0.00268364
0.00304822
0.00345611
0.00391158
0.00441923
0.00498395
0.00561099
0.00630592
0.00707464
0.00792342
0.00885887
0.00988793
0.0110179
0.0122564
0.0136115
0.0150913
0.0167046
0.0184601
0.020367
0.0224348
0.0246729
0.0270913
0.0296999
0.0325087
0.0355278
0.0387676
0.042238
0.0459492
0.0499112
0.0541338
0.0586265
0.0633987
0.0684592
0.0738167
0.0794792
0.0854543
0.0917489
0.0983694
0.105321
0.112609
0.120238
0.12821
0.136528
0.145193
0.154205
0.163564
0.173268
0.183314
0.193698
0.204415
0.215459
0.226822
0.238497
0.250473
0.26274
0.275286
0.2881
0.301166
0.314471
0.327999
0.341734
0.355659
0.369755
0.384006
0.398392
0.412893
0.42749
0.442163
0.456892
0.471655
0.486433
0.501206
0.515951
0.530651
0.545284
0.559831
0.574272
0.58859
0.602765
0.616781
0.630619
0.644265
0.657702
0.670915
0.683891
0.696616
0.709078
0.721266
0.733168
0.744776
0.756079
0.767071
0.777743
0.788089
0.798104
0.807783
0.81712
0.826113
0.834758
0.843053
0.850996
0.858585
0.86582
0.872699
0.879222
0.885389
0.891199
0.896654
0.901753
0.906496
0.910884
0.914916
0.918594
0.921916
0.924883
0.927494
0.929749
0.931647
0.933187
0.934368
0.935188
0.935645
0.935738
0.935463
0.93482
0.933804
0.932415
0.930647
0.928499
0.925968
0.923051
0.919745
0.916047
0.911955
0.907465
0.902578
0.89729
0.8916
0.885508
0.879013
0.872116
0.864818
0.85712
0.849025
0.840536
0.831657
0.822393
0.81275
0.802735
0.792354
0.781618
0.770535
0.759116
0.747372
0.735317
0.722962
0.710324
0.697415
0.684253
0.670855
0.657237
0.643418
0.629416
0.61525
0.600941
0.586508
0.571972
0.557354
0.542673
0.527952
0.513211
0.498471
0.483752
0.469075
0.45446
0.439926
0.425494
0.411182
0.397007
0.382987
0.36914
0.355481
0.342024
0.328786
0.315778
0.303014
0.290504
0.278261
0.266292
0.254608
0.243215
0.23212
0.221329
0.210847
0.200677
0.190822
0.181285
0.172065
0.163164
0.154581
0.146314
0.138361
0.130719
0.123385
0.116355
0.109624
0.103187
0.0970374
0.0911702
0.0855786
0.0802557
0.0751944
0.0703872
0.0658265
0.0615046
0.0574136
0.0535454
0.0498919
0.0464451
0.0431968
0.0401388
0.0372633
0.0345622
0.0320278
0.0296521
0.0274278
0.0253474
0.0234035
0.0215892
0.0198977
0.0183222
0.0168563
0.0154938
0.0142287
0.0130552
0.0119679
0.0109614
0.0100307
0.00917089
0.0083774
0.00764584
0.00697205
0.00635208
0.0057822
0.00525887
0.00477875
0.00433872
0.0039358
0.00356724
0.00323041
0.00292289
0.00264238
0.00238677
0.00215405
0.00194238
0.00175004
0.00157541
0.00141703
0.0012735
0.00114356
0.00102602
0.0009198
0.000823898
0.000737387
0.00065942
0.000589214
0.000526053
0.000469282
0.000418298
0.000372553
0.000331543
0.00029481
0.000261938
0.000232546
0.000206288
0.00018285
0.000161947
0.000143321
0.000126738
0.000111985
9.88734e-05
8.72289e-05
7.68963e-05
6.77353e-05
5.96198e-05
5.24365e-05
4.60835e-05
4.04694e-05
3.55122e-05
3.11388e-05
2.72833e-05
2.38873e-05
2.08984e-05
1.82698e-05
1.596e-05
1.39318e-05
1.21525e-05
1.05926e-05
9.22611e-06
8.03007e-06
6.98399e-06
6.06978e-06
5.27143e-06
4.57478e-06
3.96735e-06
3.43811e-06
2.97734e-06
2.5765e-06
2.22804e-06
1.92534e-06
1.6626e-06
1.43471e-06
1.23719e-06
1.06612e-06
9.1807e-07
7.9003e-07
6.79379e-07
5.83825e-07
5.01367e-07
4.30261e-07
3.68989e-07
3.16228e-07
2.70828e-07
2.31791e-07
1.98247e-07
1.69444e-07
1.44729e-07
1.23537e-07
1.05379e-07
8.98302e-08
7.65254e-08
6.51485e-08
5.54268e-08
4.71252e-08
4.00409e-08
3.39997e-08
2.88514e-08
2.44669e-08
2.07355e-08
1.7562e-08
1.48647e-08
1.25737e-08
1.06291e-08
8.97963e-09
7.58137e-09
6.39684e-09
5.39402e-09
4.5456e-09
3.82825e-09
3.22213e-09
2.71031e-09
2.2784e-09
1.91414e-09
1.60715e-09
1.34857e-09
1.13092e-09
9.47819e-10
7.93889e-10
6.64561e-10
5.5597e-10
4.64847e-10
3.8843e-10
3.24383e-10
2.70738e-10
2.25832e-10
1.88264e-10
1.56855e-10
1.3061e-10
1.08694e-10
9.04029e-11
7.51475e-11
6.24321e-11
5.18428e-11
4.30366e-11
3.57389e-11
2.97546e-11
2.50206e-11
2.17662e-11
)
;

boundaryField
{
    sides
    {
        type            zeroGradient;
    }
    empty
    {
        type            empty;
    }
}


// ************************************************************************* //
