/*--------------------------------*- C++ -*----------------------------------*\
  =========                 |
  \\      /  F ield         | OpenFOAM: The Open Source CFD Toolbox
   \\    /   O peration     | Website:  https://openfoam.org
    \\  /    A nd           | Version:  7
     \\/     M anipulation  |
\*---------------------------------------------------------------------------*/
FoamFile
{
    version     2.0;
    format      ascii;
    class       volScalarField;
    location    "4.2";
    object      p;
}
// * * * * * * * * * * * * * * * * * * * * * * * * * * * * * * * * * * * * * //

dimensions      [1 -1 -2 0 0 0 0];

internalField   nonuniform List<scalar> 
19968
(
1
1
1
1
1
1
1
1
1
1
1
1
1
1
1
1
1
1
1
1
1
1
1
1
1
1
1
1
1
1
1
1
1
1
1
1
1
1
1
1
1
1
1
1
1
1
1
1
1.44569
7.82807
10.4247
10.4516
10.5117
10.5711
10.6284
10.6833
10.7395
10.8
10.8645
10.9285
10.9863
11.0346
11.0747
11.1112
11.1496
11.1936
11.2437
11.2962
11.346
11.3907
11.4313
11.4698
11.508
11.5483
11.5917
11.6372
11.6816
11.7208
11.7513
11.7726
11.7874
11.8004
11.817
11.8413
11.8725
11.9064
11.9377
11.964
11.9851
12.0018
12.015
12.0252
12.0323
12.0363
12.0391
12.0401
1
1
1
1
1
1
1
1
1
1
1
1
1
1
1
1
1
1
1
1
1
1
1
1
1
1
1
1
1
1
1
1
1
1
1
1
1
1
1
1
1
1
1
1
1
1
1
1
1.41701
7.75378
10.41
10.45
10.51
10.5696
10.6269
10.6817
10.7377
10.7979
10.862
10.9257
10.9831
11.0314
11.0716
11.1083
11.1469
11.1909
11.241
11.2933
11.3429
11.3874
11.4277
11.466
11.5042
11.5444
11.5876
11.6326
11.6762
11.7147
11.7449
11.7665
11.7823
11.7963
11.8137
11.8379
11.8685
11.9014
11.9321
11.958
11.9791
11.996
12.0095
12.0198
12.0269
12.0306
12.0331
12.0339
1
1
1
1
1
1
1
1
1
1
1
1
1
1
1
1
1
1
1
1
1
1
1
1
1
1
1
1
1
1
1
1
1
1
1
1
1
1
1
1
1
1
1
1
1
1
1
1
1.35739
7.60267
10.3985
10.4421
10.5026
10.5625
10.6207
10.6761
10.7322
10.792
10.8557
10.9189
10.9763
11.0248
11.0655
11.1026
11.1413
11.1853
11.2352
11.2875
11.3371
11.3816
11.4217
11.4598
11.4978
11.5379
11.5807
11.625
11.6676
11.7052
11.7351
11.7576
11.7748
11.7904
11.8085
11.8323
11.8615
11.8927
11.9221
11.9474
11.968
11.9847
11.998
12.0084
12.0154
12.0187
12.0208
12.0213
1
1
1
1
1
1
1
1
1
1
1
1
1
1
1
1
1
1
1
1
1
1
1
1
1
1
1
1
1
1
1
1
1
1
1
1
1
1
1
1
1
1
1
1
1
1
1
1
1.27191
7.36521
10.3844
10.435
10.4965
10.5562
10.6148
10.6702
10.726
10.7851
10.8478
10.9104
10.9675
11.016
11.0569
11.0942
11.1327
11.1763
11.2259
11.278
11.3278
11.3724
11.4124
11.4503
11.4881
11.5278
11.57
11.6132
11.6546
11.6912
11.7211
11.7447
11.7638
11.7813
11.8005
11.8239
11.8515
11.8811
11.9094
11.9341
11.9543
11.9703
11.9828
11.9923
11.998
11.9996
12.0004
11.9999
1
1
1
1
1
1
1
1
1
1
1
1
1
1
1
1
1
1
1
1
1
1
1
1
1
1
1
1
1
1
1
1
1
1
1
1
1
1
1
1
1
1
1
1
1
1
1
1
1.14278
7.02296
10.3707
10.4261
10.4879
10.5492
10.608
10.6632
10.7178
10.7752
10.836
10.8974
10.9541
11.0024
11.0432
11.0801
11.1178
11.1601
11.2085
11.2601
11.3097
11.3548
11.3951
11.433
11.4704
11.5092
11.5502
11.5921
11.6322
11.6678
11.6977
11.7223
11.7432
11.7625
11.7826
11.8053
11.8311
11.8589
11.8863
11.9111
11.9322
11.9491
11.962
11.9716
11.9768
11.9776
11.9775
11.9762
1
1
1
1
1
1
1
1
1
1
1
1
1
1
1
1
1
1
1
1
1
1
1
1
1
1
1
1
1
1
1
1
1
1
1
1
1
1
1
1
1
1
1
1
1
1
1
1
1.00463
6.47777
10.3469
10.4107
10.4639
10.5254
10.5837
10.6386
10.6926
10.7492
10.8096
10.8717
10.9306
10.9813
11.024
11.0619
11.0994
11.1404
11.1871
11.2373
11.2861
11.3312
11.3714
11.409
11.4453
11.4827
11.5222
11.5628
11.6019
11.6372
11.6676
11.6934
11.7161
11.7372
11.7581
11.7802
11.804
11.8295
11.8556
11.8804
11.9022
11.9197
11.9326
11.9416
11.9458
11.9458
11.9448
11.943
1
1
1
1
1
1
1
1
1
1
1
1
1
1
1
1
1
1
1
1
1
1
1
1
1
1
1
1
1
1
1
1
1
1
1
1
1
1
1
1
1
1
1
1
1
1
1
1
1.00002
5.72989
10.2653
10.38
10.4345
10.4994
10.5595
10.6158
10.6703
10.7267
10.7863
10.8478
10.9065
10.9573
10.9994
11.0362
11.072
11.1105
11.1546
11.2036
11.2523
11.2986
11.3403
11.3787
11.4149
11.4514
11.4897
11.5291
11.5673
11.6021
11.6324
11.6587
11.6823
11.7041
11.725
11.7458
11.7674
11.7904
11.8148
11.8393
11.8619
11.8804
11.8939
11.903
11.907
11.907
11.9059
11.9043
1
1
1
1
1
1
1
1
1
1
1
1
1
1
1
1
1
1
1
1
1
1
1
1
1
1
1
1
1
1
1
1
1
1
1
1
1
1
1
1
1
1
1
1
1
1
1
1
1
4.79807
10.1178
10.3434
10.4003
10.4693
10.5313
10.5888
10.6435
10.6992
10.7576
10.8178
10.8763
10.9279
10.9703
11.0066
11.0411
11.0775
11.1187
11.166
11.2139
11.2606
11.3028
11.3412
11.3763
11.4111
11.4474
11.4853
11.5226
11.557
11.5873
11.614
11.6382
11.6607
11.6819
11.7022
11.7222
11.7428
11.765
11.7882
11.8105
11.8291
11.8425
11.8513
11.855
11.8552
11.8541
11.8529
1
1
1
1
1
1
1
1
1
1
1
1
1
1
1
1
1
1
1
1
1
1
1
1
1
1
1
1
1
1
1
1
1
1
1
1
1
1
1
1
1
1
1
1
1
1
1
1
1
3.74496
9.81383
10.3106
10.3712
10.4446
10.5071
10.5645
10.6178
10.6712
10.7271
10.7852
10.8424
10.8943
10.9376
10.9735
11.0066
11.0407
11.0782
11.1224
11.1679
11.2128
11.2544
11.2917
11.3254
11.3581
11.3923
11.4284
11.4644
11.4978
11.5275
11.5536
11.5773
11.5995
11.6206
11.6404
11.6593
11.6784
11.6987
11.7203
11.7418
11.7605
11.7746
11.784
11.7892
11.7912
11.791
11.791
1
1
1
1
1
1
1
1
1
1
1
1
1
1
1
1
1
1
1
1
1
1
1
1
1
1
1
1
1
1
1
1
1
1
1
1
1
1
1
1
1
1
1
1
1
1
1
1
1
2.64694
9.19614
10.3052
10.3615
10.4343
10.4925
10.5463
10.5956
10.6445
10.696
10.7501
10.8044
10.8553
10.8994
10.9357
10.9684
11.001
11.0358
11.0767
11.1202
11.1631
11.2035
11.2392
11.2713
11.3012
11.3321
11.3647
11.3977
11.4286
11.456
11.4803
11.5026
11.5238
11.5446
11.5645
11.5833
11.6012
11.6192
11.6377
11.656
11.6721
11.6848
11.6936
11.6993
11.7025
11.703
11.704
1
1
1
1
1
1
1
1
1
1
1
1
1
1
1
1
1
1
1
1
1
1
1
1
1
1
1
1
1
1
1
1
1
1
1
1
1
1
1
1
1
1
1
1
1
1
1
1
1
1.66085
8.15248
10.3521
10.337
10.4064
10.4576
10.5103
10.5577
10.6033
10.6517
10.7036
10.7564
10.8068
10.8518
10.8893
10.9223
10.9547
10.988
11.0252
11.0661
11.1064
11.1453
11.1792
11.2096
11.2369
11.2643
11.293
11.3221
11.3494
11.3733
11.3941
11.4128
11.4306
11.4485
11.4661
11.4828
11.4984
11.5132
11.5279
11.5427
11.5565
11.5687
11.5784
11.5861
11.5915
11.5939
11.5964
1
1
1
1
1
1
1
1
1
1
1
1
1
1
1
1
1
1
1
1
1
1
1
1
1
1
1
1
1
1
1
1
1
1
1
1
1
1
1
1
1
1
1
1
1
1
1
1
1
1.02194
6.41238
10.2853
10.3109
10.3598
10.4114
10.4642
10.5119
10.5562
10.6017
10.6502
10.7002
10.7485
10.7926
10.8298
10.8613
10.8918
10.9232
10.9562
10.994
11.0307
11.0668
11.0986
11.1267
11.1517
11.176
11.201
11.2264
11.2502
11.271
11.2886
11.3042
11.3192
11.3346
11.3507
11.3665
11.3806
11.3925
11.4026
11.4111
11.4182
11.4238
11.4277
11.4304
11.4322
11.4325
11.4341
1
1
1
1
1
1
1
1
1
1
1
1
1
1
1
1
1
1
1
1
1
1
1
1
1
1
1
1
1
1
1
1
1
1
1
1
1
1
1
1
1
1
1
1
1
1
1
1
1
1.00003
4.31426
9.8428
10.2051
10.2682
10.3327
10.3886
10.4362
10.4778
10.5184
10.5615
10.6072
10.6525
10.6946
10.7314
10.7627
10.7922
10.8231
10.8546
10.889
10.9231
10.9559
10.9864
11.013
11.0367
11.0589
11.0812
11.1034
11.1239
11.1409
11.1545
11.1655
11.1755
11.1855
11.196
11.206
11.2134
11.2173
11.2184
11.2181
11.2179
11.2188
11.2212
11.2238
11.2261
11.2264
11.2281
1
1
1
1
1
1
1
1
1
1
1
1
1
1
1
1
1
1
1
1
1
1
1
1
1
1
1
1
1
1
1
1
1
1
1
1
1
1
1
1
1
1
1
1
1
1
1
1
1
1
2.18443
8.627
10.1637
10.1956
10.2776
10.3355
10.3845
10.4252
10.4626
10.5012
10.5426
10.5846
10.624
10.6588
10.6882
10.7145
10.7418
10.7696
10.7976
10.8256
10.8516
10.8768
10.8992
10.9189
10.9364
10.9534
10.9698
10.9841
10.9949
11.0015
11.0053
11.0079
11.0097
11.0127
11.0153
11.0165
11.0151
11.0106
11.0033
10.9944
10.9833
10.9701
10.9506
10.9259
10.8987
10.8753
1
1
1
1
1
1
1
1
1
1
1
1
1
1
1
1
1
1
1
1
1
1
1
1
1
1
1
1
1
1
1
1
1
1
1
1
1
1
1
1
1
1
1
1
1
1
1
1
1
1
1.04424
6.02257
10.1697
10.2249
10.2549
10.2912
10.3264
10.3591
10.3894
10.4205
10.4545
10.4904
10.5254
10.557
10.5841
10.6071
10.6297
10.6534
10.676
10.6982
10.7175
10.7349
10.7512
10.7652
10.7771
10.7875
10.7973
10.805
10.8092
10.808
10.8027
10.7949
10.7859
10.7761
10.7644
10.7493
10.7285
10.7003
10.6638
10.6196
10.57
10.5183
10.4728
10.4316
10.4087
10.3953
1
1
1
1
1
1
1
1
1
1
1
1
1
1
1
1
1
1
1
1
1
1
1
1
1
1
1
1
1
1
1
1
1
1
1
1
1
1
1
1
1
1
1
1
1
1
1
1
1
1
1.00005
2.98297
9.12442
10.0576
10.1137
10.165
10.2105
10.249
10.2812
10.3111
10.3421
10.3751
10.4083
10.4389
10.465
10.4868
10.5065
10.5263
10.5447
10.5608
10.5734
10.5829
10.5909
10.5974
10.6016
10.603
10.6034
10.6016
10.5962
10.5844
10.5668
10.5448
10.5191
10.49
10.4568
10.4185
10.3733
10.3199
10.2576
10.1882
10.113
10.0353
9.94494
9.85763
9.74094
9.82935
1
1
1
1
1
1
1
1
1
1
1
1
1
1
1
1
1
1
1
1
1
1
1
1
1
1
1
1
1
1
1
1
1
1
1
1
1
1
1
1
1
1
1
1
1
1
1
1
1
1
1
1.11391
7.03419
10.097
10.0738
10.0946
10.1328
10.1675
10.1984
10.2251
10.2506
10.2768
10.3041
10.3304
10.3537
10.373
10.3889
10.4031
10.4163
10.427
10.4347
10.4386
10.4383
10.4362
10.4318
10.4247
10.4149
10.4028
10.387
10.3645
10.3351
10.2989
10.2559
10.206
10.1486
10.0824
10.0044
9.9111
9.79494
9.65035
9.45742
9.20075
8.82173
8.26588
7.34806
5.47854
1
1
1
1
1
1
1
1
1
1
1
1
1
1
1
1
1
1
1
1
1
1
1
1
1
1
1
1
1
1
1
1
1
1
1
1
1
1
1
1
1
1
1
1
1
1
1
1
1
1
1
1.00033
4.27353
9.47137
9.92154
9.97846
10.0359
10.0787
10.1126
10.1374
10.1589
10.1813
10.2052
10.2291
10.2507
10.2685
10.2825
10.2937
10.3032
10.3102
10.3141
10.3128
10.306
10.2966
10.2847
10.2699
10.2513
10.2296
10.2038
10.1716
10.1314
10.082
10.0226
9.95289
9.87168
9.77828
9.66672
9.53439
9.36594
9.15703
8.87398
8.5096
7.98983
7.34634
6.1037
4.4982
1
1
1
1
1
1
1
1
1
1
1
1
1
1
1
1
1
1
1
1
1
1
1
1
1
1
1
1
1
1
1
1
1
1
1
1
1
1
1
1
1
1
1
1
1
1
1
1
1
1
1
0.999999
1.71355
7.96638
9.91605
9.91857
9.96582
10.0072
10.0393
10.0611
10.0794
10.0971
10.1156
10.1348
10.1527
10.1677
10.1785
10.1844
10.1878
10.1894
10.1885
10.1828
10.1711
10.1542
10.1333
10.1098
10.0824
10.0508
10.0144
9.97178
9.92019
9.85801
9.78244
9.69388
9.58936
9.47036
9.32833
9.1618
8.95356
8.69647
8.36697
7.94312
7.40897
6.63857
5.63102
4.5124
1
1
1
1
1
1
1
1
1
1
1
1
1
1
1
1
1
1
1
1
1
1
1
1
1
1
1
1
1
1
1
1
1
1
1
1
1
1
1
1
1
1
1
1
1
1
1
1
1
1
1
1
1.01826
5.06536
9.66504
9.84445
9.8858
9.92174
9.95032
9.97023
9.98774
10.0045
10.0208
10.0371
10.0525
10.0646
10.0704
10.0706
10.0679
10.0643
10.0588
10.0487
10.0324
10.0091
9.98061
9.94845
9.91183
9.86995
9.82268
9.76987
9.70767
9.63442
9.54483
9.43975
9.31483
9.17291
9.00707
8.81437
8.58251
8.29972
7.95433
7.52053
6.9914
6.31882
5.53214
4.726
1
1
1
1
1
1
1
1
1
1
1
1
1
1
1
1
1
1
1
1
1
1
1
1
1
1
1
1
1
1
1
1
1
1
1
1
1
1
1
1
1
1
1
1
1
1
1
1
1
1
1
1
0.999995
1.96727
8.24142
9.83534
9.81777
9.85298
9.87875
9.89531
9.90856
9.9215
9.9332
9.94512
9.95647
9.96407
9.96503
9.95978
9.9506
9.94031
9.92817
9.91311
9.89313
9.86604
9.83178
9.79146
9.74489
9.69285
9.63505
9.57227
9.50036
9.41744
9.31752
9.20015
9.06105
8.90191
8.71973
8.51101
8.26813
7.97878
7.6427
7.22161
6.74898
6.18713
5.57297
4.94375
1
1
1
1
1
1
1
1
1
1
1
1
1
1
1
1
1
1
1
1
1
1
1
1
1
1
1
1
1
1
1
1
1
1
1
1
1
1
1
1
1
1
1
1
1
1
1
1
1
1
1
1
0.999999
1.03006
5.12242
9.62419
9.74572
9.7736
9.79507
9.81021
9.82242
9.83299
9.84158
9.84957
9.85681
9.8605
9.85767
9.84762
9.83305
9.81627
9.79629
9.77534
9.75091
9.72055
9.68223
9.6357
9.5804
9.51891
9.45117
9.37853
9.29743
9.20576
9.0985
8.97356
8.82718
8.659
8.46832
8.25284
8.00877
7.72527
7.40545
7.02166
6.61105
6.1481
5.64187
5.1311
1
1
1
1
1
1
1
1
1
1
1
1
1
1
1
1
1
1
1
1
1
1
1
1
1
1
1
1
1
1
1
1
1
1
1
1
1
1
1
1
1
1
1
1
1
1
1
1
1
1
1
1
1
1.00002
1.824
8.0278
9.7504
9.72743
9.73859
9.74275
9.74542
9.74766
9.75
9.7525
9.75434
9.75469
9.74996
9.73679
9.71875
9.69647
9.66841
9.63998
9.61003
9.57687
9.53591
9.48479
9.42286
9.35385
9.27875
9.19891
9.11059
9.01153
8.89816
8.76851
8.61945
8.44917
8.25745
8.04235
7.80447
7.52964
7.23244
6.88978
6.53142
6.13873
5.71114
5.28208
1
1
1
1
1
1
1
1
1
1
1
1
1
1
1
1
1
1
1
1
1
1
1
1
1
1
1
1
1
1
1
1
1
1
1
1
1
1
1
1
1
1
1
1
1
1
1
1
1
1
1
1
1
1
1.02079
4.60702
9.28939
9.60838
9.61917
9.63448
9.64889
9.65778
9.66003
9.65705
9.65324
9.64985
9.64297
9.62593
9.60406
9.57714
9.54278
9.50804
9.47226
9.43523
9.39049
9.33478
9.26784
9.19379
9.11381
9.02883
8.93466
8.82909
8.70998
8.57709
8.42824
8.26087
8.0751
7.86721
7.64143
7.38125
7.10782
6.79971
6.48518
6.13906
5.77711
5.40375
1
1
1
1
1
1
1
1
1
1
1
1
1
1
1
1
1
1
1
1
1
1
1
1
1
1
1
1
1
1
1
1
1
1
1
1
1
1
1
1
1
1
1
1
1
1
1
1
1
1
1
1
1
1
1.00001
1.38545
7.39577
9.67897
9.60195
9.59458
9.58518
9.58119
9.57541
9.56505
9.55394
9.54464
9.53426
9.51476
9.48974
9.45925
9.42114
9.382
9.34039
9.29854
9.25019
9.1921
9.12357
9.04733
8.96441
8.87578
8.77736
8.66739
8.5444
8.40948
8.26148
8.09792
7.92015
7.72113
7.50882
7.26845
7.0178
6.73967
6.46002
6.14977
5.83687
5.50697
1
1
1
1
1
1
1
1
1
1
1
1
1
1
1
1
1
1
1
1
1
1
1
1
1
1
1
1
1
1
1
1
1
1
1
1
1
1
1
1
1
1
1
1
1
1
1
1
1
1
1
1
1
1
1
1.00448
3.63874
8.87904
9.39262
9.43583
9.47172
9.47831
9.46977
9.454
9.43726
9.4227
9.41082
9.39193
9.3672
9.33493
9.29563
9.25398
9.20779
9.16153
9.1095
9.04969
8.98065
8.90402
8.81997
8.72982
8.62976
8.51816
8.39469
8.25961
8.11397
7.95421
7.78501
7.59432
7.39571
7.17733
6.94822
6.69699
6.4469
6.16709
5.89236
5.59439
1
1
1
1
1
1
1
1
1
1
1
1
1
1
1
1
1
1
1
1
1
1
1
1
1
1
1
1
1
1
1
1
1
1
1
1
1
1
1
1
1
1
1
1
1
1
1
1
1
1
1
1
1
1
1
1
1.18711
5.96831
9.3236
9.40026
9.39503
9.3876
9.38183
9.36822
9.35017
9.33046
9.31204
9.29137
9.26429
9.22944
9.18896
9.14448
9.0934
9.04153
8.98455
8.92328
8.85399
8.77683
8.69158
8.59984
8.49795
8.38557
8.26352
8.12981
7.98893
7.83233
7.67029
7.48725
7.30054
7.1014
6.89069
6.66433
6.43861
6.18589
5.94117
5.67102
1
1
1
1
1
1
1
1
1
1
1
1
1
1
1
1
1
1
1
1
1
1
1
1
1
1
1
1
1
1
1
1
1
1
1
1
1
1
1
1
1
1
1
1
1
1
1
1
1
1
1
1
1
1
1
1
1.00108
1.96359
7.84253
9.33582
9.26919
9.27907
9.27796
9.27046
9.25501
9.23318
9.2083
9.18262
9.15384
9.11813
9.07767
9.03211
8.97943
8.92384
8.86312
8.80057
8.7309
8.65159
8.56632
8.47353
8.37269
8.26233
8.1433
8.0136
7.87881
7.72609
7.57125
7.40011
7.22228
7.0386
6.84257
6.63859
6.43048
6.20367
5.98046
5.73514
1
1
1
1
1
1
1
1
1
1
1
1
1
1
1
1
1
1
1
1
1
1
1
1
1
1
1
1
1
1
1
1
1
1
1
1
1
1
1
1
1
1
1
1
1
1
1
1
1
1
1
1
1
1
1
1
1
1.02674
3.94008
8.82861
9.1535
9.17203
9.18083
9.17613
9.1635
9.14105
9.1121
9.08128
9.04853
9.01183
8.97137
8.92658
8.875
8.81882
8.75685
8.6916
8.62074
8.54014
8.45329
8.36114
8.26107
8.15362
8.0377
7.91297
7.78188
7.63527
7.48768
7.32877
7.1589
6.98827
6.80531
6.62004
6.42267
6.21906
6.01099
5.79005
1
1
1
1
1
1
1
1
1
1
1
1
1
1
1
1
1
1
1
1
1
1
1
1
1
1
1
1
1
1
1
1
1
1
1
1
1
1
1
1
1
1
1
1
1
1
1
1
1
1
1
1
1
1
1
1
1
1.00004
1.22087
5.53078
8.99853
9.1485
9.12819
9.12399
9.1068
9.07647
9.04066
9.00167
8.96081
8.91835
8.87381
8.82719
8.77669
8.72154
8.6598
8.5912
8.51898
8.43675
8.34987
8.2573
8.1583
8.0534
7.94071
7.82112
7.69496
7.55765
7.41682
7.26766
7.10817
6.94845
6.77834
6.60565
6.41632
6.23163
6.03529
5.83756
1
1
1
1
1
1
1
1
1
1
1
1
1
1
1
1
1
1
1
1
1
1
1
1
1
1
1
1
1
1
1
1
1
1
1
1
1
1
1
1
1
1
1
1
1
1
1
1
1
1
1
1
1
1
1
1
1
1
1.00158
1.56189
7.01131
9.13234
9.08677
9.06855
9.02351
8.98492
8.94568
8.90611
8.86392
8.82011
8.77438
8.72668
8.67675
8.62333
8.56411
8.49609
8.42227
8.34189
8.25542
8.1645
8.0676
7.9649
7.85611
7.73967
7.61935
7.48999
7.35582
7.21444
7.06629
6.91471
6.75566
6.59178
6.41479
6.24409
6.05927
5.88122
1
1
1
1
1
1
1
1
1
1
1
1
1
1
1
1
1
1
1
1
1
1
1
1
1
1
1
1
1
1
1
1
1
1
1
1
1
1
1
1
1
1
1
1
1
1
1
1
1
1
1
1
1
1
1
1
1
1
1
1.00913
2.69626
8.13954
8.98384
8.91435
8.8847
8.85736
8.83219
8.80305
8.76879
8.72905
8.68458
8.63681
8.58604
8.53216
8.47462
8.40794
8.33508
8.25653
8.17198
8.08296
7.98827
7.88784
7.78218
7.67009
7.55375
7.43015
7.30227
7.1679
7.02981
6.88502
6.73557
6.5796
6.41633
6.25526
6.08346
5.91978
1
1
1
1
1
1
1
1
1
1
1
1
1
1
1
1
1
1
1
1
1
1
1
1
1
1
1
1
1
1
1
1
1
1
1
1
1
1
1
1
1
1
1
1
1
1
1
1
1
1
1
1
1
1
1
1
1
1
1
1.00001
1.07595
4.10668
8.56915
8.80812
8.76357
8.76035
8.74768
8.72703
8.69728
8.65975
8.61558
8.56573
8.51179
8.4542
8.39362
8.32785
8.25635
8.17931
8.09641
8.00953
7.91751
7.81992
7.71722
7.60964
7.49734
7.37934
7.25689
7.12868
6.99767
6.85906
6.71771
6.56899
6.41813
6.26545
6.10725
5.95434
1
1
1
1
1
1
1
1
1
1
1
1
1
1
1
1
1
1
1
1
1
1
1
1
1
1
1
1
1
1
1
1
1
1
1
1
1
1
1
1
1
1
1
1
1
1
1
1
1
1
1
1
1
1
1
1
1
1
1
1
1.00028
1.24756
4.98522
8.56879
8.69438
8.69242
8.68906
8.66798
8.63819
8.60019
8.55532
8.504
8.44735
8.38691
8.32306
8.25546
8.18411
8.1079
8.02708
7.94216
7.85282
7.75852
7.65913
7.55551
7.44696
7.33399
7.21637
7.09417
6.96848
6.83665
6.70209
6.5605
6.41913
6.27444
6.12785
5.98349
1
1
1
1
1
1
1
1
1
1
1
1
1
1
1
1
1
1
1
1
1
1
1
1
1
1
1
1
1
1
1
1
1
1
1
1
1
1
1
1
1
1
1
1
1
1
1
1
1
1
1
1
1
1
1
1
1
1
1
1
1
1.00208
1.43402
5.62381
8.54799
8.66695
8.64546
8.61616
8.5818
8.54219
8.49808
8.44772
8.39101
8.32961
8.26398
8.19481
8.12208
8.04559
7.96539
7.88149
7.794
7.70235
7.60632
7.50636
7.40184
7.29332
7.18
7.06287
6.94125
6.8154
6.68594
6.55168
6.41799
6.28181
6.14534
6.00881
1
1
1
1
1
1
1
1
1
1
1
1
1
1
1
1
1
1
1
1
1
1
1
1
1
1
1
1
1
1
1
1
1
1
1
1
1
1
1
1
1
1
1
1
1
1
1
1
1
1
1
1
1
1
1
1
1
1
1
1
1
1
1.00576
1.63228
6.18633
8.52279
8.59767
8.56269
8.52235
8.48145
8.43684
8.38702
8.33247
8.27354
8.20988
8.14108
8.06795
7.99116
7.91086
7.82733
7.74087
7.65098
7.55741
7.46015
7.35896
7.25375
7.14403
7.03091
6.91337
6.79302
6.66917
6.54294
6.4163
6.28798
6.15968
6.02991
1
1
1
1
1
1
1
1
1
1
1
1
1
1
1
1
1
1
1
1
1
1
1
1
1
1
1
1
1
1
1
1
1
1
1
1
1
1
1
1
1
1
1
1
1
1
1
1
1
1
1
1
1
1
1
1
1
1
1
1
1
1
1.00001
1.01152
1.86003
6.61894
8.48182
8.50862
8.47586
8.43374
8.38387
8.33166
8.27762
8.22057
8.15793
8.09013
8.01848
7.94343
7.86466
7.78212
7.69598
7.6065
7.51367
7.41773
7.31863
7.21579
7.10941
6.99998
6.88712
6.77288
6.65597
6.5369
6.41641
6.29441
6.1729
6.04912
1
1
1
1
1
1
1
1
1
1
1
1
1
1
1
1
1
1
1
1
1
1
1
1
1
1
1
1
1
1
1
1
1
1
1
1
1
1
1
1
1
1
1
1
1
1
1
1
1
1
1
1
1
1
1
1
1
1
1
1
1
1
1
1.00003
1.02047
2.0876
6.93108
8.42791
8.42711
8.39004
8.33913
8.2881
8.23398
8.17422
8.10882
8.04067
7.97037
7.89693
7.81942
7.73774
7.65234
7.56377
7.47191
7.37754
7.28099
7.18157
7.07927
6.97403
6.86606
6.75671
6.64555
6.53222
6.41756
6.30089
6.18488
6.06591
1
1
1
1
1
1
1
1
1
1
1
1
1
1
1
1
1
1
1
1
1
1
1
1
1
1
1
1
1
1
1
1
1
1
1
1
1
1
1
1
1
1
1
1
1
1
1
1
1
1
1
1
1
1
1
1
1
1
1
1
1
1
1
1
1.00006
1.0321
2.29169
7.14274
8.36486
8.34579
8.2963
8.24616
8.18805
8.12709
8.06299
7.99673
7.92725
7.85373
7.77575
7.69456
7.61081
7.52388
7.43383
7.34161
7.24751
7.151
7.05205
6.9509
6.84768
6.74285
6.6366
6.52836
6.4183
6.30552
6.19427
6.07922
1
1
1
1
1
1
1
1
1
1
1
1
1
1
1
1
1
1
1
1
1
1
1
1
1
1
1
1
1
1
1
1
1
1
1
1
1
1
1
1
1
1
1
1
1
1
1
1
1
1
1
1
1
1
1
1
1
1
1
1
1
1
1
1
1
1.00011
1.04489
2.46359
7.2563
8.28188
8.25746
8.20403
8.14715
8.08491
8.02035
7.95316
7.88379
7.81073
7.73443
7.65556
7.57375
7.48869
7.401
7.31102
7.21927
7.12566
7.02982
6.93212
6.83289
6.73152
6.62854
6.52465
6.41877
6.31058
6.20271
6.09232
1
1
1
1
1
1
1
1
1
1
1
1
1
1
1
1
1
1
1
1
1
1
1
1
1
1
1
1
1
1
1
1
1
1
1
1
1
1
1
1
1
1
1
1
1
1
1
1
1
1
1
1
1
1
1
1
1
1
1
1
1
1
1
1
1
1
1.00017
1.05755
2.58674
7.26879
8.19669
8.15959
8.10467
8.04586
7.98121
7.91487
7.844
7.76996
7.69462
7.61756
7.53759
7.45486
7.37013
7.28317
7.19413
7.10305
7.00977
6.91478
6.81867
6.72132
6.62188
6.52049
6.41906
6.3156
6.21
6.10537
1
1
1
1
1
1
1
1
1
1
1
1
1
1
1
1
1
1
1
1
1
1
1
1
1
1
1
1
1
1
1
1
1
1
1
1
1
1
1
1
1
1
1
1
1
1
1
1
1
1
1
1
1
1
1
1
1
1
1
1
1
1
1
1
1
1
1
1.00025
1.06783
2.64074
7.19058
8.09843
8.06211
7.99852
7.9379
7.87427
7.8056
7.73304
7.65918
7.5831
7.50526
7.42517
7.34303
7.25884
7.17208
7.08312
6.99326
6.90143
6.80745
6.71257
6.61557
6.51749
6.4185
6.31887
6.22024
6.11691
1
1
1
1
1
1
1
1
1
1
1
1
1
1
1
1
1
1
1
1
1
1
1
1
1
1
1
1
1
1
1
1
1
1
1
1
1
1
1
1
1
1
1
1
1
1
1
1
1
1
1
1
1
1
1
1
1
1
1
1
1
1
1
1
1
1
1
1
1.00033
1.07287
2.6223
7.02329
7.99053
7.95971
7.89389
7.82954
7.76148
7.69417
7.62481
7.55205
7.47667
7.39852
7.31856
7.23694
7.15299
7.06672
6.97829
6.88834
6.79742
6.7045
6.61133
6.51811
6.42108
6.32416
6.22685
6.12814
1
1
1
1
1
1
1
1
1
1
1
1
1
1
1
1
1
1
1
1
1
1
1
1
1
1
1
1
1
1
1
1
1
1
1
1
1
1
1
1
1
1
1
1
1
1
1
1
1
1
1
1
1
1
1
1
1
1
1
1
1
1
1
1
1
1
1
1
1
1.00037
1.07166
2.53298
6.75872
7.87346
7.85739
7.7891
7.7261
7.65919
7.59077
7.52104
7.44816
7.3734
7.29656
7.21575
7.13202
7.04661
6.95949
6.87283
6.78613
6.69853
6.60897
6.51681
6.42538
6.33091
6.23696
6.14667
1
1
1
1
1
1
1
1
1
1
1
1
1
1
1
1
1
1
1
1
1
1
1
1
1
1
1
1
1
1
1
1
1
1
1
1
1
1
1
1
1
1
1
1
1
1
1
1
1
1
1
1
1
1
1
1
1
1
1
1
1
1
1
1
1
1
1
1
1
1
1.00036
1.06451
2.37297
6.407
7.74653
7.75496
7.68576
7.62725
7.56059
7.4915
7.42083
7.34922
7.27469
7.19602
7.11414
7.03147
6.94767
6.86296
6.77807
6.69345
6.60805
6.52172
6.43529
6.34692
6.25666
6.16538
1
1
1
1
1
1
1
1
1
1
1
1
1
1
1
1
1
1
1
1
1
1
1
1
1
1
1
1
1
1
1
1
1
1
1
1
1
1
1
1
1
1
1
1
1
1
1
1
1
1
1
1
1
1
1
1
1
1
1
1
1
1
1
1
1
1
1
1
1
1
1
1.00032
1.05229
2.17184
5.91507
7.6201
7.66795
7.59804
7.531
7.4593
7.38816
7.31638
7.24462
7.17144
7.0948
7.01658
6.93671
6.85552
6.77397
6.69285
6.61342
6.53083
6.44672
6.36239
6.27299
6.18779
1
1
1
1
1
1
1
1
1
1
1
1
1
1
1
1
1
1
1
1
1
1
1
1
1
1
1
1
1
1
1
1
1
1
1
1
1
1
1
1
1
1
1
1
1
1
1
1
1
1
1
1
1
1
1
1
1
1
1
1
1
1
1
1
1
1
1
1
1
1
1
1
1.00024
1.03877
1.92529
5.29995
7.43631
7.59319
7.50134
7.43249
7.36147
7.29012
7.21904
7.14759
7.07655
7.00506
6.93249
6.85746
6.77996
6.70123
6.62197
6.54222
6.46063
6.37843
6.29488
6.208
1
1
1
1
1
1
1
1
1
1
1
1
1
1
1
1
1
1
1
1
1
1
1
1
1
1
1
1
1
1
1
1
1
1
1
1
1
1
1
1
1
1
1
1
1
1
1
1
1
1
1
1
1
1
1
1
1
1
1
1
1
1
1
1
1
1
1
1
1
1
1
1
1
1.00015
1.02514
1.67094
4.53486
7.22858
7.4887
7.41214
7.34844
7.28335
7.21669
7.14778
7.07842
7.00682
6.93496
6.8621
6.7877
6.7113
6.63374
6.5567
6.47571
6.39435
6.31181
6.22482
1
1
1
1
1
1
1
1
1
1
1
1
1
1
1
1
1
1
1
1
1
1
1
1
1
1
1
1
1
1
1
1
1
1
1
1
1
1
1
1
1
1
1
1
1
1
1
1
1
1
1
1
1
1
1
1
1
1
1
1
1
1
1
1
1
1
1
1
1
1
1
1
1
1
1.00008
1.01427
1.43171
3.78879
6.87487
7.39184
7.34434
7.28459
7.21544
7.14712
7.07742
7.00641
6.93499
6.86214
6.78895
6.71346
6.6359
6.55898
6.48102
6.40326
6.32549
6.24309
1
1
1
1
1
1
1
1
1
1
1
1
1
1
1
1
1
1
1
1
1
1
1
1
1
1
1
1
1
1
1
1
1
1
1
1
1
1
1
1
1
1
1
1
1
1
1
1
1
1
1
1
1
1
1
1
1
1
1
1
1
1
1
1
1
1
1
1
1
1
1
1
1
1
1
1.00004
1.00682
1.25382
3.07392
6.37693
7.26899
7.31072
7.20634
7.1424
7.07478
7.00466
6.93333
6.86209
6.79083
6.71685
6.64186
6.56601
6.4902
6.41331
6.33608
6.25779
1
1
1
1
1
1
1
1
1
1
1
1
1
1
1
1
1
1
1
1
1
1
1
1
1
1
1
1
1
1
1
1
1
1
1
1
1
1
1
1
1
1
1
1
1
1
1
1
1
1
1
1
1
1
1
1
1
1
1
1
1
1
1
1
1
1
1
1
1
1
1
1
1
1
1
1
1.00001
1.00287
1.13412
2.45666
5.6391
7.12064
7.24433
7.14324
7.07433
7.00765
6.93949
6.86709
6.79406
6.72194
6.64889
6.57454
6.50011
6.42299
6.35023
6.27457
1
1
1
1
1
1
1
1
1
1
1
1
1
1
1
1
1
1
1
1
1
1
1
1
1
1
1
1
1
1
1
1
1
1
1
1
1
1
1
1
1
1
1
1
1
1
1
1
1
1
1
1
1
1
1
1
1
1
1
1
1
1
1
1
1
1
1
1
1
1
1
1
1
1
1
1
1
1
1.00106
1.06427
1.93526
4.71642
6.89005
7.13935
7.07869
7.00684
6.93621
6.86809
6.7978
6.72621
6.65524
6.58293
6.50879
6.43753
6.36526
6.28945
1
1
1
1
1
1
1
1
1
1
1
1
1
1
1
1
1
1
1
1
1
1
1
1
1
1
1
1
1
1
1
1
1
1
1
1
1
1
1
1
1
1
1
1
1
1
1
1
1
1
1
1
1
1
1
1
1
1
1
1
1
1
1
1
1
1
1
1
1
1
1
1
1
1
1
1
1
1
1
1.00035
1.02743
1.53129
3.72153
6.47854
7.01849
7.04227
6.94391
6.87085
6.80424
6.73774
6.66851
6.59695
6.5279
6.45675
6.38157
6.31065
1
1
1
1
1
1
1
1
1
1
1
1
1
1
1
1
1
1
1
1
1
1
1
1
1
1
1
1
1
1
1
1
1
1
1
1
1
1
1
1
1
1
1
1
1
1
1
1
1
1
1
1
1
1
1
1
1
1
1
1
1
1
1
1
1
1
1
1
1
1
1
1
1
1
1
1
1
1
1
1
1.0001
1.01011
1.25881
2.84166
5.73965
6.88198
6.97085
6.89823
6.82491
6.75748
6.68821
6.61741
6.54567
6.47181
6.40317
6.33191
1
1
1
1
1
1
1
1
1
1
1
1
1
1
1
1
1
1
1
1
1
1
1
1
1
1
1
1
1
1
1
1
1
1
1
1
1
1
1
1
1
1
1
1
1
1
1
1
1
1
1
1
1
1
1
1
1
1
1
1
1
1
1
1
1
1
1
1
1
1
1
1
1
1
1
1
1
1
1
1
1
1.00002
1.00314
1.10958
2.12069
4.7359
6.68382
6.89779
6.8517
6.76264
6.68978
6.62498
6.55583
6.48997
6.42451
6.34796
1
1
1
1
1
1
1
1
1
1
1
1
1
1
1
1
1
1
1
1
1
1
1
1
1
1
1
1
1
1
1
1
1
1
1
1
1
1
1
1
1
1
1
1
1
1
1
1
1
1
1
1
1
1
1
1
1
1
1
1
1
1
1
1
1
1
1
1
1
1
1
1
1
1
1
1
1
1
1
1
1
1
1
1.0008
1.04051
1.58576
3.70646
6.15321
6.74607
6.79231
6.71757
6.65104
6.58632
6.51612
6.44494
6.38509
1
1
1
1
1
1
1
1
1
1
1
1
1
1
1
1
1
1
1
1
1
1
1
1
1
1
1
1
1
1
1
1
1
1
1
1
1
1
1
1
1
1
1
1
1
1
1
1
1
1
1
1
1
1
1
1
1
1
1
1
1
1
1
1
1
1
1
1
1
1
1
1
1
1
1
1
1
1
1
1
1
1
1
1
1.00018
1.01265
1.26841
2.67481
5.32274
6.64049
6.72161
6.66853
6.59108
6.50353
6.45184
6.41959
1
1
1
1
1
1
1
1
1
1
1
1
1
1
1
1
1
1
1
1
1
1
1
1
1
1
1
1
1
1
1
1
1
1
1
1
1
1
1
1
1
1
1
1
1
1
1
1
1
1
1
1
1
1
1
1
1
1
1
1
1
1
1
1
1
1
1
1
1
1
1
1
1
1
1
1
1
1
1
1
1
1
1
1
1
1.00003
1.0034
1.0948
1.94567
4.19776
6.22824
6.69249
6.67392
6.56614
6.44688
6.38802
1
1
1
1
1
1
1
1
1
1
1
1
1
1
1
1
1
1
1
1
1
1
1
1
1
1
1
1
1
1
1
1
1
1
1
1
1
1
1
1
1
1
1
1
1
1
1
1
1
1
1
1
1
1
1
1
1
1
1
1
1
1
1
1
1
1
1
1
1
1
1
1
1
1
1
1
1
1
1
1
1
1
1
1
1
1
1.00001
1.00065
1.03067
1.43203
3.0766
5.53886
6.55039
6.60628
6.45825
6.38656
1
1
1
1
1
1
1
1
1
1
1
1
1
1
1
1
1
1
1
1
1
1
1
1
1
1
1
1
1
1
1
1
1
1
1
1
1
1
1
1
1
1
1
1
1
1
1
1
1
1
1
1
1
1
1
1
1
1
1
1
1
1
1
1
1
1
1
1
1
1
1
1
1
1
1
1
1
1
1
1
1
1
1
1
1
1
1
1
1.00012
1.00774
1.15895
2.19439
4.44304
6.29987
6.54852
7.31888
1
1
1
1
1
1
1
1
1
1
1
1
1
1
1
1
1
1
1
1
1
1
1
1
1
1
1
1
1
1
1
1
1
1
1
1
1
1
1
1
1
1
1
1
1
1
1
1
1
1
1
1
1
1
1
1
1
1
1
1
1
1
1
1
1
1
1
1
1
1
1
1
1
1
1
1
1
1
1
1
1
1
1
1
1
1
1
1
1
1.00002
1.00148
1.05018
1.55944
3.25309
7.84627
10.5088
1
1
1
1
1
1
1
1
1
1
1
1
1
1
1
1
1
1
1
1
1
1
1
1
1
1
1
1
1
1
1
1
1
1
1
1
1
1
1
1
1
1
1
1
1
1
1
1
1
1
1
1
1
1
1
1
1
1
1
1
1
1
1
1
1
1
1
1
1
1
1
1
1
1
1
1
1
1
1
1
1
1
1
1
1
1
1
1
1
1
1
1.00023
1.01391
2.061
9.71236
11.7838
1
1
1
1
1
1
1
1
1
1
1
1
1
1
1
1
1
1
1
1
1
1
1
1
1
1
1
1
1
1
1
1
1
1
1
1
1
1
1
1
1
1
1
1
1
1
1
1
1
1
1
1
1
1
1
1
1
1
1
1
1
1
1
1
1
1
1
1
1
1
1
1
1
1
1
1
1
1
1
1
1
1
1
1
1
1
1
1
1
1
1
1
1.00007
2.78613
9.82138
11.0263
1
1
1
1
1
1
1
1
1
1
1
1
1
1
1
1
1
1
1
1
1
1
1
1
1
1
1
1
1
1
1
1
1
1
1
1
1
1
1
1
1
1
1
1
1
1
1
1
1
1
1
1
1
1
1
1
1
1
1
1
1
1
1
1
1
1
1
1
1
1
1
1
1
1
1
1
1
1
1
1
1
1
1
1
1
1
1
1
1
1
1
1
1
2.44597
9.31894
10.6803
1
1
1
1
1
1
1
1
1
1
1
1
1
1
1
1
1
1
1
1
1
1
1
1
1
1
1
1
1
1
1
1
1
1
1
1
1
1
1
1
1
1
1
1
1
1
1
1
1
1
1
1
1
1
1
1
1
1
1
1
1
1
1
1
1
1
1
1
1
1
1
1
1
1
1
1
1
1
1
1
1
1
1
1
1
1
1
1
1
1
1
1
1
1.944
8.6585
10.5267
1
1
1
1
1
1
1
1
1
1
1
1
1
1
1
1
1
1
1
1
1
1
1
1
1
1
1
1
1
1
1
1
1
1
1
1
1
1
1
1
1
1
1
1
1
1
1
1
1
1
1
1
1
1
1
1
1
1
1
1
1
1
1
1
1
1
1
1
1
1
1
1
1
1
1
1
1
1
1
1
1
1
1
1
1
1
1
1
1
1
1
1
1
1.41132
7.73831
10.5449
1
1
1
1
1
1
1
1
1
1
1
1
1
1
1
1
1
1
1
1
1
1
1
1
1
1
1
1
1
1
1
1
1
1
1
1
1
1
1
1
1
1
1
1
1
1
1
1
1
1
1
1
1
1
1
1
1
1
1
1
1
1
1
1
1
1
1
1
1
1
1
1
1
1
1
1
1
1
1
1
1
1
1
1
1
1
1
1
1
1
1
1
1
1.01282
6.64775
10.5413
1
1
1
1
1
1
1
1
1
1
1
1
1
1
1
1
1
1
1
1
1
1
1
1
1
1
1
1
1
1
1
1
1
1
1
1
1
1
1
1
1
1
1
1
1
1
1
1
1
1
1
1
1
1
1
1
1
1
1
1
1
1
1
1
1
1
1
1
1
1
1
1
1
1
1
1
1
1
1
1
1
1
1
1
1
1
1
1
1
1
1
1
1
1.00002
5.55023
10.41
1
1
1
1
1
1
1
1
1
1
1
1
1
1
1
1
1
1
1
1
1
1
1
1
1
1
1
1
1
1
1
1
1
1
1
1
1
1
1
1
1
1
1
1
1
1
1
1
1
1
1
1
1
1
1
1
1
1
1
1
1
1
1
1
1
1
1
1
1
1
1
1
1
1
1
1
1
1
1
1
1
1
1
1
1
1
1
1
1
1
1
1
1
1
4.58712
10.2283
1
1
1
1
1
1
1
1
1
1
1
1
1
1
1
1
1
1
1
1
1
1
1
1
1
1
1
1
1
1
1
1
1
1
1
1
1
1
1
1
1
1
1
1
1
1
1
1
1
1
1
1
1
1
1
1
1
1
1
1
1
1
1
1
1
1
1
1
1
1
1
1
1
1
1
1
1
1
1
1
1
1
1
1
1
1
1
1
1
1
1
1
1
1
3.80392
9.97823
1
1
1
1
1
1
1
1
1
1
1
1
1
1
1
1
1
1
1
1
1
1
1
1
1
1
1
1
1
1
1
1
1
1
1
1
1
1
1
1
1
1
1
1
1
1
1
1
1
1
1
1
1
1
1
1
1
1
1
1
1
1
1
1
1
1
1
1
1
1
1
1
1
1
1
1
1
1
1
1
1
1
1
1
1
1
1
1
1
1
1
1
1
1
3.1877
9.67876
1
1
1
1
1
1
1
1
1
1
1
1
1
1
1
1
1
1
1
1
1
1
1
1
1
1
1
1
1
1
1
1
1
1
1
1
1
1
1
1
1
1
1
1
1
1
1
1
1
1
1
1
1
1
1
1
1
1
1
1
1
1
1
1
1
1
1
1
1
1
1
1
1
1
1
1
1
1
1
1
1
1
1
1
1
1
1
1
1
1
1
1
1
1
2.70624
9.35677
1
1
1
1
1
1
1
1
1
1
1
1
1
1
1
1
1
1
1
1
1
1
1
1
1
1
1
1
1
1
1
1
1
1
1
1
1
1
1
1
1
1
1
1
1
1
1
1
1
1
1
1
1
1
1
1
1
1
1
1
1
1
1
1
1
1
1
1
1
1
1
1
1
1
1
1
1
1
1
1
1
1
1
1
1
1
1
1
1
1
1
1
1
1
2.33119
9.02421
1
1
1
1
1
1
1
1
1
1
1
1
1
1
1
1
1
1
1
1
1
1
1
1
1
1
1
1
1
1
1
1
1
1
1
1
1
1
1
1
1
1
1
1
1
1
1
1
1
1
1
1
1
1
1
1
1
1
1
1
1
1
1
1
1
1
1
1
1
1
1
1
1
1
1
1
1
1
1
1
1
1
1
1
1
1
1
1
1
1
1
1
1
1
2.0371
8.68502
1
1
1
1
1
1
1
1
1
1
1
1
1
1
1
1
1
1
1
1
1
1
1
1
1
1
1
1
1
1
1
1
1
1
1
1
1
1
1
1
1
1
1
1
1
1
1
1
1
1
1
1
1
1
1
1
1
1
1
1
1
1
1
1
1
1
1
1
1
1
1
1
1
1
1
1
1
1
1
1
1
1
1
1
1
1
1
1
1
1
1
1
1
1
1.79956
8.34153
1
1
1
1
1
1
1
1
1
1
1
1
1
1
1
1
1
1
1
1
1
1
1
1
1
1
1
1
1
1
1
1
1
1
1
1
1
1
1
1
1
1
1
1
1
1
1
1
1
1
1
1
1
1
1
1
1
1
1
1
1
1
1
1
1
1
1
1
1
1
1
1
1
1
1
1
1
1
1
1
1
1
1
1
1
1
1
1
1
1
1
1
1
1
1.59295
7.95814
1
1
1
1
1
1
1
1
1
1
1
1
1
1
1
1
1
1
1
1
1
1
1
1
1
1
1
1
1
1
1
1
1
1
1
1
1
1
1
1
1
1
1
1
1
1
1
1
1
1
1
1
1
1
1
1
1
1
1
1
1
1
1
1
1
1
1
1
1
1
1
1
1
1
1
1
1
1
1
1
1
1
1
1
1
1
1
1
1
1
1
1
1
1
1.41183
7.53339
1
1
1
1
1
1
1
1
1
1
1
1
1
1
1
1
1
1
1
1
1
1
1
1
1
1
1
1
1
1
1
1
1
1
1
1
1
1
1
1
1
1
1
1
1
1
1
1
1
1
1
1
1
1
1
1
1
1
1
1
1
1
1
1
1
1
1
1
1
1
1
1
1
1
1
1
1
1
1
1
1
1
1
1
1
1
1
1
1
1
1
1
1
1
1.2296
7.14685
1
1
1
1
1
1
1
1
1
1
1
1
1
1
1
1
1
1
1
1
1
1
1
1
1
1
1
1
1
1
1
1
1
1
1
1
1
1
1
1
1
1
1
1
1
1
1
1
1
1
1
1
1
1
1
1
1
1
1
1
1
1
1
1
1
1
1
1
1
1
1
1
1
1
1
1
1
1
1
1
1
1
1
1
1
1
1
1
1
1
1
1
1
1
1.10619
6.91285
1
1
1
1
1
1
1
1
1
1
1
1
1
1
1
1
1
1
1
1
1
1
1
1
1
1
1
1
1
1
1
1
1
1
1
1
1
1
1
1
1
1
1
1
1
1
1
1
1
1
1
1
1
1
1
1
1
1
1
1
1
1
1
1
1
1
1
1
1
1
1
1
1
1
1
1
1
1
1
1
1
1
1
1
1
1
1
1
1
1
1
1
1
1
1.06158
6.78874
1.09849
0.126854
0.0553655
0.0714381
0.0692737
0.0644184
0.0758712
0.114926
0.160013
0.209201
0.27652
0.359723
0.450601
0.561893
0.657081
0.742635
0.801768
0.865574
0.893634
0.91083
0.94679
0.985631
1.00488
1.00638
1.02516
1.04327
1.0605
1.08261
1.10097
1.12063
1.14367
1.16969
1.19001
1.20699
1.22508
1.23555
1.24417
1.25742
1.27228
1.27763
1.28009
1.28145
1.28222
1.28422
1.2936
1.31187
1.32413
1.32834
1.3313
1.33287
1.33398
1.33374
1.33339
1.32544
1.39745
4.25419
6.02341
6.16562
6.23543
6.26652
6.28555
6.29998
6.31564
6.32706
6.32168
6.2931
6.24591
6.19589
6.1549
6.12727
6.10976
6.09331
6.06758
6.02599
5.97514
5.92772
5.88775
5.85864
5.84173
5.83275
5.81859
5.7836
5.72206
5.64529
5.56972
5.50634
5.46072
5.43463
5.41927
5.39339
5.34374
5.28316
5.22231
5.16821
5.12564
5.10049
5.08943
5.07207
5.03302
4.98327
4.93049
4.8764
4.8286
4.78663
4.75406
4.72729
4.69207
4.65149
4.60842
4.56373
4.52259
4.48534
4.45396
4.43067
4.40988
4.38408
4.35167
4.31571
4.27691
4.2362
4.19765
4.16122
4.1258
4.09246
4.06156
4.03254
4.0047
3.97748
3.95063
3.92316
3.89425
3.86441
3.83281
3.79969
3.76632
3.73335
3.70121
3.67087
3.6429
3.61633
3.58985
3.56236
3.53286
3.50083
3.46651
3.43058
3.39409
3.35875
3.32637
3.29784
3.27246
3.24891
3.22604
3.20328
3.18024
3.15629
3.13097
3.10344
3.07249
3.03962
3.01257
2.99167
2.97225