/*--------------------------------*- C++ -*----------------------------------*\
  =========                 |
  \\      /  F ield         | OpenFOAM: The Open Source CFD Toolbox
   \\    /   O peration     | Website:  https://openfoam.org
    \\  /    A nd           | Version:  7
     \\/     M anipulation  |
\*---------------------------------------------------------------------------*/
FoamFile
{
    version     2.0;
    format      ascii;
    class       volScalarField;
    location    "4.2";
    object      rho;
}
// * * * * * * * * * * * * * * * * * * * * * * * * * * * * * * * * * * * * * //

dimensions      [1 -3 0 0 0 0 0];

internalField   nonuniform List<scalar> 
19968
(
1.40001
1.40001
1.40001
1.40001
1.40001
1.40001
1.40001
1.40001
1.40001
1.40001
1.40001
1.40001
1.40001
1.40001
1.40001
1.40001
1.40001
1.40001
1.40001
1.40001
1.40001
1.40001
1.40001
1.40001
1.40001
1.40001
1.40001
1.40001
1.40001
1.40001
1.40001
1.40001
1.40001
1.40001
1.40001
1.40001
1.40001
1.40001
1.40001
1.40001
1.40001
1.40001
1.40001
1.40001
1.40001
1.40001
1.40001
1.40001
1.65165
4.50643
5.41758
5.43008
5.45547
5.48091
5.5049
5.52603
5.54501
5.56361
5.58338
5.6044
5.62554
5.64541
5.66325
5.67937
5.69485
5.71051
5.72669
5.74306
5.75915
5.77502
5.79089
5.8066
5.82188
5.83693
5.85201
5.86718
5.88215
5.89599
5.90745
5.91586
5.92171
5.9265
5.93231
5.94073
5.95176
5.96385
5.97514
5.98465
5.99228
5.99824
6.00263
6.0055
6.0069
6.00711
6.00725
6.00728
1.40001
1.40001
1.40001
1.40001
1.40001
1.40001
1.40001
1.40001
1.40001
1.40001
1.40001
1.40001
1.40001
1.40001
1.40001
1.40001
1.40001
1.40001
1.40001
1.40001
1.40001
1.40001
1.40001
1.40001
1.40001
1.40001
1.40001
1.40001
1.40001
1.40001
1.40001
1.40001
1.40001
1.40001
1.40001
1.40001
1.40001
1.40001
1.40001
1.40001
1.40001
1.40001
1.40001
1.40001
1.40001
1.40001
1.40001
1.40001
1.63563
4.47641
5.41062
5.42964
5.45565
5.48122
5.50479
5.52534
5.54399
5.56254
5.58237
5.60345
5.62459
5.64445
5.66226
5.67836
5.69381
5.70944
5.7256
5.74195
5.75803
5.77383
5.78961
5.80525
5.8205
5.83551
5.85049
5.86548
5.88019
5.89377
5.90512
5.91367
5.91984
5.92503
5.9311
5.93952
5.95031
5.96206
5.9731
5.98251
5.99016
5.99619
6.00066
6.00359
6.00497
6.00508
6.00511
6.00507
1.40001
1.40001
1.40001
1.40001
1.40001
1.40001
1.40001
1.40001
1.40001
1.40001
1.40001
1.40001
1.40001
1.40001
1.40001
1.40001
1.40001
1.40001
1.40001
1.40001
1.40001
1.40001
1.40001
1.40001
1.40001
1.40001
1.40001
1.40001
1.40001
1.40001
1.40001
1.40001
1.40001
1.40001
1.40001
1.40001
1.40001
1.40001
1.40001
1.40001
1.40001
1.40001
1.40001
1.40001
1.40001
1.40001
1.40001
1.40001
1.60285
4.41832
5.40553
5.42802
5.45496
5.48003
5.50277
5.5225
5.54081
5.55955
5.57984
5.60138
5.62279
5.64269
5.66042
5.67637
5.6916
5.70708
5.72325
5.73975
5.756
5.77186
5.78751
5.80298
5.81811
5.833
5.84786
5.86264
5.87703
5.89032
5.9016
5.91041
5.9171
5.92281
5.92917
5.93744
5.94773
5.95891
5.96952
5.97868
5.98619
5.99213
5.99657
5.99949
6.00085
6.00085
6.00074
6.00059
1.40001
1.40001
1.40001
1.40001
1.40001
1.40001
1.40001
1.40001
1.40001
1.40001
1.40001
1.40001
1.40001
1.40001
1.40001
1.40001
1.40001
1.40001
1.40001
1.40001
1.40001
1.40001
1.40001
1.40001
1.40001
1.40001
1.40001
1.40001
1.40001
1.40001
1.40001
1.40001
1.40001
1.40001
1.40001
1.40001
1.40001
1.40001
1.40001
1.40001
1.40001
1.40001
1.40001
1.40001
1.40001
1.40001
1.40001
1.40001
1.55556
4.32859
5.40247
5.42837
5.45504
5.47847
5.49965
5.51842
5.5366
5.55582
5.5768
5.59899
5.6207
5.64046
5.65781
5.67329
5.68805
5.70322
5.71939
5.73616
5.75271
5.76871
5.78425
5.7995
5.8144
5.82908
5.84371
5.8582
5.87223
5.88523
5.8965
5.90568
5.91304
5.91945
5.92618
5.93432
5.94409
5.95469
5.96491
5.97388
5.98125
5.987
5.99113
5.99367
5.99458
5.99405
5.99349
5.99298
1.40001
1.40001
1.40001
1.40001
1.40001
1.40001
1.40001
1.40001
1.40001
1.40001
1.40001
1.40001
1.40001
1.40001
1.40001
1.40001
1.40001
1.40001
1.40001
1.40001
1.40001
1.40001
1.40001
1.40001
1.40001
1.40001
1.40001
1.40001
1.40001
1.40001
1.40001
1.40001
1.40001
1.40001
1.40001
1.40001
1.40001
1.40001
1.40001
1.40001
1.40001
1.40001
1.40001
1.40001
1.40001
1.40001
1.40001
1.40001
1.48295
4.20253
5.40255
5.42792
5.45268
5.47514
5.49534
5.51345
5.53132
5.55074
5.57227
5.59509
5.61713
5.63664
5.65331
5.66793
5.68185
5.69637
5.71236
5.72937
5.74628
5.76259
5.77809
5.79314
5.80768
5.82199
5.83626
5.85039
5.86404
5.87674
5.88797
5.89749
5.90547
5.91253
5.91959
5.92754
5.93669
5.94664
5.95655
5.96561
5.97331
5.97939
5.9837
5.98623
5.98696
5.98619
5.98531
5.98455
1.40001
1.40001
1.40001
1.40001
1.40001
1.40001
1.40001
1.40001
1.40001
1.40001
1.40001
1.40001
1.40001
1.40001
1.40001
1.40001
1.40001
1.40001
1.40001
1.40001
1.40001
1.40001
1.40001
1.40001
1.40001
1.40001
1.40001
1.40001
1.40001
1.40001
1.40001
1.40001
1.40001
1.40001
1.40001
1.40001
1.40001
1.40001
1.40001
1.40001
1.40001
1.40001
1.40001
1.40001
1.40001
1.40001
1.40001
1.40001
1.40321
3.9916
5.39604
5.42262
5.44261
5.46424
5.48381
5.50189
5.51999
5.54004
5.56262
5.58672
5.60996
5.63011
5.64678
5.66093
5.67414
5.68798
5.7036
5.72067
5.73779
5.75434
5.76975
5.78444
5.79836
5.81203
5.82577
5.83954
5.85298
5.86561
5.877
5.88695
5.89558
5.90327
5.91065
5.91838
5.92685
5.93604
5.9455
5.95455
5.96251
5.96884
5.97318
5.97548
5.97586
5.97482
5.97363
5.97269
1.40001
1.40001
1.40001
1.40001
1.40001
1.40001
1.40001
1.40001
1.40001
1.40001
1.40001
1.40001
1.40001
1.40001
1.40001
1.40001
1.40001
1.40001
1.40001
1.40001
1.40001
1.40001
1.40001
1.40001
1.40001
1.40001
1.40001
1.40001
1.40001
1.40001
1.40001
1.40001
1.40001
1.40001
1.40001
1.40001
1.40001
1.40001
1.40001
1.40001
1.40001
1.40001
1.40001
1.40001
1.40001
1.40001
1.40001
1.40001
1.40002
3.68339
5.3653
5.40978
5.4292
5.45167
5.47201
5.49114
5.51043
5.53153
5.55483
5.57936
5.60286
5.62282
5.63865
5.65158
5.66348
5.67612
5.69097
5.70804
5.72562
5.74294
5.7589
5.77371
5.7873
5.80045
5.81367
5.82709
5.84033
5.85284
5.86423
5.87433
5.88323
5.89117
5.89857
5.9059
5.91359
5.9219
5.93078
5.93975
5.94803
5.95474
5.95932
5.9617
5.96201
5.96096
5.95973
5.95885
1.40001
1.40001
1.40001
1.40001
1.40001
1.40001
1.40001
1.40001
1.40001
1.40001
1.40001
1.40001
1.40001
1.40001
1.40001
1.40001
1.40001
1.40001
1.40001
1.40001
1.40001
1.40001
1.40001
1.40001
1.40001
1.40001
1.40001
1.40001
1.40001
1.40001
1.40001
1.40001
1.40001
1.40001
1.40001
1.40001
1.40001
1.40001
1.40001
1.40001
1.40001
1.40001
1.40001
1.40001
1.40001
1.40001
1.40001
1.40001
1.40001
3.28632
5.31467
5.39909
5.41795
5.44122
5.46201
5.48181
5.50168
5.52316
5.54648
5.57087
5.59437
5.61445
5.62996
5.64203
5.65278
5.66415
5.67777
5.69437
5.712
5.72974
5.74607
5.76075
5.77371
5.78594
5.79828
5.81111
5.82406
5.8365
5.84792
5.85815
5.86725
5.87542
5.88291
5.89004
5.89716
5.90468
5.91281
5.92134
5.92952
5.9363
5.94091
5.9432
5.94342
5.94245
5.94121
5.94043
1.40001
1.40001
1.40001
1.40001
1.40001
1.40001
1.40001
1.40001
1.40001
1.40001
1.40001
1.40001
1.40001
1.40001
1.40001
1.40001
1.40001
1.40001
1.40001
1.40001
1.40001
1.40001
1.40001
1.40001
1.40001
1.40001
1.40001
1.40001
1.40001
1.40001
1.40001
1.40001
1.40001
1.40001
1.40001
1.40001
1.40001
1.40001
1.40001
1.40001
1.40001
1.40001
1.40001
1.40001
1.40001
1.40001
1.40001
1.40001
1.40001
2.81454
5.21686
5.39783
5.41535
5.43899
5.45935
5.47868
5.49762
5.51784
5.53986
5.56308
5.58581
5.60584
5.62141
5.63294
5.64257
5.6524
5.66412
5.6793
5.6961
5.71344
5.72971
5.74405
5.75635
5.7675
5.77872
5.79068
5.80309
5.81524
5.82646
5.83648
5.84537
5.85336
5.8607
5.86764
5.87441
5.88138
5.88888
5.89686
5.90479
5.91161
5.91651
5.91918
5.91989
5.9195
5.91859
5.91822
1.40001
1.40001
1.40001
1.40001
1.40001
1.40001
1.40001
1.40001
1.40001
1.40001
1.40001
1.40001
1.40001
1.40001
1.40001
1.40001
1.40001
1.40001
1.40001
1.40001
1.40001
1.40001
1.40001
1.40001
1.40001
1.40001
1.40001
1.40001
1.40001
1.40001
1.40001
1.40001
1.40001
1.40001
1.40001
1.40001
1.40001
1.40001
1.40001
1.40001
1.40001
1.40001
1.40001
1.40001
1.40001
1.40001
1.40001
1.40001
1.40001
2.28568
5.0106
5.40726
5.4217
5.44476
5.46327
5.48092
5.4978
5.51536
5.5347
5.55557
5.5766
5.59602
5.61183
5.62348
5.63266
5.64137
5.6513
5.66466
5.68039
5.69698
5.71299
5.7269
5.73859
5.74845
5.75807
5.76839
5.77946
5.7906
5.80104
5.8104
5.81871
5.82625
5.83338
5.84025
5.84693
5.8535
5.8602
5.86707
5.87385
5.87979
5.88423
5.8868
5.88774
5.88769
5.887
5.88699
1.40001
1.40001
1.40001
1.40001
1.40001
1.40001
1.40001
1.40001
1.40001
1.40001
1.40001
1.40001
1.40001
1.40001
1.40001
1.40001
1.40001
1.40001
1.40001
1.40001
1.40001
1.40001
1.40001
1.40001
1.40001
1.40001
1.40001
1.40001
1.40001
1.40001
1.40001
1.40001
1.40001
1.40001
1.40001
1.40001
1.40001
1.40001
1.40001
1.40001
1.40001
1.40001
1.40001
1.40001
1.40001
1.40001
1.40001
1.40001
1.40001
1.77967
4.64997
5.42575
5.41723
5.44086
5.45716
5.47446
5.49047
5.50634
5.5238
5.54311
5.56309
5.58216
5.59859
5.6111
5.62066
5.62915
5.63797
5.64918
5.6633
5.67862
5.69413
5.70756
5.71873
5.72753
5.73554
5.74391
5.75314
5.76271
5.77181
5.77986
5.78684
5.79305
5.79896
5.80486
5.81072
5.8164
5.82194
5.82745
5.83293
5.83807
5.84237
5.84536
5.8471
5.84779
5.84763
5.84811
1.40001
1.40001
1.40001
1.40001
1.40001
1.40001
1.40001
1.40001
1.40001
1.40001
1.40001
1.40001
1.40001
1.40001
1.40001
1.40001
1.40001
1.40001
1.40001
1.40001
1.40001
1.40001
1.40001
1.40001
1.40001
1.40001
1.40001
1.40001
1.40001
1.40001
1.40001
1.40001
1.40001
1.40001
1.40001
1.40001
1.40001
1.40001
1.40001
1.40001
1.40001
1.40001
1.40001
1.40001
1.40001
1.40001
1.40001
1.40001
1.40001
1.41628
3.96582
5.38153
5.3972
5.41896
5.43948
5.45897
5.47596
5.49172
5.50822
5.52619
5.545
5.56338
5.57994
5.59315
5.60301
5.61136
5.61944
5.62855
5.6407
5.65411
5.66831
5.68109
5.69168
5.69979
5.70647
5.713
5.72027
5.72811
5.73579
5.74262
5.74844
5.7535
5.75836
5.76348
5.76881
5.77385
5.7783
5.78209
5.78535
5.78802
5.78996
5.79087
5.79094
5.7904
5.78946
5.78961
1.40001
1.40001
1.40001
1.40001
1.40001
1.40001
1.40001
1.40001
1.40001
1.40001
1.40001
1.40001
1.40001
1.40001
1.40001
1.40001
1.40001
1.40001
1.40001
1.40001
1.40001
1.40001
1.40001
1.40001
1.40001
1.40001
1.40001
1.40001
1.40001
1.40001
1.40001
1.40001
1.40001
1.40001
1.40001
1.40001
1.40001
1.40001
1.40001
1.40001
1.40001
1.40001
1.40001
1.40001
1.40001
1.40001
1.40001
1.40001
1.40001
1.40003
3.07078
5.21776
5.36485
5.38954
5.41267
5.43235
5.4495
5.46484
5.47999
5.49611
5.51323
5.53033
5.5463
5.5599
5.57059
5.57952
5.58806
5.59659
5.60705
5.61878
5.63132
5.64349
5.65369
5.66163
5.6676
5.67287
5.67836
5.68433
5.69024
5.69538
5.69941
5.70255
5.70523
5.70808
5.71102
5.71345
5.71489
5.71536
5.71533
5.71525
5.71545
5.71594
5.71611
5.71612
5.71558
5.71597
1.40001
1.40001
1.40001
1.40001
1.40001
1.40001
1.40001
1.40001
1.40001
1.40001
1.40001
1.40001
1.40001
1.40001
1.40001
1.40001
1.40001
1.40001
1.40001
1.40001
1.40001
1.40001
1.40001
1.40001
1.40001
1.40001
1.40001
1.40001
1.40001
1.40001
1.40001
1.40001
1.40001
1.40001
1.40001
1.40001
1.40001
1.40001
1.40001
1.40001
1.40001
1.40001
1.40001
1.40001
1.40001
1.40001
1.40001
1.40001
1.40001
1.4
2.06735
4.84074
5.37791
5.3777
5.40062
5.41909
5.43617
5.45107
5.46491
5.47902
5.49398
5.50909
5.52338
5.53598
5.54629
5.55481
5.5629
5.57066
5.57877
5.58781
5.59722
5.60701
5.61565
5.62239
5.627
5.63036
5.63336
5.63644
5.63943
5.64171
5.64289
5.64312
5.64274
5.64257
5.64248
5.64233
5.64157
5.63978
5.63701
5.63363
5.6293
5.62412
5.6167
5.60801
5.59907
5.59154
1.40001
1.40001
1.40001
1.40001
1.40001
1.40001
1.40001
1.40001
1.40001
1.40001
1.40001
1.40001
1.40001
1.40001
1.40001
1.40001
1.40001
1.40001
1.40001
1.40001
1.40001
1.40001
1.40001
1.40001
1.40001
1.40001
1.40001
1.40001
1.40001
1.40001
1.40001
1.40001
1.40001
1.40001
1.40001
1.40001
1.40001
1.40001
1.40001
1.40001
1.40001
1.40001
1.40001
1.40001
1.40001
1.40001
1.40001
1.40001
1.40001
1.40001
1.43249
3.82015
5.36333
5.39215
5.40415
5.41596
5.42682
5.43728
5.44724
5.45754
5.46878
5.48062
5.49222
5.50287
5.51198
5.51945
5.52637
5.53324
5.53963
5.54628
5.55264
5.55897
5.56505
5.56979
5.57274
5.57405
5.57461
5.57472
5.57465
5.57364
5.57117
5.56757
5.56308
5.55799
5.55222
5.5455
5.53711
5.52632
5.5126
5.4961
5.47752
5.45807
5.44105
5.42632
5.41917
5.41521
1.40001
1.40001
1.40001
1.40001
1.40001
1.40001
1.40001
1.40001
1.40001
1.40001
1.40001
1.40001
1.40001
1.40001
1.40001
1.40001
1.40001
1.40001
1.40001
1.40001
1.40001
1.40001
1.40001
1.40001
1.40001
1.40001
1.40001
1.40001
1.40001
1.40001
1.40001
1.40001
1.40001
1.40001
1.40001
1.40001
1.40001
1.40001
1.40001
1.40001
1.40001
1.40001
1.40001
1.40001
1.40001
1.40001
1.40001
1.40001
1.40001
1.40001
1.40004
2.4731
5.02149
5.34292
5.3619
5.3799
5.39521
5.40749
5.41745
5.4266
5.43615
5.44638
5.45665
5.46613
5.4742
5.48077
5.48655
5.49221
5.49729
5.50162
5.50508
5.5078
5.51022
5.51187
5.51207
5.51059
5.50808
5.50467
5.50068
5.49504
5.48745
5.47837
5.46765
5.45527
5.44118
5.42527
5.40713
5.38634
5.36258
5.33635
5.30825
5.2791
5.24236
5.2004
5.14393
5.16264
1.40001
1.40001
1.40001
1.40001
1.40001
1.40001
1.40001
1.40001
1.40001
1.40001
1.40001
1.40001
1.40001
1.40001
1.40001
1.40001
1.40001
1.40001
1.40001
1.40001
1.40001
1.40001
1.40001
1.40001
1.40001
1.40001
1.40001
1.40001
1.40001
1.40001
1.40001
1.40001
1.40001
1.40001
1.40001
1.40001
1.40001
1.40001
1.40001
1.40001
1.40001
1.40001
1.40001
1.40001
1.40001
1.40001
1.40001
1.40001
1.40001
1.40001
1.40001
1.4819
4.24938
5.35859
5.3503
5.35824
5.37225
5.38386
5.39342
5.40135
5.40889
5.4168
5.42503
5.43287
5.43956
5.44476
5.44874
5.45225
5.45543
5.45776
5.45906
5.45909
5.45778
5.45577
5.45271
5.44829
5.4424
5.43554
5.42759
5.41721
5.40467
5.38994
5.37263
5.35241
5.32901
5.30215
5.271
5.23442
5.18955
5.13421
5.06067
4.9624
4.81354
4.5852
4.17977
3.28387
1.40001
1.40001
1.40001
1.40001
1.40001
1.40001
1.40001
1.40001
1.40001
1.40001
1.40001
1.40001
1.40001
1.40001
1.40001
1.40001
1.40001
1.40001
1.40001
1.40001
1.40001
1.40001
1.40001
1.40001
1.40001
1.40001
1.40001
1.40001
1.40001
1.40001
1.40001
1.40001
1.40001
1.40001
1.40001
1.40001
1.40001
1.40001
1.40001
1.40001
1.40001
1.40001
1.40001
1.40001
1.40001
1.40001
1.40001
1.40001
1.40001
1.40001
1.40001
1.4002
3.06673
5.12671
5.30448
5.32465
5.34481
5.35844
5.36811
5.37442
5.38008
5.38657
5.39394
5.40126
5.4074
5.41183
5.4147
5.41674
5.41843
5.41933
5.41906
5.41692
5.41271
5.40747
5.40129
5.39391
5.38502
5.37483
5.36306
5.34885
5.33184
5.31174
5.28799
5.26017
5.22761
5.19012
5.14564
5.09337
5.02747
4.94618
4.83602
4.69324
4.48519
4.21793
3.6745
2.91143
1.40001
1.40001
1.40001
1.40001
1.40001
1.40001
1.40001
1.40001
1.40001
1.40001
1.40001
1.40001
1.40001
1.40001
1.40001
1.40001
1.40001
1.40001
1.40001
1.40001
1.40001
1.40001
1.40001
1.40001
1.40001
1.40001
1.40001
1.40001
1.40001
1.40001
1.40001
1.40001
1.40001
1.40001
1.40001
1.40001
1.40001
1.40001
1.40001
1.40001
1.40001
1.40001
1.40001
1.40001
1.40001
1.40001
1.40001
1.40001
1.40001
1.40001
1.40001
1.4
1.83324
4.64762
5.33454
5.32521
5.33719
5.34739
5.35329
5.35569
5.35829
5.36218
5.36732
5.37295
5.37779
5.38089
5.382
5.38152
5.38056
5.37931
5.37722
5.37331
5.36701
5.35859
5.34856
5.33757
5.32533
5.31152
5.29579
5.27764
5.25613
5.23077
5.20045
5.16514
5.12348
5.07593
5.01922
4.95291
4.87032
4.76855
4.63773
4.46806
4.25023
3.92732
3.48641
2.96515
1.40001
1.40001
1.40001
1.40001
1.40001
1.40001
1.40001
1.40001
1.40001
1.40001
1.40001
1.40001
1.40001
1.40001
1.40001
1.40001
1.40001
1.40001
1.40001
1.40001
1.40001
1.40001
1.40001
1.40001
1.40001
1.40001
1.40001
1.40001
1.40001
1.40001
1.40001
1.40001
1.40001
1.40001
1.40001
1.40001
1.40001
1.40001
1.40001
1.40001
1.40001
1.40001
1.40001
1.40001
1.40001
1.40001
1.40001
1.40001
1.40001
1.40001
1.40001
1.4
1.41348
3.42522
5.2217
5.31078
5.32564
5.33383
5.33639
5.33572
5.33604
5.33822
5.34174
5.34582
5.34921
5.35055
5.34906
5.34552
5.34144
5.33775
5.33388
5.32835
5.32023
5.30911
5.29579
5.28112
5.26502
5.24714
5.22728
5.2053
5.17968
5.14979
5.11364
5.07153
5.02164
4.9649
4.89847
4.82116
4.72804
4.61431
4.47473
4.29786
4.07853
3.79348
3.44975
3.07982
1.40001
1.40001
1.40001
1.40001
1.40001
1.40001
1.40001
1.40001
1.40001
1.40001
1.40001
1.40001
1.40001
1.40001
1.40001
1.40001
1.40001
1.40001
1.40001
1.40001
1.40001
1.40001
1.40001
1.40001
1.40001
1.40001
1.40001
1.40001
1.40001
1.40001
1.40001
1.40001
1.40001
1.40001
1.40001
1.40001
1.40001
1.40001
1.40001
1.40001
1.40001
1.40001
1.40001
1.40001
1.40001
1.40001
1.40001
1.40001
1.40001
1.40001
1.40001
1.40001
1.39999
1.97549
4.7577
5.32758
5.31458
5.32211
5.32381
5.32222
5.32077
5.32095
5.322
5.32372
5.32493
5.32392
5.31963
5.31253
5.30447
5.29737
5.29065
5.28299
5.27339
5.26072
5.24494
5.22672
5.20628
5.18407
5.15995
5.13411
5.10474
5.07098
5.03048
4.9831
4.92717
4.86323
4.78988
4.70557
4.60704
4.48916
4.3513
4.1771
3.97868
3.7383
3.46882
3.18417
1.40001
1.40001
1.40001
1.40001
1.40001
1.40001
1.40001
1.40001
1.40001
1.40001
1.40001
1.40001
1.40001
1.40001
1.40001
1.40001
1.40001
1.40001
1.40001
1.40001
1.40001
1.40001
1.40001
1.40001
1.40001
1.40001
1.40001
1.40001
1.40001
1.40001
1.40001
1.40001
1.40001
1.40001
1.40001
1.40001
1.40001
1.40001
1.40001
1.40001
1.40001
1.40001
1.40001
1.40001
1.40001
1.40001
1.40001
1.40001
1.40001
1.40001
1.40001
1.40001
1.4
1.42237
3.45405
5.22293
5.28578
5.29629
5.30077
5.30119
5.30079
5.30078
5.30095
5.30126
5.30094
5.29831
5.29182
5.28148
5.26964
5.25876
5.24816
5.23771
5.22618
5.21211
5.19452
5.17344
5.14896
5.12243
5.09396
5.06405
5.03103
4.99379
4.95019
4.89943
4.84006
4.77193
4.69459
4.60691
4.50708
4.39044
4.25777
4.09714
3.923
3.72353
3.501
3.2709
1.40001
1.40001
1.40001
1.40001
1.40001
1.40001
1.40001
1.40001
1.40001
1.40001
1.40001
1.40001
1.40001
1.40001
1.40001
1.40001
1.40001
1.40001
1.40001
1.40001
1.40001
1.40001
1.40001
1.40001
1.40001
1.40001
1.40001
1.40001
1.40001
1.40001
1.40001
1.40001
1.40001
1.40001
1.40001
1.40001
1.40001
1.40001
1.40001
1.40001
1.40001
1.40001
1.40001
1.40001
1.40001
1.40001
1.40001
1.40001
1.40001
1.40001
1.40001
1.40001
1.4
1.40001
1.90075
4.69078
5.29928
5.28683
5.28694
5.28329
5.28003
5.27806
5.27703
5.2763
5.27483
5.27159
5.26462
5.25262
5.23823
5.22388
5.20906
5.19495
5.18083
5.16536
5.14638
5.12296
5.09512
5.06476
5.03262
4.99929
4.96312
4.92284
4.87672
4.82382
4.7629
4.69329
4.61483
4.52661
4.42857
4.31466
4.19037
4.04572
3.89254
3.72273
3.53446
3.34152
1.40001
1.40001
1.40001
1.40001
1.40001
1.40001
1.40001
1.40001
1.40001
1.40001
1.40001
1.40001
1.40001
1.40001
1.40001
1.40001
1.40001
1.40001
1.40001
1.40001
1.40001
1.40001
1.40001
1.40001
1.40001
1.40001
1.40001
1.40001
1.40001
1.40001
1.40001
1.40001
1.40001
1.40001
1.40001
1.40001
1.40001
1.40001
1.40001
1.40001
1.40001
1.40001
1.40001
1.40001
1.40001
1.40001
1.40001
1.40001
1.40001
1.40001
1.40001
1.40001
1.40001
1.40001
1.41543
3.2313
5.09945
5.24589
5.24472
5.24643
5.24888
5.25044
5.25023
5.24863
5.24607
5.24257
5.2359
5.22318
5.20732
5.19049
5.17238
5.15515
5.13825
5.1209
5.10003
5.07421
5.04357
5.01019
4.97503
4.93871
4.89952
4.85626
4.80764
4.75324
4.69202
4.623
4.54622
4.46017
4.36636
4.25779
4.14274
4.01193
3.87677
3.72635
3.56678
3.39922
1.40001
1.40001
1.40001
1.40001
1.40001
1.40001
1.40001
1.40001
1.40001
1.40001
1.40001
1.40001
1.40001
1.40001
1.40001
1.40001
1.40001
1.40001
1.40001
1.40001
1.40001
1.40001
1.40001
1.40001
1.40001
1.40001
1.40001
1.40001
1.40001
1.40001
1.40001
1.40001
1.40001
1.40001
1.40001
1.40001
1.40001
1.40001
1.40001
1.40001
1.40001
1.40001
1.40001
1.40001
1.40001
1.40001
1.40001
1.40001
1.40001
1.40001
1.40001
1.40001
1.40001
1.40001
1.40001
1.65066
4.4467
5.28254
5.24958
5.24158
5.23266
5.22761
5.22413
5.21948
5.21471
5.20965
5.20305
5.19094
5.17511
5.15729
5.13743
5.11819
5.09875
5.07934
5.05685
5.02969
4.99772
4.96248
4.92494
4.88593
4.84396
4.79817
4.7475
4.69194
4.63073
4.56276
4.48859
4.40543
4.31643
4.21537
4.1093
3.99071
3.87018
3.73489
3.5967
3.44881
1.40001
1.40001
1.40001
1.40001
1.40001
1.40001
1.40001
1.40001
1.40001
1.40001
1.40001
1.40001
1.40001
1.40001
1.40001
1.40001
1.40001
1.40001
1.40001
1.40001
1.40001
1.40001
1.40001
1.40001
1.40001
1.40001
1.40001
1.40001
1.40001
1.40001
1.40001
1.40001
1.40001
1.40001
1.40001
1.40001
1.40001
1.40001
1.40001
1.40001
1.40001
1.40001
1.40001
1.40001
1.40001
1.40001
1.40001
1.40001
1.40001
1.40001
1.40001
1.40001
1.40001
1.40001
1.40001
1.40333
2.82285
4.99833
5.18236
5.18888
5.19661
5.19455
5.18986
5.18258
5.17544
5.16877
5.16202
5.15132
5.13711
5.11972
5.0997
5.07958
5.0584
5.03742
5.01368
4.98588
4.95345
4.91744
4.87848
4.83765
4.79375
4.74616
4.69442
4.63815
4.57737
4.51043
4.43915
4.35869
4.27459
4.18196
4.08436
3.97674
3.86867
3.74651
3.62509
3.4917
1.40001
1.40001
1.40001
1.40001
1.40001
1.40001
1.40001
1.40001
1.40001
1.40001
1.40001
1.40001
1.40001
1.40001
1.40001
1.40001
1.40001
1.40001
1.40001
1.40001
1.40001
1.40001
1.40001
1.40001
1.40001
1.40001
1.40001
1.40001
1.40001
1.40001
1.40001
1.40001
1.40001
1.40001
1.40001
1.40001
1.40001
1.40001
1.40001
1.40001
1.40001
1.40001
1.40001
1.40001
1.40001
1.40001
1.40001
1.40001
1.40001
1.40001
1.40001
1.40001
1.40001
1.40001
1.40001
1.4
1.53162
3.85539
5.16353
5.18068
5.177
5.1713
5.1663
5.15902
5.14998
5.14028
5.13057
5.11928
5.10483
5.08708
5.06727
5.0464
5.02352
5.00065
4.97543
4.94757
4.91545
4.8793
4.83953
4.79731
4.75162
4.70254
4.65024
4.59358
4.53396
4.46761
4.39858
4.32051
4.24058
4.15522
4.06471
3.96713
3.86921
3.75876
3.65062
3.52992
1.40001
1.40001
1.40001
1.40001
1.40001
1.40001
1.40001
1.40001
1.40001
1.40001
1.40001
1.40001
1.40001
1.40001
1.40001
1.40001
1.40001
1.40001
1.40001
1.40001
1.40001
1.40001
1.40001
1.40001
1.40001
1.40001
1.40001
1.40001
1.40001
1.40001
1.40001
1.40001
1.40001
1.40001
1.40001
1.40001
1.40001
1.40001
1.40001
1.40001
1.40001
1.40001
1.40001
1.40001
1.40001
1.40001
1.40001
1.40001
1.40001
1.40001
1.40001
1.40001
1.40001
1.40001
1.40001
1.4
1.40083
1.98996
4.69032
5.19001
5.15447
5.15276
5.14586
5.13711
5.12602
5.11299
5.09923
5.08505
5.06958
5.05147
5.03185
5.01068
4.98718
4.96293
4.93656
4.90883
4.87733
4.84101
4.80161
4.75894
4.71322
4.66415
4.6121
4.55606
4.49799
4.43236
4.36547
4.29149
4.21443
4.13473
4.04964
3.96092
3.87013
3.77071
3.67202
3.56253
1.40001
1.40001
1.40001
1.40001
1.40001
1.40001
1.40001
1.40001
1.40001
1.40001
1.40001
1.40001
1.40001
1.40001
1.40001
1.40001
1.40001
1.40001
1.40001
1.40001
1.40001
1.40001
1.40001
1.40001
1.40001
1.40001
1.40001
1.40001
1.40001
1.40001
1.40001
1.40001
1.40001
1.40001
1.40001
1.40001
1.40001
1.40001
1.40001
1.40001
1.40001
1.40001
1.40001
1.40001
1.40001
1.40001
1.40001
1.40001
1.40001
1.40001
1.40001
1.40001
1.40001
1.40001
1.40001
1.40001
1.40001
1.42021
2.98519
5.0257
5.13183
5.12974
5.12657
5.11834
5.10675
5.09141
5.07399
5.05654
5.03856
5.01931
4.99911
4.97775
4.95418
4.92923
4.90217
4.8736
4.84224
4.80623
4.76701
4.72521
4.68006
4.63204
4.5808
4.52612
4.46879
4.40485
4.34014
4.2704
4.19579
4.12071
4.04029
3.95884
3.87201
3.78217
3.68993
3.59113
1.40001
1.40001
1.40001
1.40001
1.40001
1.40001
1.40001
1.40001
1.40001
1.40001
1.40001
1.40001
1.40001
1.40001
1.40001
1.40001
1.40001
1.40001
1.40001
1.40001
1.40001
1.40001
1.40001
1.40001
1.40001
1.40001
1.40001
1.40001
1.40001
1.40001
1.40001
1.40001
1.40001
1.40001
1.40001
1.40001
1.40001
1.40001
1.40001
1.40001
1.40001
1.40001
1.40001
1.40001
1.40001
1.40001
1.40001
1.40001
1.40001
1.40001
1.40001
1.40001
1.40001
1.40001
1.40001
1.40001
1.40001
1.40004
1.55324
3.69866
5.08876
5.13061
5.12018
5.11418
5.10159
5.08297
5.06182
5.04004
5.01769
4.99511
4.97222
4.94904
4.92485
4.89931
4.87149
4.84109
4.80915
4.77286
4.73427
4.69303
4.64895
4.60237
4.55258
4.49987
4.44424
4.38368
4.32122
4.25488
4.1839
4.11262
4.03684
3.96001
3.87588
3.79357
3.70593
3.61712
1.40001
1.40001
1.40001
1.40001
1.40001
1.40001
1.40001
1.40001
1.40001
1.40001
1.40001
1.40001
1.40001
1.40001
1.40001
1.40001
1.40001
1.40001
1.40001
1.40001
1.40001
1.40001
1.40001
1.40001
1.40001
1.40001
1.40001
1.40001
1.40001
1.40001
1.40001
1.40001
1.40001
1.40001
1.40001
1.40001
1.40001
1.40001
1.40001
1.40001
1.40001
1.40001
1.40001
1.40001
1.40001
1.40001
1.40001
1.40001
1.40001
1.40001
1.40001
1.40001
1.40001
1.40001
1.40001
1.40001
1.40001
1.40001
1.40124
1.76117
4.37337
5.15925
5.13136
5.11502
5.08976
5.06679
5.04331
5.01996
4.99623
4.97206
4.94753
4.92267
4.8974
4.87121
4.84311
4.8118
4.77841
4.74246
4.70404
4.66375
4.62098
4.57577
4.52796
4.47681
4.42372
4.36644
4.30663
4.24329
4.17669
4.10833
4.0367
3.96289
3.88336
3.80645
3.7232
3.64267
1.40001
1.40001
1.40001
1.40001
1.40001
1.40001
1.40001
1.40001
1.40001
1.40001
1.40001
1.40001
1.40001
1.40001
1.40001
1.40001
1.40001
1.40001
1.40001
1.40001
1.40001
1.40001
1.40001
1.40001
1.40001
1.40001
1.40001
1.40001
1.40001
1.40001
1.40001
1.40001
1.40001
1.40001
1.40001
1.40001
1.40001
1.40001
1.40001
1.40001
1.40001
1.40001
1.40001
1.40001
1.40001
1.40001
1.40001
1.40001
1.40001
1.40001
1.40001
1.40001
1.40001
1.40001
1.40001
1.40001
1.40001
1.40001
1.40001
1.40702
2.39704
4.84834
5.11828
5.08299
5.06142
5.04072
5.02141
5.00097
4.97908
4.95554
4.93059
4.9045
4.8775
4.84959
4.8206
4.78826
4.75384
4.71746
4.67898
4.63898
4.59691
4.55266
4.5063
4.45718
4.406
4.35135
4.29436
4.23408
4.17174
4.10617
4.03836
3.96759
3.89352
3.8203
3.74217
3.66752
1.40001
1.40001
1.40001
1.40001
1.40001
1.40001
1.40001
1.40001
1.40001
1.40001
1.40001
1.40001
1.40001
1.40001
1.40001
1.40001
1.40001
1.40001
1.40001
1.40001
1.40001
1.40001
1.40001
1.40001
1.40001
1.40001
1.40001
1.40001
1.40001
1.40001
1.40001
1.40001
1.40001
1.40001
1.40001
1.40001
1.40001
1.40001
1.40001
1.40001
1.40001
1.40001
1.40001
1.40001
1.40001
1.40001
1.40001
1.40001
1.40001
1.40001
1.40001
1.40001
1.40001
1.40001
1.40001
1.40001
1.40001
1.40001
1.40001
1.40002
1.45682
3.08742
4.97945
5.0478
5.02645
5.02019
5.00844
4.99268
4.97299
4.95015
4.92508
4.89746
4.86815
4.83742
4.80567
4.77207
4.7365
4.69911
4.6598
4.61941
4.57744
4.53366
4.48809
4.44062
4.39108
4.33887
4.28436
4.22691
4.16779
4.10503
4.04078
3.97312
3.90434
3.83459
3.76222
3.69183
1.40001
1.40001
1.40001
1.40001
1.40001
1.40001
1.40001
1.40001
1.40001
1.40001
1.40001
1.40001
1.40001
1.40001
1.40001
1.40001
1.40001
1.40001
1.40001
1.40001
1.40001
1.40001
1.40001
1.40001
1.40001
1.40001
1.40001
1.40001
1.40001
1.40001
1.40001
1.40001
1.40001
1.40001
1.40001
1.40001
1.40001
1.40001
1.40001
1.40001
1.40001
1.40001
1.40001
1.40001
1.40001
1.40001
1.40001
1.40001
1.40001
1.40001
1.40001
1.40001
1.40001
1.40001
1.40001
1.40001
1.40001
1.40001
1.40001
1.40001
1.40025
1.57132
3.49765
4.97834
5.00578
5.00088
4.99526
4.98304
4.96608
4.94502
4.92076
4.89341
4.86336
4.83134
4.79763
4.76229
4.72551
4.687
4.64698
4.60581
4.56342
4.51962
4.47427
4.42757
4.379
4.32854
4.2759
4.22098
4.1642
4.10448
4.04332
3.97891
3.91443
3.84831
3.78112
3.71452
1.40001
1.40001
1.40001
1.40001
1.40001
1.40001
1.40001
1.40001
1.40001
1.40001
1.40001
1.40001
1.40001
1.40001
1.40001
1.40001
1.40001
1.40001
1.40001
1.40001
1.40001
1.40001
1.40001
1.40001
1.40001
1.40001
1.40001
1.40001
1.40001
1.40001
1.40001
1.40001
1.40001
1.40001
1.40001
1.40001
1.40001
1.40001
1.40001
1.40001
1.40001
1.40001
1.40001
1.40001
1.40001
1.40001
1.40001
1.40001
1.40001
1.40001
1.40001
1.40001
1.40001
1.40001
1.40001
1.40001
1.40001
1.40001
1.40001
1.40001
1.40001
1.40167
1.6884
3.79953
4.99558
5.00122
4.98915
4.97313
4.95506
4.9348
4.91248
4.88716
4.85854
4.82721
4.79345
4.7577
4.72019
4.68104
4.64042
4.5985
4.55547
4.51123
4.46578
4.41924
4.3712
4.32169
4.27016
4.2169
4.16153
4.10419
4.04515
3.98393
3.92289
3.86067
3.79815
3.73529
1.40001
1.40001
1.40001
1.40001
1.40001
1.40001
1.40001
1.40001
1.40001
1.40001
1.40001
1.40001
1.40001
1.40001
1.40001
1.40001
1.40001
1.40001
1.40001
1.40001
1.40001
1.40001
1.40001
1.40001
1.40001
1.40001
1.40001
1.40001
1.40001
1.40001
1.40001
1.40001
1.40001
1.40001
1.40001
1.40001
1.40001
1.40001
1.40001
1.40001
1.40001
1.40001
1.40001
1.40001
1.40001
1.40001
1.40001
1.40001
1.40001
1.40001
1.40001
1.40001
1.40001
1.40001
1.40001
1.40001
1.40001
1.40001
1.40001
1.40001
1.40001
1.40001
1.40455
1.80887
4.07207
5.00349
4.99158
4.96938
4.9463
4.92388
4.90076
4.87592
4.84901
4.81978
4.78794
4.75333
4.71643
4.67764
4.63714
4.59517
4.55201
4.50764
4.46211
4.41547
4.36759
4.31828
4.2672
4.2147
4.16028
4.10463
4.04745
3.98929
3.93106
3.87218
3.81328
3.7536
1.40001
1.40001
1.40001
1.40001
1.40001
1.40001
1.40001
1.40001
1.40001
1.40001
1.40001
1.40001
1.40001
1.40001
1.40001
1.40001
1.40001
1.40001
1.40001
1.40001
1.40001
1.40001
1.40001
1.40001
1.40001
1.40001
1.40001
1.40001
1.40001
1.40001
1.40001
1.40001
1.40001
1.40001
1.40001
1.40001
1.40001
1.40001
1.40001
1.40001
1.40001
1.40001
1.40001
1.40001
1.40001
1.40001
1.40001
1.40001
1.40001
1.40001
1.40001
1.40001
1.40001
1.40001
1.40001
1.40001
1.40001
1.40001
1.40001
1.40001
1.40001
1.40001
1.40001
1.40905
1.94398
4.28
5.00508
4.98237
4.95456
4.92718
4.89891
4.87049
4.8421
4.81288
4.78144
4.74771
4.71207
4.67466
4.63538
4.59429
4.55157
4.50745
4.46205
4.4155
4.36782
4.31866
4.26802
4.21601
4.16246
4.10831
4.05314
3.99727
3.94105
3.88442
3.82819
3.771
1.40001
1.40001
1.40001
1.40001
1.40001
1.40001
1.40001
1.40001
1.40001
1.40001
1.40001
1.40001
1.40001
1.40001
1.40001
1.40001
1.40001
1.40001
1.40001
1.40001
1.40001
1.40001
1.40001
1.40001
1.40001
1.40001
1.40001
1.40001
1.40001
1.40001
1.40001
1.40001
1.40001
1.40001
1.40001
1.40001
1.40001
1.40001
1.40001
1.40001
1.40001
1.40001
1.40001
1.40001
1.40001
1.40001
1.40001
1.40001
1.40001
1.40001
1.40001
1.40001
1.40001
1.40001
1.40001
1.40001
1.40001
1.40001
1.40001
1.40001
1.40001
1.40001
1.40001
1.40003
1.41594
2.07641
4.42575
5.00253
4.97563
4.94412
4.91032
4.87828
4.84691
4.81403
4.77953
4.74436
4.70855
4.67148
4.63269
4.59214
4.55002
4.50662
4.46189
4.41612
4.36941
4.32141
4.27205
4.22125
4.16908
4.1162
4.06257
4.0082
3.95356
3.89839
3.84388
3.78826
1.40001
1.40001
1.40001
1.40001
1.40001
1.40001
1.40001
1.40001
1.40001
1.40001
1.40001
1.40001
1.40001
1.40001
1.40001
1.40001
1.40001
1.40001
1.40001
1.40001
1.40001
1.40001
1.40001
1.40001
1.40001
1.40001
1.40001
1.40001
1.40001
1.40001
1.40001
1.40001
1.40001
1.40001
1.40001
1.40001
1.40001
1.40001
1.40001
1.40001
1.40001
1.40001
1.40001