/*--------------------------------*- C++ -*----------------------------------*\
  =========                 |
  \\      /  F ield         | OpenFOAM: The Open Source CFD Toolbox
   \\    /   O peration     | Website:  https://openfoam.org
    \\  /    A nd           | Version:  7
     \\/     M anipulation  |
\*---------------------------------------------------------------------------*/
FoamFile
{
    version     2.0;
    format      ascii;
    class       volScalarField;
    location    "4.2";
    object      T;
}
// * * * * * * * * * * * * * * * * * * * * * * * * * * * * * * * * * * * * * //

dimensions      [0 0 0 1 0 0 0];

internalField   nonuniform List<scalar> 
19968
(
1
1
1
1
1
1
1
1
1
1
1
1
1
1
1
1
1
1
1
1
1
1
1
1
1
1
1
1
1
1
1
1
1
1
1
1
1
1
1
1
1
1
1
1
1
1
1
1
1.22542
2.43193
2.69394
2.69467
2.69755
2.7002
2.70301
2.7066
2.71151
2.71766
2.72422
2.73
2.73412
2.73647
2.73776
2.739
2.74099
2.74427
2.74876
2.75372
2.75813
2.76139
2.76364
2.76543
2.76735
2.76988
2.77314
2.77683
2.78034
2.78312
2.78495
2.78603
2.78678
2.78759
2.78878
2.79054
2.79273
2.79501
2.79707
2.79878
2.80013
2.80125
2.80228
2.80331
2.80433
2.80516
2.80575
2.80596
1
1
1
1
1
1
1
1
1
1
1
1
1
1
1
1
1
1
1
1
1
1
1
1
1
1
1
1
1
1
1
1
1
1
1
1
1
1
1
1
1
1
1
1
1
1
1
1
1.21288
2.42501
2.6936
2.69447
2.69703
2.69969
2.70268
2.70653
2.71156
2.71767
2.7241
2.72975
2.73378
2.73613
2.73747
2.73876
2.74081
2.74412
2.74861
2.75353
2.7579
2.76114
2.76337
2.76516
2.7671
2.76963
2.77289
2.77653
2.77998
2.7827
2.78451
2.78562
2.78643
2.78732
2.78857
2.79032
2.79246
2.79468
2.79669
2.79838
2.79973
2.80086
2.80191
2.80296
2.80397
2.80478
2.80535
2.80555
1
1
1
1
1
1
1
1
1
1
1
1
1
1
1
1
1
1
1
1
1
1
1
1
1
1
1
1
1
1
1
1
1
1
1
1
1
1
1
1
1
1
1
1
1
1
1
1
1.18561
2.40901
2.69316
2.69325
2.69547
2.69844
2.70211
2.70649
2.71171
2.71765
2.72373
2.72907
2.73297
2.73536
2.73685
2.73831
2.7405
2.74386
2.74832
2.75318
2.75748
2.76068
2.76292
2.76474
2.76671
2.76925
2.77248
2.77606
2.77942
2.78207
2.78386
2.78503
2.78595
2.78695
2.78825
2.78997
2.79201
2.79411
2.79604
2.79767
2.79899
2.8001
2.80114
2.80221
2.80321
2.80398
2.80452
2.8047
1
1
1
1
1
1
1
1
1
1
1
1
1
1
1
1
1
1
1
1
1
1
1
1
1
1
1
1
1
1
1
1
1
1
1
1
1
1
1
1
1
1
1
1
1
1
1
1
1.14472
2.38214
2.69102
2.69125
2.69387
2.6976
2.70212
2.70698
2.71222
2.71774
2.72324
2.72811
2.73179
2.73425
2.73599
2.73772
2.74011
2.74352
2.7479
2.7526
2.75678
2.75996
2.76224
2.76412
2.76614
2.76869
2.77187
2.77534
2.77858
2.78115
2.78295
2.78421
2.78527
2.7864
2.78777
2.78945
2.79138
2.79336
2.79522
2.7968
2.79809
2.79915
2.80014
2.80116
2.80207
2.8027
2.80315
2.80326
1
1
1
1
1
1
1
1
1
1
1
1
1
1
1
1
1
1
1
1
1
1
1
1
1
1
1
1
1
1
1
1
1
1
1
1
1
1
1
1
1
1
1
1
1
1
1
1
1.07886
2.33958
2.68744
2.68916
2.69282
2.69745
2.70252
2.70766
2.71274
2.71772
2.72248
2.72674
2.73018
2.73273
2.73477
2.73684
2.73943
2.74284
2.74703
2.75147
2.75546
2.75862
2.76098
2.76298
2.76506
2.7676
2.77068
2.77401
2.77711
2.77961
2.78142
2.78276
2.78395
2.7852
2.78662
2.78825
2.79005
2.79191
2.7937
2.79529
2.79663
2.79774
2.79876
2.79981
2.80067
2.80123
2.80162
2.80168
1
1
1
1
1
1
1
1
1
1
1
1
1
1
1
1
1
1
1
1
1
1
1
1
1
1
1
1
1
1
1
1
1
1
1
1
1
1
1
1
1
1
1
1
1
1
1
1
1.00234
2.272
2.68452
2.68782
2.69163
2.69674
2.70199
2.70709
2.7119
2.71641
2.72056
2.7244
2.7278
2.73065
2.73318
2.73572
2.73861
2.74203
2.74597
2.75007
2.75377
2.75683
2.75922
2.76132
2.76346
2.76597
2.76894
2.77213
2.77512
2.77757
2.77942
2.78087
2.7822
2.78357
2.78504
2.78662
2.78827
2.78998
2.79168
2.79327
2.79464
2.79578
2.79679
2.79782
2.79862
2.7991
2.79943
2.79946
1
1
1
1
1
1
1
1
1
1
1
1
1
1
1
1
1
1
1
1
1
1
1
1
1
1
1
1
1
1
1
1
1
1
1
1
1
1
1
1
1
1
1
1
1
1
1
1
1.00001
2.17785
2.67858
2.68626
2.69069
2.69627
2.70164
2.70656
2.71094
2.71488
2.71852
2.72199
2.72525
2.72821
2.73101
2.73388
2.73698
2.74039
2.74409
2.74789
2.75135
2.75436
2.75685
2.75911
2.76137
2.76393
2.76686
2.76995
2.77285
2.77523
2.77708
2.77858
2.77998
2.78141
2.78289
2.78437
2.78586
2.78739
2.78897
2.79054
2.79197
2.79316
2.7942
2.79523
2.79603
2.79651
2.79683
2.79687
1
1
1
1
1
1
1
1
1
1
1
1
1
1
1
1
1
1
1
1
1
1
1
1
1
1
1
1
1
1
1
1
1
1
1
1
1
1
1
1
1
1
1
1
1
1
1
1
1
2.04403
2.66525
2.68208
2.68745
2.69372
2.69935
2.70428
2.70844
2.71204
2.71535
2.7186
2.72183
2.72495
2.728
2.73115
2.73451
2.73801
2.74162
2.74525
2.74852
2.75141
2.75389
2.75619
2.75851
2.7611
2.764
2.76703
2.76985
2.77218
2.77402
2.77556
2.77702
2.77853
2.78005
2.78151
2.78288
2.78423
2.78566
2.78714
2.78854
2.78974
2.79075
2.79173
2.79251
2.79302
2.79335
2.79342
1
1
1
1
1
1
1
1
1
1
1
1
1
1
1
1
1
1
1
1
1
1
1
1
1
1
1
1
1
1
1
1
1
1
1
1
1
1
1
1
1
1
1
1
1
1
1
1
1
1.86281
2.63366
2.6742
2.68122
2.68845
2.69446
2.69962
2.7039
2.70753
2.71089
2.71419
2.71749
2.72076
2.724
2.72735
2.73091
2.73459
2.73822
2.74178
2.74488
2.74756
2.74991
2.75214
2.75447
2.75707
2.75999
2.76302
2.7658
2.76807
2.76986
2.77137
2.77284
2.77437
2.77592
2.77737
2.77868
2.77992
2.78121
2.78258
2.78395
2.78515
2.78618
2.78715
2.78804
2.78871
2.78909
2.78925
1
1
1
1
1
1
1
1
1
1
1
1
1
1
1
1
1
1
1
1
1
1
1
1
1
1
1
1
1
1
1
1
1
1
1
1
1
1
1
1
1
1
1
1
1
1
1
1
1
1.62128
2.56948
2.66813
2.67557
2.68296
2.68877
2.69387
2.69816
2.70196
2.70555
2.70903
2.71243
2.71578
2.7191
2.72252
2.72621
2.7301
2.73391
2.73758
2.74071
2.74327
2.74548
2.74754
2.74979
2.75235
2.75526
2.75825
2.76095
2.76311
2.76476
2.76616
2.76757
2.76909
2.77069
2.7722
2.77353
2.7747
2.77584
2.777
2.77816
2.77919
2.7801
2.78098
2.78191
2.78269
2.78313
2.78338
1
1
1
1
1
1
1
1
1
1
1
1
1
1
1
1
1
1
1
1
1
1
1
1
1
1
1
1
1
1
1
1
1
1
1
1
1
1
1
1
1
1
1
1
1
1
1
1
1
1.30653
2.45454
2.67114
2.67144
2.67769
2.68284
2.68783
2.69209
2.69593
2.69968
2.70338
2.70695
2.71034
2.71364
2.71695
2.72054
2.7245
2.72851
2.73231
2.73561
2.73816
2.74028
2.74215
2.74423
2.74668
2.74954
2.75252
2.75519
2.75724
2.75871
2.75989
2.76108
2.76244
2.76393
2.76537
2.76662
2.76766
2.76859
2.76951
2.77044
2.77133
2.7722
2.77311
2.77412
2.77509
2.77573
2.7761
1
1
1
1
1
1
1
1
1
1
1
1
1
1
1
1
1
1
1
1
1
1
1
1
1
1
1
1
1
1
1
1
1
1
1
1
1
1
1
1
1
1
1
1
1
1
1
1
1
1.01019
2.26368
2.67571
2.67459
2.67648
2.67967
2.68365
2.68752
2.6911
2.6946
2.69813
2.70159
2.70483
2.70787
2.71079
2.71387
2.71744
2.72135
2.72517
2.72867
2.7313
2.73336
2.73505
2.73687
2.73913
2.74189
2.74488
2.7476
2.74966
2.75105
2.75207
2.75308
2.75431
2.75574
2.7572
2.75848
2.75949
2.76026
2.76088
2.76139
2.76183
2.76226
2.76276
2.76339
2.76408
2.7646
2.76491
1
1
1
1
1
1
1
1
1
1
1
1
1
1
1
1
1
1
1
1
1
1
1
1
1
1
1
1
1
1
1
1
1
1
1
1
1
1
1
1
1
1
1
1
1
1
1
1
1
1.00002
1.96692
2.64098
2.66312
2.66729
2.67258
2.67731
2.68112
2.68424
2.6872
2.69031
2.69355
2.69668
2.69955
2.70221
2.70488
2.70796
2.71158
2.71531
2.71885
2.72165
2.72375
2.72545
2.72711
2.72916
2.73177
2.73474
2.73756
2.73972
2.74107
2.74193
2.74269
2.74364
2.7448
2.74602
2.74704
2.74768
2.74795
2.74799
2.74794
2.74792
2.74804
2.74842
2.74896
2.74954
2.74986
2.75008
1
1
1
1
1
1
1
1
1
1
1
1
1
1
1
1
1
1
1
1
1
1
1
1
1
1
1
1
1
1
1
1
1
1
1
1
1
1
1
1
1
1
1
1
1
1
1
1
1
1
1.47929
2.49504
2.64586
2.65429
2.66427
2.67014
2.67437
2.67751
2.68031
2.68327
2.68653
2.68983
2.69286
2.69552
2.69793
2.70043
2.70338
2.70658
2.70967
2.71231
2.71426
2.71582
2.71722
2.71887
2.721
2.72359
2.72621
2.72829
2.7295
2.73005
2.73044
2.73095
2.73159
2.73242
2.73311
2.73348
2.73349
2.73324
2.73277
2.7322
2.73153
2.73078
2.72951
2.72758
2.72513
2.72296
1
1
1
1
1
1
1
1
1
1
1
1
1
1
1
1
1
1
1
1
1
1
1
1
1
1
1
1
1
1
1
1
1
1
1
1
1
1
1
1
1
1
1
1
1
1
1
1
1
1
1.02055
2.20715
2.65464
2.65478
2.65665
2.66023
2.66399
2.6673
2.6702
2.67312
2.67634
2.67973
2.68299
2.68585
2.68829
2.69049
2.69285
2.69549
2.6981
2.70046
2.70224
2.70355
2.70469
2.7059
2.70746
2.70944
2.71163
2.7135
2.71459
2.71479
2.71465
2.71446
2.71438
2.7144
2.71428
2.71376
2.71261
2.71075
2.70822
2.70509
2.70159
2.69796
2.6947
2.69138
2.68903
2.68752
1
1
1
1
1
1
1
1
1
1
1
1
1
1
1
1
1
1
1
1
1
1
1
1
1
1
1
1
1
1
1
1
1
1
1
1
1
1
1
1
1
1
1
1
1
1
1
1
1
1
1.00003
1.68864
2.54391
2.63538
2.64071
2.64521
2.64953
2.65348
2.65693
2.66015
2.66346
2.66696
2.67045
2.67364
2.67639
2.67873
2.68094
2.68322
2.68543
2.68741
2.68895
2.69004
2.69088
2.69172
2.6927
2.69377
2.69511
2.69631
2.69689
2.69665
2.69588
2.69475
2.69344
2.69208
2.69052
2.68853
2.68584
2.68232
2.67796
2.6729
2.66721
2.66133
2.65586
2.65378
2.65116
2.66552
1
1
1
1
1
1
1
1
1
1
1
1
1
1
1
1
1
1
1
1
1
1
1
1
1
1
1
1
1
1
1
1
1
1
1
1
1
1
1
1
1
1
1
1
1
1
1
1
1
1
1
1.05235
2.31749
2.63799
2.63601
2.63753
2.6406
2.64394
2.64727
2.6503
2.65319
2.65611
2.65911
2.66205
2.66478
2.6672
2.66932
2.67128
2.6731
2.6747
2.67604
2.67703
2.67759
2.67803
2.6784
2.67876
2.67913
2.67939
2.67925
2.67856
2.67717
2.67508
2.67248
2.66952
2.66617
2.6622
2.65722
2.65084
2.64242
2.63148
2.61634
2.59574
2.56578
2.52383
2.46122
2.33566
1
1
1
1
1
1
1
1
1
1
1
1
1
1
1
1
1
1
1
1
1
1
1
1
1
1
1
1
1
1
1
1
1
1
1
1
1
1
1
1
1
1
1
1
1
1
1
1
1
1
1
1.00019
1.95092
2.58645
2.61858
2.62363
2.62877
2.63328
2.63738
2.64073
2.64356
2.64618
2.64877
2.65139
2.65397
2.65641
2.6586
2.66049
2.66212
2.6635
2.66464
2.66535
2.66567
2.6658
2.66577
2.66559
2.66516
2.66455
2.66367
2.66232
2.66024
2.65729
2.65349
2.64898
2.64373
2.63763
2.63008
2.6207
2.60814
2.59188
2.56898
2.53843
2.49394
2.43838
2.32554
2.16302
1
1
1
1
1
1
1
1
1
1
1
1
1
1
1
1
1
1
1
1
1
1
1
1
1
1
1
1
1
1
1
1
1
1
1
1
1
1
1
1
1
1
1
1
1
1
1
1
1
1
1
1
1.3086
2.39972
2.60238
2.6076
2.61414
2.62
2.62551
2.63001
2.63353
2.63624
2.63854
2.64076
2.64307
2.64545
2.6477
2.64947
2.65082
2.65187
2.65266
2.6531
2.65316
2.65291
2.65243
2.65172
2.65063
2.64919
2.64742
2.64523
2.64231
2.63848
2.63351
2.62752
2.62032
2.61204
2.60194
2.58971
2.57376
2.55321
2.52576
2.48887
2.44048
2.36651
2.26119
2.13055
1
1
1
1
1
1
1
1
1
1
1
1
1
1
1
1
1
1
1
1
1
1
1
1
1
1
1
1
1
1
1
1
1
1
1
1
1
1
1
1
1
1
1
1
1
1
1
1
1
1
1
1
1.00855
2.07039
2.59132
2.59515
2.59878
2.60422
2.61047
2.61603
2.62046
2.62378
2.62633
2.6286
2.63096
2.63346
2.63571
2.6375
2.63883
2.63971
2.64018
2.64025
2.64001
2.6394
2.6385
2.63729
2.63563
2.63343
2.63077
2.62768
2.62387
2.61918
2.61317
2.60586
2.59692
2.58658
2.57426
2.55958
2.54134
2.51817
2.48866
2.44977
2.39988
2.332
2.2451
2.14831
1
1
1
1
1
1
1
1
1
1
1
1
1
1
1
1
1
1
1
1
1
1
1
1
1
1
1
1
1
1
1
1
1
1
1
1
1
1
1
1
1
1
1
1
1
1
1
1
1
1
1
1
1
1.39418
2.42513
2.58458
2.58627
2.59187
2.59782
2.60295
2.60715
2.61046
2.61303
2.61532
2.61771
2.6202
2.62257
2.62469
2.62626
2.62706
2.62718
2.627
2.62648
2.62559
2.62434
2.62269
2.62047
2.61764
2.6142
2.61023
2.60553
2.59998
2.59311
2.58479
2.57461
2.56264
2.54864
2.53221
2.51255
2.48829
2.45899
2.42041
2.37481
2.3171
2.24923
2.17365
1
1
1
1
1
1
1
1
1
1
1
1
1
1
1
1
1
1
1
1
1
1
1
1
1
1
1
1
1
1
1
1
1
1
1
1
1
1
1
1
1
1
1
1
1
1
1
1
1
1
1
1
1
1.01387
2.07623
2.57976
2.58128
2.58352
2.58701
2.5908
2.59422
2.59702
2.59921
2.60117
2.60323
2.6055
2.60795
2.61039
2.61238
2.61332
2.61327
2.61288
2.6121
2.611
2.60951
2.60756
2.60491
2.6016
2.59752
2.59279
2.58724
2.58083
2.57322
2.56418
2.55329
2.54041
2.52539
2.50797
2.48771
2.4634
2.435
2.39932
2.35929
2.31161
2.25611
2.19621
1
1
1
1
1
1
1
1
1
1
1
1
1
1
1
1
1
1
1
1
1
1
1
1
1
1
1
1
1
1
1
1
1
1
1
1
1
1
1
1
1
1
1
1
1
1
1
1
1
1
1
1
1
1.00001
1.34347
2.39597
2.57594
2.57592
2.57882
2.58171
2.58401
2.58556
2.58669
2.58771
2.58892
2.59061
2.59278
2.59519
2.5975
2.59866
2.59852
2.59791
2.5969
2.59569
2.59412
2.59201
2.58916
2.5856
2.58122
2.57607
2.56993
2.56278
2.55448
2.54486
2.5336
2.52038
2.50507
2.48737
2.46723
2.44319
2.41636
2.38418
2.34911
2.30859
2.26219
2.21304
1
1
1
1
1
1
1
1
1
1
1
1
1
1
1
1
1
1
1
1
1
1
1
1
1
1
1
1
1
1
1
1
1
1
1
1
1
1
1
1
1
1
1
1
1
1
1
1
1
1
1
1
1
1
1.00966
1.99605
2.55031
2.56425
2.5677
2.57095
2.5736
2.5752
2.5759
2.5759
2.57613
2.57695
2.57839
2.58011
2.58208
2.5832
2.58294
2.58214
2.58088
2.5795
2.57777
2.57552
2.57259
2.56904
2.56469
2.55946
2.55302
2.54533
2.53638
2.52627
2.51482
2.50168
2.48672
2.46944
2.4501
2.42703
2.40203
2.37283
2.34197
2.30647
2.26758
2.22559
1
1
1
1
1
1
1
1
1
1
1
1
1
1
1
1
1
1
1
1
1
1
1
1
1
1
1
1
1
1
1
1
1
1
1
1
1
1
1
1
1
1
1
1
1
1
1
1
1
1
1
1
1
1
1.00001
1.17507
2.32849
2.56517
2.56073
2.56267
2.56453
2.56594
2.5661
2.5656
2.56497
2.56496
2.56542
2.56615
2.56723
2.56782
2.56736
2.56631
2.56467
2.56293
2.56095
2.55861
2.55578
2.55242
2.5483
2.54325
2.53684
2.52896
2.51969
2.50926
2.49769
2.48471
2.47032
2.4537
2.43544
2.41399
2.39091
2.36439
2.33686
2.30521
2.27199
2.23549
1
1
1
1
1
1
1
1
1
1
1
1
1
1
1
1
1
1
1
1
1
1
1
1
1
1
1
1
1
1
1
1
1
1
1
1
1
1
1
1
1
1
1
1
1
1
1
1
1
1
1
1
1
1
1
1.0021
1.80465
2.48697
2.5374
2.54587
2.55175
2.55454
2.55454
2.55387
2.55287
2.55222
2.55233
2.5525
2.55282
2.55267
2.5519
2.55053
2.54843
2.54618
2.54371
2.5411
2.53822
2.53499
2.53112
2.52639
2.52031
2.51266
2.50353
2.49313
2.48169
2.46893
2.45521
2.43929
2.42223
2.40277
2.38165
2.35766
2.33302
2.30454
2.27562
2.24308
1
1
1
1
1
1
1
1
1
1
1
1
1
1
1
1
1
1
1
1
1
1
1
1
1
1
1
1
1
1
1
1
1
1
1
1
1
1
1
1
1
1
1
1
1
1
1
1
1
1
1
1
1
1
1
1
1.08509
2.16727
2.52794
2.54029
2.54068
2.54147
2.54236
2.54226
2.54181
2.54124
2.54103
2.54098
2.54074
2.54002
2.53876
2.53692
2.53424
2.53131
2.52811
2.525
2.52177
2.51831
2.51435
2.5097
2.50381
2.49649
2.48782
2.47776
2.46684
2.4544
2.44135
2.42615
2.41024
2.39265
2.37336
2.35185
2.3297
2.30403
2.27843
2.24919
1
1
1
1
1
1
1
1
1
1
1
1
1
1
1
1
1
1
1
1
1
1
1
1
1
1
1
1
1
1
1
1
1
1
1
1
1
1
1
1
1
1
1
1
1
1
1
1
1
1
1
1
1
1
1
1
1.00049
1.38145
2.3409
2.51834
2.5176
2.52112
2.5242
2.52646
2.5277
2.52817
2.52816
2.52814
2.5279
2.52707
2.52567
2.52361
2.52071
2.51735
2.51358
2.50993
2.50615
2.50201
2.49768
2.49278
2.487
2.48005
2.4719
2.46245
2.45229
2.44036
2.4281
2.41412
2.39919
2.38325
2.36555
2.34644
2.3262
2.30333
2.28012
2.2538
1
1
1
1
1
1
1
1
1
1
1
1
1
1
1
1
1
1
1
1
1
1
1
1
1
1
1
1
1
1
1
1
1
1
1
1
1
1
1
1
1
1
1
1
1
1
1
1
1
1
1
1
1
1
1
1
1
1.01213
1.84783
2.45938
2.49715
2.50323
2.50717
2.50992
2.51216
2.51355
2.51419
2.51433
2.51421
2.51361
2.51244
2.51063
2.50799
2.50473
2.50086
2.49677
2.49246
2.48765
2.48261
2.47727
2.47124
2.46438
2.45652
2.44761
2.43795
2.42674
2.41531
2.40266
2.3887
2.37426
2.35812
2.34112
2.32225
2.30204
2.28065
2.25726
1
1
1
1
1
1
1
1
1
1
1
1
1
1
1
1
1
1
1
1
1
1
1
1
1
1
1
1
1
1
1
1
1
1
1
1
1
1
1
1
1
1
1
1
1
1
1
1
1
1
1
1
1
1
1
1
1
1.00002
1.10043
2.09349
2.47565
2.49638
2.49591
2.49769
2.49913
2.49994
2.50048
2.50045
2.50019
2.49959
2.49856
2.49707
2.49498
2.49223
2.48872
2.4845
2.47998
2.47472
2.4692
2.46328
2.45683
2.44978
2.44192
2.43332
2.42403
2.41367
2.40293
2.39132
2.37852
2.36537
2.35078
2.33534
2.31764
2.29977
2.27997
2.25942
1
1
1
1
1
1
1
1
1
1
1
1
1
1
1
1
1
1
1
1
1
1
1
1
1
1
1
1
1
1
1
1
1
1
1
1
1
1
1
1
1
1
1
1
1
1
1
1
1
1
1
1
1
1
1
1
1
1
1.00069
1.24159
2.24446
2.47814
2.47917
2.4821
2.48204
2.48262
2.48329
2.4838
2.48378
2.48352
2.48289
2.48186
2.4804
2.47838
2.47564
2.47196
2.4676
2.46258
2.45696
2.45089
2.44422
2.43695
2.42904
2.42038
2.41134
2.4015
2.39124
2.38029
2.36858
2.35634
2.34299
2.32874
2.31262
2.29656
2.27842
2.26036
1
1
1
1
1
1
1
1
1
1
1
1
1
1
1
1
1
1
1
1
1
1
1
1
1
1
1
1
1
1
1
1
1
1
1
1
1
1
1
1
1
1
1
1
1
1
1
1
1
1
1
1
1
1
1
1
1
1
1
1.0041
1.57477
2.35037
2.45735
2.45527
2.45754
2.46004
2.46248
2.46439
2.46559
2.46607
2.46592
2.46541
2.46448
2.46311
2.46121
2.45834
2.45468
2.4503
2.44515
2.43937
2.43286
2.42562
2.41774
2.40918
2.4002
2.39058
2.38062
2.37008
2.35915
2.34746
2.33506
2.32168
2.30714
2.29234
2.27592
2.25976
1
1
1
1
1
1
1
1
1
1
1
1
1
1
1
1
1
1
1
1
1
1
1
1
1
1
1
1
1
1
1
1
1
1
1
1
1
1
1
1
1
1
1
1
1
1
1
1
1
1
1
1
1
1
1
1
1
1
1
1
1.03399
1.8622
2.40927
2.44293
2.4409
2.44304
2.44523
2.44716
2.44847
2.44916
2.44907
2.44863
2.44786
2.44674
2.44526
2.44318
2.44039
2.43686
2.43251
2.42745
2.42156
2.41481
2.4073
2.39911
2.39037
2.38106
2.37135
2.36111
2.3506
2.33926
2.32747
2.31471
2.30139
2.28751
2.27264
2.25799
1
1
1
1
1
1
1
1
1
1
1
1
1
1
1
1
1
1
1
1
1
1
1
1
1
1
1
1
1
1
1
1
1
1
1
1
1
1
1
1
1
1
1
1
1
1
1
1
1
1
1
1
1
1
1
1
1
1
1
1
1.00011
1.11155
1.99543
2.40971
2.43163
2.43346
2.43525
2.4353
2.43522
2.43484
2.43407
2.433
2.43172
2.43032
2.42877
2.42692
2.42467
2.42183
2.41833
2.41414
2.40916
2.40329
2.39655
2.38906
2.38086
2.37207
2.36277
2.35298
2.3428
2.33193
2.32061
2.30835
2.29582
2.28262
2.26891
2.25518
1
1
1
1
1
1
1
1
1
1
1
1
1
1
1
1
1
1
1
1
1
1
1
1
1
1
1
1
1
1
1
1
1
1
1
1
1
1
1
1
1
1
1
1
1
1
1
1
1
1
1
1
1
1
1
1
1
1
1
1
1
1.00089
1.18907
2.0722
2.39556
2.42616
2.426
2.42557
2.42471
2.42342
2.42186
2.41999
2.4179
2.41578
2.41363
2.41141
2.409
2.40628
2.40314
2.39951
2.39529
2.39033
2.38455
2.378
2.37065
2.36266
2.35401
2.34486
2.33515
2.32484
2.31397
2.30235
2.29046
2.27799
2.26518
2.25213
1
1
1
1
1
1
1
1
1
1
1
1
1
1
1
1
1
1
1
1
1
1
1
1
1
1
1
1
1
1
1
1
1
1
1
1
1
1
1
1
1
1
1
1
1
1
1
1
1
1
1
1
1
1
1
1
1
1
1
1
1
1
1.0025
1.26333
2.1269
2.38472
2.41142
2.41234
2.41217
2.41153
2.41016
2.40814
2.40575
2.40322
2.40059
2.3978
2.39486
2.39173
2.38838
2.38475
2.38076
2.37628
2.37117
2.36538
2.35887
2.3517
2.34385
2.33547
2.32647
2.31696
2.30685
2.29618
2.28509
2.27345
2.26146
2.24902
1
1
1
1
1
1
1
1
1
1
1
1
1
1
1
1
1
1
1
1
1
1
1
1
1
1
1
1
1
1
1
1
1
1
1
1
1
1
1
1
1
1
1
1
1
1
1
1
1
1
1
1
1
1
1
1
1
1
1
1
1
1
1
1.00503
1.33955
2.16508
2.37251
2.39085
2.39502
2.39636
2.39593
2.3949
2.39332
2.39126
2.38864
2.38562
2.38237
2.37896
2.37533
2.37142
2.36718
2.36256
2.35748
2.35191
2.34582
2.33918
2.33205
2.32447
2.31642
2.30802
2.29905
2.28949
2.27934
2.2686
2.25749
2.24577
1
1
1
1
1
1
1
1
1
1
1
1
1
1
1
1
1
1
1
1
1
1
1
1
1
1
1
1
1
1
1
1
1
1
1
1
1
1
1
1
1
1
1
1
1
1
1
1
1
1
1
1
1
1
1
1
1
1
1
1
1
1
1
1.00001
1.00899
1.40755
2.19252
2.35863
2.37116
2.37577
2.37761
2.37858
2.37834
2.37721
2.37521
2.37271
2.36985
2.36664
2.36304
2.359
2.35456
2.34972
2.34446
2.33884
2.3329
2.32661
2.31997
2.31298
2.30567
2.2981
2.29013
2.28161
2.27254
2.2628
2.25264
2.24174
1
1
1
1
1
1
1
1
1
1
1
1
1
1
1
1
1
1
1
1
1
1
1
1
1
1
1
1
1
1
1
1
1
1
1
1
1
1
1
1
1
1
1
1
1
1
1
1
1
1
1
1
1
1
1
1
1
1
1
1
1
1
1
1
1.00002
1.01414
1.46357
2.21088
2.34707
2.35373
2.35614
2.35828
2.35919
2.35916
2.3586
2.3574
2.35555
2.35305
2.34991
2.34627
2.34214
2.33746
2.33227
2.3267
2.32082
2.31464
2.30818
2.30151
2.29464
2.28758
2.28028
2.27259
2.26439
2.25551
2.24631
2.23629
1
1
1
1
1
1
1
1
1
1
1
1
1
1
1
1
1
1
1
1
1
1
1
1
1
1
1
1
1
1
1
1
1
1
1
1
1
1
1
1
1
1
1
1
1
1
1
1
1
1
1
1
1
1
1
1
1
1
1
1
1
1
1
1
1
1.00004
1.01983
1.50782
2.2212
2.3369
2.33951
2.33927
2.33944
2.33936
2.33915
2.33869
2.33791
2.33658
2.33466
2.33209
2.32883
2.32484
2.32021
2.31503
2.30945
2.30353
2.29728
2.2908
2.28415
2.27729
2.27023
2.26299
2.25536
2.24722
2.23873
2.22963
1
1
1
1
1
1
1
1
1
1
1
1
1
1
1
1
1
1
1
1
1
1
1
1
1
1
1
1
1
1
1
1
1
1
1
1
1
1
1
1
1
1
1
1
1
1
1
1
1
1
1
1
1
1
1
1
1
1
1
1
1
1
1
1
1
1
1.00006
1.02548
1.53764
2.22441
2.32725
2.32618
2.32445
2.32286
2.32127
2.32011
2.31899
2.31786
2.31664
2.31507
2.31288
2.30998
2.30643
2.30224
2.29746
2.29216
2.28641
2.28029
2.27393
2.26737
2.26052
2.2534
2.24615
2.23852
2.23043
2.22217
1
1
1
1
1
1
1
1
1
1
1
1
1
1
1
1
1
1
1
1
1
1
1
1
1
1
1
1
1
1
1
1
1
1
1
1
1
1
1
1
1
1
1
1
1
1
1
1
1
1
1
1
1
1
1
1
1
1
1
1
1
1
1
1
1
1
1
1.00009
1.03004
1.55051
2.21886
2.3159
2.3142
2.31077
2.30804
2.30546
2.30295
2.30069
2.29881
2.29704
2.2952
2.29305
2.29047
2.28736
2.28363
2.27931
2.27454
2.26925
2.26345
2.25733
2.25079
2.24399
2.23693
2.22966
2.22232
2.21432
1
1
1
1
1
1
1
1
1
1
1
1
1
1
1
1
1
1
1
1
1
1
1
1
1
1
1
1
1
1
1
1
1
1
1
1
1
1
1
1
1
1
1
1
1
1
1
1
1
1
1
1
1
1
1
1
1
1
1
1
1
1
1
1
1
1
1
1
1.00012
1.03223
1.54617
2.20189
2.30405
2.30252
2.29841
2.29462
2.29087
2.2876
2.28452
2.28161
2.2789
2.27628
2.27369
2.271
2.26802
2.26462
2.26074
2.25636
2.25151
2.2461
2.24034
2.23429
2.22763
2.22078
2.2137
2.20631
1
1
1
1
1
1
1
1
1
1
1
1
1
1
1
1
1
1
1
1
1
1
1
1
1
1
1
1
1
1
1
1
1
1
1
1
1
1
1
1
1
1
1
1
1
1
1
1
1
1
1
1
1
1
1
1
1
1
1
1
1
1
1
1
1
1
1
1
1
1.00013
1.0316
1.52399
2.17238
2.29117
2.29086
2.28658
2.28264
2.27841
2.27433
2.27035
2.26641
2.2627
2.25921
2.25575
2.25231
2.24887
2.24525
2.24154
2.23759
2.23326
2.2284
2.22297
2.21731
2.21108
2.20466
2.19843
1
1
1
1
1
1
1
1
1
1
1
1
1
1
1
1
1
1
1
1
1
1
1
1
1
1
1
1
1
1
1
1
1
1
1
1
1
1
1
1
1
1
1
1
1
1
1
1
1
1
1
1
1
1
1
1
1
1
1
1
1
1
1
1
1
1
1
1
1
1
1.00013
1.02831
1.48275
2.13203
2.27309
2.27949
2.27522
2.2713
2.26668
2.26208
2.25758
2.25316
2.24867
2.24415
2.23971
2.2355
2.23143
2.22745
2.22351
2.21954
2.21533
2.2108
2.20602
2.20083
2.19522
2.18933
1
1
1
1
1
1
1
1
1
1
1
1
1
1
1
1
1
1
1
1
1
1
1
1
1
1
1
1
1
1
1
1
1
1
1
1
1
1
1
1
1
1
1
1
1
1
1
1
1
1
1
1
1
1
1
1
1
1
1
1
1
1
1
1
1
1
1
1
1
1
1
1.00011
1.0228
1.42771
2.06991
2.25254
2.26841
2.26375
2.2594
2.2546
2.2498
2.24497
2.24025
2.23548
2.23053
2.22563
2.22082
2.21615
2.21168
2.2074
2.20332
2.1989
2.19428
2.18955
2.18425
2.17929
1
1
1
1
1
1
1
1
1
1
1
1
1
1
1
1
1
1
1
1
1
1
1
1
1
1
1
1
1
1
1
1
1
1
1
1
1
1
1
1
1
1
1
1
1
1
1
1
1
1
1
1
1
1
1
1
1
1
1
1
1
1
1
1
1
1
1
1
1
1
1
1
1.00008
1.01675
1.35457
1.98497
2.22271
2.25589
2.24968
2.2459
2.24171
2.2373
2.23274
2.22799
2.22324
2.21851
2.21378
2.20892
2.20393
2.19894
2.19398
2.18907
2.18408
2.17913
2.17412
2.16886
1
1
1
1
1
1
1
1
1
1
1
1
1
1
1
1
1
1
1
1
1
1
1
1
1
1
1
1
1
1
1
1
1
1
1
1
1
1
1
1
1
1
1
1
1
1
1
1
1
1
1
1
1
1
1
1
1
1
1
1
1
1
1
1
1
1
1
1
1
1
1
1
1
1.00005
1.01073
1.26987
1.86835
2.18704
2.23731
2.23345
2.23154
2.22901
2.22586
2.22209
2.21788
2.21326
2.20854
2.20367
2.1986
2.19327
2.1878
2.18241
2.17674
2.17115
2.16558
2.15968
1
1
1
1
1
1
1
1
1
1
1
1
1
1
1
1
1
1
1
1
1
1
1
1
1
1
1
1
1
1
1
1
1
1
1
1
1
1
1
1
1
1
1
1
1
1
1
1
1
1
1
1
1
1
1
1
1
1
1
1
1
1
1
1
1
1
1
1
1
1
1
1
1
1
1.00003
1.00598
1.18036
1.74268
2.13919
2.21607
2.21598
2.21554
2.21398
2.2119
2.2091
2.20567
2.20179
2.19748
2.19285
2.18772
2.18217
2.17653
2.17075
2.16501
2.15933
2.15325
1
1
1
1
1
1
1
1
1
1
1
1
1
1
1
1
1
1
1
1
1
1
1
1
1
1
1
1
1
1
1
1
1
1
1
1
1
1
1
1
1
1
1
1
1
1
1
1
1
1
1
1
1
1
1
1
1
1
1
1
1
1
1
1
1
1
1
1
1
1
1
1
1
1
1
1.00001
1.00278
1.10802
1.60915
2.08631
2.18312
2.20185
2.1965
2.19644
2.19553
2.1938
2.19139
2.18844
2.18498
2.1808
2.17608
2.17093
2.16556
2.15996
2.15424
2.14834
1
1
1
1
1
1
1
1
1
1
1
1
1
1
1
1
1
1
1
1
1
1
1
1
1
1
1
1
1
1
1
1
1
1
1
1
1
1
1
1
1
1
1
1
1
1
1
1
1
1
1
1
1
1
1
1
1
1
1
1
1
1
1
1
1
1
1
1
1
1
1
1
1
1
1
1
1
1.00112
1.05692
1.48146
1.99666
2.15525
2.187
2.18059
2.17979
2.17898
2.17781
2.17593
2.17352
2.1707
2.16728
2.16329
2.1589
2.15395
2.14913
2.14381
1
1
1
1
1
1
1
1
1
1
1
1
1
1
1
1
1
1
1
1
1
1
1
1
1
1
1
1
1
1
1
1
1
1
1
1
1
1
1
1
1
1
1
1
1
1
1
1
1
1
1
1
1
1
1
1
1
1
1
1
1
1
1
1
1
1
1
1
1
1
1
1
1
1
1
1
1
1
1.00039
1.02712
1.34673
1.87214
2.12446
2.16825
2.16593
2.16367
2.16196
2.16062
2.15902
2.1571
2.15495
2.15232
2.14913
2.14579
2.14197
2.13747
1
1
1
1
1
1
1
1
1
1
1
1
1
1
1
1
1
1
1
1
1
1
1
1
1
1
1
1
1
1
1
1
1
1
1
1
1
1
1
1
1
1
1
1
1
1
1
1
1
1
1
1
1
1
1
1
1
1
1
1
1
1
1
1
1
1
1
1
1
1
1
1
1
1
1
1
1
1
1
1.00012
1.01146
1.21467
1.71647
2.07956
2.14112
2.15319
2.14776
2.1455
2.14408
2.14275
2.14115
2.1392
2.13727
2.13488
2.13181
2.12875
1
1
1
1
1
1
1
1
1
1
1
1
1
1
1
1
1
1
1
1
1
1
1
1
1
1
1
1
1
1
1
1
1
1
1
1
1
1
1
1
1
1
1
1
1
1
1
1
1
1
1
1
1
1
1
1
1
1
1
1
1
1
1
1
1
1
1
1
1
1
1
1
1
1
1
1
1
1
1
1
1.00003
1.00413
1.10869
1.55646
1.99345
2.11381
2.13932
2.13517
2.13214
2.13006
2.128
2.12591
2.12379
2.12148
2.11954
2.11719
1
1
1
1
1
1
1
1
1
1
1
1
1
1
1
1
1
1
1
1
1
1
1
1
1
1
1
1
1
1
1
1
1
1
1
1
1
1
1
1
1
1
1
1
1
1
1
1
1
1
1
1
1
1
1
1
1
1
1
1
1
1
1
1
1
1
1
1
1
1
1
1
1
1
1
1
1
1
1
1
1
1.00001
1.00121
1.04607
1.39231
1.86291
2.0883
2.12526
2.12297
2.11766
2.11436
2.11232
2.11018
2.10846
2.10671
2.10386
1
1
1
1
1
1
1
1
1
1
1
1
1
1
1
1
1
1
1
1
1
1
1
1
1
1
1
1
1
1
1
1
1
1
1
1
1
1
1
1
1
1
1
1
1
1
1
1
1
1
1
1
1
1
1
1
1
1
1
1
1
1
1
1
1
1
1
1
1
1
1
1
1
1
1
1
1
1
1
1
1
1
1
1.00029
1.01679
1.23131
1.7073
2.03167
2.09597
2.11037
2.10518
2.1022
2.10016
2.09777
2.09494
2.09289
1
1
1
1
1
1
1
1
1
1
1
1
1
1
1
1
1
1
1
1
1
1
1
1
1
1
1
1
1
1
1
1
1
1
1
1
1
1
1
1
1
1
1
1
1
1
1
1
1
1
1
1
1
1
1
1
1
1
1
1
1
1
1
1
1
1
1
1
1
1
1
1
1
1
1
1
1
1
1
1
1
1
1
1
1.00006
1.00513
1.11163
1.51664
1.93111
2.07573
2.09753
2.09415
2.08938
2.08442
2.08317
2.08298
1
1
1
1
1
1
1
1
1
1
1
1
1
1
1
1
1
1
1
1
1
1
1
1
1
1
1
1
1
1
1
1
1
1
1
1
1
1
1
1
1
1
1
1
1
1
1
1
1
1
1
1
1
1
1
1
1
1
1
1
1
1
1
1
1
1
1
1
1
1
1
1
1
1
1
1
1
1
1
1
1
1
1
1
1
1.00001
1.00131
1.03952
1.33839
1.77563
2.03196
2.08529
2.08482
2.07868
2.07258
2.07016
1
1
1
1
1
1
1
1
1
1
1
1
1
1
1
1
1
1
1
1
1
1
1
1
1
1
1
1
1
1
1
1
1
1
1
1
1
1
1
1
1
1
1
1
1
1
1
1
1
1
1
1
1
1
1
1
1
1
1
1
1
1
1
1
1
1
1
1
1
1
1
1
1
1
1
1
1
1
1
1
1
1
1
1
1
1
1
1.00023
1.01253
1.17298
1.59049
1.95346
2.05794
2.07361
2.06323
2.06052
1
1
1
1
1
1
1
1
1
1
1
1
1
1
1
1
1
1
1
1
1
1
1
1
1
1
1
1
1
1
1
1
1
1
1
1
1
1
1
1
1
1
1
1
1
1
1
1
1
1
1
1
1
1
1
1
1
1
1
1
1
1
1
1
1
1
1
1
1
1
1
1
1
1
1
1
1
1
1
1
1
1
1
1
1
1
1
1
1.00004
1.00304
1.06591
1.40237
1.80897
2.03204
2.05639
2.12985
1
1
1
1
1
1
1
1
1
1
1
1
1
1
1
1
1
1
1
1
1
1
1
1
1
1
1
1
1
1
1
1
1
1
1
1
1
1
1
1
1
1
1
1
1
1
1
1
1
1
1
1
1
1
1
1
1
1
1
1
1
1
1
1
1
1
1
1
1
1
1
1
1
1
1
1
1
1
1
1
1
1
1
1
1
1
1
1
1
1.00001
1.00055
1.02051
1.2185
1.61455
2.1752
2.39361
1
1
1
1
1
1
1
1
1
1
1
1
1
1
1
1
1
1
1
1
1
1
1
1
1
1
1
1
1
1
1
1
1
1
1
1
1
1
1
1
1
1
1
1
1
1
1
1
1
1
1
1
1
1
1
1
1
1
1
1
1
1
1
1
1
1
1
1
1
1
1
1
1
1
1
1
1
1
1
1
1
1
1
1
1
1
1
1
1
1
1
1.00008
1.00542
1.43494
2.54258
2.6397
1
1
1
1
1
1
1
1
1
1
1
1
1
1
1
1
1
1
1
1
1
1
1
1
1
1
1
1
1
1
1
1
1
1
1
1
1
1
1
1
1
1
1
1
1
1
1
1
1
1
1
1
1
1
1
1
1
1
1
1
1
1
1
1
1
1
1
1
1
1
1
1
1
1
1
1
1
1
1
1
1
1
1
1
1
1
1
1
1
1
1
1
1.00002
1.71426
2.72323
2.706
1
1
1
1
1
1
1
1
1
1
1
1
1
1
1
1
1
1
1
1
1
1
1
1
1
1
1
1
1
1
1
1
1
1
1
1
1
1
1
1
1
1
1
1
1
1
1
1
1
1
1
1
1
1
1
1
1
1
1
1
1
1
1
1
1
1
1
1
1
1
1
1
1
1
1
1
1
1
1
1
1
1
1
1
1
1
1
1
1
1
1
1
1
1.60115
2.66352
2.73743
1
1
1
1
1
1
1
1
1
1
1
1
1
1
1
1
1
1
1
1
1
1
1
1
1
1
1
1
1
1
1
1
1
1
1
1
1
1
1
1
1
1
1
1
1
1
1
1
1
1
1
1
1
1
1
1
1
1
1
1
1
1
1
1
1
1
1
1
1
1
1
1
1
1
1
1
1
1
1
1
1
1
1
1
1
1
1
1
1
1
1
1
1
1.42931
2.55978
2.72751
1
1
1
1
1
1
1
1
1
1
1
1
1
1
1
1
1
1
1
1
1
1
1
1
1
1
1
1
1
1
1
1
1
1
1
1
1
1
1
1
1
1
1
1
1
1
1
1
1
1
1
1
1
1
1
1
1
1
1
1
1
1
1
1
1
1
1
1
1
1
1
1
1
1
1
1
1
1
1
1
1
1
1
1
1
1
1
1
1
1
1
1
1
1.21157
2.43132
2.71569
1
1
1
1
1
1
1
1
1
1
1
1
1
1
1
1
1
1
1
1
1
1
1
1
1
1
1
1
1
1
1
1
1
1
1
1
1
1
1
1
1
1
1
1
1
1
1
1
1
1
1
1
1
1
1
1
1
1
1
1
1
1
1
1
1
1
1
1
1
1
1
1
1
1
1
1
1
1
1
1
1
1
1
1
1
1
1
1
1
1
1
1
1
1.00601
2.29199
2.70953
1
1
1
1
1
1
1
1
1
1
1
1
1
1
1
1
1
1
1
1
1
1
1
1
1
1
1
1
1
1
1
1
1
1
1
1
1
1
1
1
1
1
1
1
1
1
1
1
1
1
1
1
1
1
1
1
1
1
1
1
1
1
1
1
1
1
1
1
1
1
1
1
1
1
1
1
1
1
1
1
1
1
1
1
1
1
1
1
1
1
1
1
1
1.00001
2.15762
2.70344
1
1
1
1
1
1
1
1
1
1
1
1
1
1
1
1
1
1
1
1
1
1
1
1
1
1
1
1
1
1
1
1
1
1
1
1
1
1
1
1
1
1
1
1
1
1
1
1
1
1
1
1
1
1
1
1
1
1
1
1
1
1
1
1
1
1
1
1
1
1
1
1
1
1
1
1
1
1
1
1
1
1
1
1
1
1
1
1
1
1
1
1
1
1
2.02096
2.69622
1
1
1
1
1
1
1
1
1
1
1
1
1
1
1
1
1
1
1
1
1
1
1
1
1
1
1
1
1
1
1
1
1
1
1
1
1
1
1
1
1
1
1
1
1
1
1
1
1
1
1
1
1
1
1
1
1
1
1
1
1
1
1
1
1
1
1
1
1
1
1
1
1
1
1
1
1
1
1
1
1
1
1
1
1
1
1
1
1
1
1
1
1
1
1.8889
2.68039
1
1
1
1
1
1
1
1
1
1
1
1
1
1
1
1
1
1
1
1
1
1
1
1
1
1
1
1
1
1
1
1
1
1
1
1
1
1
1
1
1
1
1
1
1
1
1
1
1
1
1
1
1
1
1
1
1
1
1
1
1
1
1
1
1
1
1
1
1
1
1
1
1
1
1
1
1
1
1
1
1
1
1
1
1
1
1
1
1
1
1
1
1
1
1.76599
2.65687
1
1
1
1
1
1
1
1
1
1
1
1
1
1
1
1
1
1
1
1
1
1
1
1
1
1
1
1
1
1
1
1
1
1
1
1
1
1
1
1
1
1
1
1
1
1
1
1
1
1
1
1
1
1
1
1
1
1
1
1
1
1
1
1
1
1
1
1
1
1
1
1
1
1
1
1
1
1
1
1
1
1
1
1
1
1
1
1
1
1
1
1
1
1
1.65291
2.62878
1
1
1
1
1
1
1
1
1
1
1
1
1
1
1
1
1
1
1
1
1
1
1
1
1
1
1
1
1
1
1
1
1
1
1
1
1
1
1
1
1
1
1
1
1
1
1
1
1
1
1
1
1
1
1
1
1
1
1
1
1
1
1
1
1
1
1
1
1
1
1
1
1
1
1
1
1
1
1
1
1
1
1
1
1
1
1
1
1
1
1
1
1
1
1.55088
2.59871
1
1
1
1
1
1
1
1
1
1
1
1
1
1
1
1
1
1
1
1
1
1
1
1
1
1
1
1
1
1
1
1
1
1
1
1
1
1
1
1
1
1
1
1
1
1
1
1
1
1
1
1
1
1
1
1
1
1
1
1
1
1
1
1
1
1
1
1
1
1
1
1
1
1
1
1
1
1
1
1
1
1
1
1
1
1
1
1
1
1
1
1
1
1
1.45989
2.5672
1
1
1
1
1
1
1
1
1
1
1
1
1
1
1
1
1
1
1
1
1
1
1
1
1
1
1
1
1
1
1
1
1
1
1
1
1
1
1
1
1
1
1
1
1
1
1
1
1
1
1
1
1
1
1
1
1
1
1
1
1
1
1
1
1
1
1
1
1
1
1
1
1
1
1
1
1
1
1
1
1
1
1
1
1
1
1
1
1
1
1
1
1
1
1.37714
2.5326
1
1
1
1
1
1
1
1
1
1
1
1
1
1
1
1
1
1
1
1
1
1
1
1
1
1
1
1
1
1
1
1
1
1
1
1
1
1
1
1
1
1
1
1
1
1
1
1
1
1
1
1
1
1
1
1
1
1
1
1
1
1
1
1
1
1
1
1
1
1
1
1
1
1
1
1
1
1
1
1
1
1
1
1
1
1
1
1
1
1
1
1
1
1
1.29565
2.4883
1
1
1
1
1
1
1
1
1
1
1
1
1
1
1
1
1
1
1
1
1
1
1
1
1
1
1
1
1
1
1
1
1
1
1
1
1
1
1
1
1
1
1
1
1
1
1
1
1
1
1
1
1
1
1
1
1
1
1
1
1
1
1
1
1
1
1
1
1
1
1
1
1
1
1
1
1
1
1
1
1
1
1
1
1
1
1
1
1
1
1
1
1
1
1.21553
2.43796
1
1
1
1
1
1
1
1
1
1
1
1
1
1
1
1
1
1
1
1
1
1
1
1
1
1
1
1
1
1
1
1
1
1
1
1
1
1
1
1
1
1
1
1
1
1
1
1
1
1
1
1
1
1
1
1
1
1
1
1
1
1
1
1
1
1
1
1
1
1
1
1
1
1
1
1
1
1
1
1
1
1
1
1
1
1
1
1
1
1
1
1
1
1
1.12868
2.39696
1
1
1
1
1
1
1
1
1
1
1
1
1
1
1
1
1
1
1
1
1
1
1
1
1
1
1
1
1
1
1
1
1
1
1
1
1
1
1
1
1
1
1
1
1
1
1
1
1
1
1
1
1
1
1
1
1
1
1
1
1
1
1
1
1
1
1
1
1
1
1
1
1
1
1
1
1
1
1
1
1
1
1
1
1
1
1
1
1
1
1
1
1
1
1.064
2.36781
1
1
1
1
1
1
1
1
1
1
1
1
1
1
1
1
1
1
1
1
1
1
1
1
1
1
1
1
1
1
1
1
1
1
1
1
1
1
1
1
1
1
1
1
1
1
1
1
1
1
1
1
1
1
1
1
1
1
1
1
1
1
1
1
1
1
1
1
1
1
1
1
1
1
1
1
1
1
1
1
1
1
1
1
1
1
1
1
1
1
1
1
1
1
1.03844
2.35049
1.48467
0.723022
0.663767
0.858574
0.982657
1.01603
1.05114
1.09726
1.1035
1.11822
1.16008
1.23652
1.33854
1.46174
1.5338
1.54589
1.53942
1.54005
1.5431
1.56493
1.60473
1.62265
1.61783
1.5992
1.5944
1.59756
1.6109
1.62933
1.6338
1.63114
1.62439
1.62071
1.62192
1.63122
1.6445
1.64647
1.64434
1.64194
1.64184
1.64163
1.64192
1.64277
1.64328
1.64337
1.64481
1.64914
1.65255
1.65418
1.65547
1.65545
1.65461
1.65213
1.64786
1.63929
1.67407
2.46316
2.77074
2.77747
2.77788
2.77389
2.76697
2.75865
2.74961
2.73976
2.72913
2.71765
2.70595
2.69625
2.68867
2.68307
2.6788
2.67439
2.66828
2.65981
2.65027
2.64133
2.63357
2.62749
2.62342
2.62067
2.61736
2.61175
2.60315
2.5925
2.58174
2.57201
2.56381
2.55747
2.55219
2.54523
2.53522
2.52411
2.51336
2.50391
2.49635
2.49149
2.48896
2.48593
2.48025
2.47308
2.46546
2.45783
2.45132
2.4458
2.44171
2.43841
2.4337
2.42795
2.42154
2.41451
2.40752
2.40055
2.39393
2.38817
2.38263
2.37615
2.36865
2.3608
2.35282
2.34496
2.33785
2.3314
2.32546
2.32017
2.31552
2.31131
2.30727
2.3032
2.29896
2.29435
2.28923
2.28372
2.27773
2.27133
2.2648
2.25833
2.25208
2.24633
2.24125
2.23672
2.2325
2.22835
2.22403
2.21936
2.21428
2.20881
2.20305
2.19721
2.19159
2.1863
2.1812
2.17601
2.17058
2.16486
2.1589
2.15263
2.14604
2.13902
2.1314
2.12348
2.1167
2.11123
2.10626
2.10192
2.09768
2.09347
2.089
2.08387
2.07821
2.07273
2.06788
2.06363
2.05989