/*--------------------------------*- C++ -*----------------------------------*\
  =========                 |
  \\      /  F ield         | OpenFOAM: The Open Source CFD Toolbox
   \\    /   O peration     | Website:  https://openfoam.org
    \\  /    A nd           | Version:  7
     \\/     M anipulation  |
\*---------------------------------------------------------------------------*/
FoamFile
{
    version     2.0;
    format      ascii;
    class       volVectorField;
    location    "4.2";
    object      U;
}
// * * * * * * * * * * * * * * * * * * * * * * * * * * * * * * * * * * * * * //

dimensions      [0 1 -1 0 0 0 0];

internalField   nonuniform List<vector> 
19968
(
(3 3.63064e-17 0)
(3 2.82641e-16 0)
(3 7.56623e-16 0)
(3 8.56002e-16 0)
(3 2.49878e-16 0)
(3 1.88325e-17 0)
(3 2.44552e-17 0)
(3 1.35198e-16 0)
(3 2.20731e-16 0)
(3 3.257e-16 0)
(3 3.74903e-16 0)
(3 3.13596e-16 0)
(3 5.48603e-16 0)
(3 1.04954e-15 0)
(3 1.85462e-15 0)
(3 2.07369e-15 0)
(3 2.11012e-15 0)
(3 1.80818e-15 0)
(3 1.55954e-15 0)
(3 4.00234e-16 0)
(3 -4.31754e-16 0)
(3 -5.02975e-16 0)
(3 -6.56481e-16 0)
(3 -6.68512e-16 0)
(3 -3.4767e-16 0)
(3 -2.63768e-17 0)
(3 -7.68765e-17 0)
(3 -5.55799e-16 0)
(3 -2.47228e-16 0)
(3 -2.43649e-16 0)
(3 -4.11205e-16 0)
(3 -8.02926e-16 0)
(3 -1.06633e-15 0)
(3 -2.20435e-15 0)
(3 -2.09766e-15 0)
(3 -8.96401e-16 0)
(3 -4.96293e-16 0)
(3 -7.59174e-16 0)
(3 -1.02006e-15 0)
(3 -9.17622e-16 0)
(3 -2.59539e-16 0)
(3 3.95667e-16 0)
(3 1.09751e-15 0)
(3 6.1736e-16 0)
(3 3.39032e-16 0)
(3 1.90322e-16 0)
(3 2.01286e-16 0)
(3 -1.05064e-16 0)
(2.85471 0.00154961 0)
(0.989056 0.00473777 0)
(0.762548 0.00781738 0)
(0.744935 0.00918127 0)
(0.727446 0.0087075 0)
(0.711803 0.00826667 0)
(0.69716 0.00812972 0)
(0.682972 0.00828598 0)
(0.668427 0.00862138 0)
(0.653075 0.00895537 0)
(0.637053 0.00916581 0)
(0.621016 0.00921479 0)
(0.605653 0.0091737 0)
(0.591155 0.00916983 0)
(0.577212 0.00923359 0)
(0.563332 0.00930353 0)
(0.548963 0.00936816 0)
(0.533718 0.00948943 0)
(0.517604 0.00964543 0)
(0.50113 0.00978179 0)
(0.484875 0.00994571 0)
(0.469031 0.0101298 0)
(0.453563 0.0101999 0)
(0.438367 0.0102038 0)
(0.423106 0.0103208 0)
(0.407383 0.0105002 0)
(0.391115 0.0106236 0)
(0.374466 0.0107342 0)
(0.35767 0.0108738 0)
(0.341013 0.0110053 0)
(0.324696 0.0111141 0)
(0.308675 0.0112059 0)
(0.292717 0.0112953 0)
(0.276509 0.011405 0)
(0.259702 0.011529 0)
(0.242065 0.0116486 0)
(0.223765 0.0117795 0)
(0.205251 0.0119476 0)
(0.186905 0.0121571 0)
(0.168837 0.0123763 0)
(0.150902 0.0126166 0)
(0.132799 0.0129288 0)
(0.114199 0.0133187 0)
(0.0949244 0.0137097 0)
(0.0749486 0.0140482 0)
(0.0541762 0.0143697 0)
(0.0328483 0.0145124 0)
(0.0110793 0.0147087 0)
(3 -2.62396e-16 0)
(3 -1.93566e-16 0)
(3 3.06255e-16 0)
(3 5.84908e-16 0)
(3 -1.47115e-16 0)
(3 -6.63777e-16 0)
(3 -3.69612e-16 0)
(3 -2.78527e-16 0)
(3 -4.44225e-16 0)
(3 -4.26062e-16 0)
(3 -2.25516e-16 0)
(3 8.75804e-16 0)
(3 1.11369e-15 0)
(3 1.8944e-15 0)
(3 2.11384e-15 0)
(3 2.81936e-15 0)
(3 3.11408e-15 0)
(3 2.15753e-15 0)
(3 1.52822e-15 0)
(3 8.95701e-16 0)
(3 -1.74617e-16 0)
(3 -5.63155e-16 0)
(3 -1.30364e-15 0)
(3 -1.86347e-15 0)
(3 -1.46711e-15 0)
(3 -7.38977e-16 0)
(3 -1.66087e-15 0)
(3 -2.36863e-15 0)
(3 -2.04442e-15 0)
(3 -1.30024e-15 0)
(3 -4.43317e-16 0)
(3 -4.40906e-16 0)
(3 -6.36277e-16 0)
(3 -8.97987e-16 0)
(3 -1.04303e-15 0)
(3 -9.24756e-16 0)
(3 9.53974e-17 0)
(3 4.64781e-16 0)
(3 4.18341e-16 0)
(3 5.04075e-16 0)
(3 2.4211e-16 0)
(3 4.05711e-16 0)
(3 9.70947e-16 0)
(3 3.00205e-16 0)
(3 1.13906e-15 0)
(3 1.9667e-15 0)
(3 1.74938e-15 0)
(3 6.11997e-16 0)
(2.86605 0.00928054 0)
(0.993875 0.0247777 0)
(0.758665 0.0292625 0)
(0.740074 0.0274556 0)
(0.723098 0.0258952 0)
(0.707657 0.0245237 0)
(0.693109 0.0240764 0)
(0.67898 0.024614 0)
(0.664496 0.0257533 0)
(0.649163 0.0268636 0)
(0.633127 0.0275406 0)
(0.617079 0.0276886 0)
(0.601719 0.0275701 0)
(0.587229 0.0275797 0)
(0.573285 0.0278288 0)
(0.559348 0.0281319 0)
(0.544843 0.0283679 0)
(0.529446 0.0286505 0)
(0.51326 0.0289662 0)
(0.496818 0.0292854 0)
(0.480637 0.0298228 0)
(0.464823 0.0305295 0)
(0.449282 0.0308731 0)
(0.433963 0.0308949 0)
(0.418609 0.0311942 0)
(0.40284 0.0317317 0)
(0.386521 0.0321456 0)
(0.369798 0.0325283 0)
(0.352921 0.0330007 0)
(0.336187 0.0334513 0)
(0.319795 0.0338114 0)
(0.303712 0.0340685 0)
(0.287724 0.0342684 0)
(0.271532 0.0345124 0)
(0.25481 0.0348251 0)
(0.237358 0.0351817 0)
(0.219341 0.0356372 0)
(0.201182 0.0362481 0)
(0.183237 0.0369865 0)
(0.16561 0.0377256 0)
(0.148174 0.0384853 0)
(0.130638 0.0394299 0)
(0.112652 0.0406076 0)
(0.0939743 0.0418333 0)
(0.0744971 0.0429611 0)
(0.0540867 0.0441112 0)
(0.0329267 0.0447454 0)
(0.0111596 0.0455695 0)
(3 -1.88548e-18 0)
(3 -4.59562e-16 0)
(3 -5.13872e-16 0)
(3 -2.27914e-16 0)
(3 2.23111e-17 0)
(3 -4.41074e-16 0)
(3 -7.67008e-16 0)
(3 -8.55953e-16 0)
(3 -1.23861e-15 0)
(3 -1.46231e-15 0)
(3 -1.46572e-15 0)
(3 -1.24145e-15 0)
(3 -4.85061e-16 0)
(3 3.30204e-16 0)
(3 9.16291e-16 0)
(3 1.57362e-15 0)
(3 2.05099e-15 0)
(3 2.33936e-15 0)
(3 1.96292e-15 0)
(3 1.75968e-15 0)
(3 1.64033e-15 0)
(3 4.43747e-16 0)
(3 -9.84359e-16 0)
(3 -1.41709e-15 0)
(3 -1.4609e-15 0)
(3 -1.07208e-15 0)
(3 -1.21495e-15 0)
(3 -1.7006e-15 0)
(3 -1.80447e-15 0)
(3 -1.64891e-15 0)
(3 -8.43621e-16 0)
(3 -1.97233e-16 0)
(3 -8.79107e-17 0)
(3 2.37054e-16 0)
(3 -4.54052e-16 0)
(3 -2.13045e-15 0)
(3 -2.51407e-15 0)
(3 -1.14704e-15 0)
(3 2.98071e-16 0)
(3 4.05883e-16 0)
(3 2.32301e-16 0)
(3 9.10558e-16 0)
(3 1.81384e-15 0)
(3 2.68988e-15 0)
(3 2.06258e-15 0)
(3 1.86136e-15 0)
(3 1.6691e-15 0)
(3 1.29966e-15 0)
(2.89174 0.0150183 0)
(1.00927 0.0462046 0)
(0.759929 0.0506267 0)
(0.742273 0.0460961 0)
(0.725661 0.0439474 0)
(0.710151 0.042215 0)
(0.695091 0.0417595 0)
(0.680405 0.0427815 0)
(0.665456 0.0446596 0)
(0.649738 0.0464611 0)
(0.633364 0.0474627 0)
(0.617048 0.0475293 0)
(0.6015 0.0472117 0)
(0.586882 0.0472193 0)
(0.572848 0.0477544 0)
(0.558778 0.0485017 0)
(0.544046 0.0491313 0)
(0.528352 0.0496447 0)
(0.511877 0.0499708 0)
(0.49521 0.0502201 0)
(0.47886 0.0509491 0)
(0.462899 0.0521682 0)
(0.447147 0.052894 0)
(0.431567 0.0529998 0)
(0.415969 0.0534667 0)
(0.399994 0.0543426 0)
(0.383447 0.0550427 0)
(0.366458 0.055677 0)
(0.349281 0.0564502 0)
(0.332206 0.057202 0)
(0.315423 0.0578152 0)
(0.298917 0.0582439 0)
(0.282505 0.0585429 0)
(0.265912 0.0588803 0)
(0.24885 0.0593013 0)
(0.231153 0.0597559 0)
(0.212967 0.0603253 0)
(0.194676 0.061111 0)
(0.176639 0.0621032 0)
(0.159025 0.0631395 0)
(0.141793 0.0642816 0)
(0.124719 0.0658145 0)
(0.107466 0.0678209 0)
(0.089714 0.0699931 0)
(0.0712433 0.0720544 0)
(0.0518796 0.0742351 0)
(0.0316554 0.0755585 0)
(0.0107754 0.0772398 0)
(3 5.85541e-17 0)
(3 -6.79935e-17 0)
(3 -4.09416e-16 0)
(3 -5.57979e-16 0)
(3 -2.87232e-16 0)
(3 -7.49406e-17 0)
(3 -1.95612e-16 0)
(3 -2.34453e-16 0)
(3 -4.24035e-16 0)
(3 -6.99866e-16 0)
(3 -1.21677e-15 0)
(3 -1.23125e-15 0)
(3 -6.49288e-16 0)
(3 -2.23594e-16 0)
(3 5.13901e-16 0)
(3 1.20901e-15 0)
(3 2.02902e-15 0)
(3 2.20618e-15 0)
(3 2.3676e-15 0)
(3 2.6597e-15 0)
(3 2.18873e-15 0)
(3 1.02623e-15 0)
(3 1.02842e-15 0)
(3 5.45614e-16 0)
(3 -1.41535e-16 0)
(3 1.92452e-16 0)
(3 5.65466e-16 0)
(3 1.07573e-16 0)
(3 -4.75962e-16 0)
(3 -1.50901e-15 0)
(3 -1.39606e-15 0)
(3 -1.27378e-15 0)
(3 -9.92216e-16 0)
(3 -6.56913e-16 0)
(3 -1.40463e-16 0)
(3 -3.13184e-16 0)
(3 -6.196e-16 0)
(3 -4.12984e-16 0)
(3 7.30086e-17 0)
(3 3.15206e-16 0)
(3 3.36271e-16 0)
(3 8.08032e-16 0)
(3 1.79286e-15 0)
(3 3.14072e-15 0)
(3 3.22488e-15 0)
(3 3.0462e-15 0)
(3 3.00265e-15 0)
(3 2.8768e-15 0)
(2.92643 0.0222478 0)
(1.0313 0.0716044 0)
(0.759706 0.0711309 0)
(0.744956 0.0637759 0)
(0.730041 0.0616873 0)
(0.715384 0.0604786 0)
(0.70045 0.0606859 0)
(0.685487 0.0623606 0)
(0.670175 0.0650646 0)
(0.654133 0.0674865 0)
(0.637495 0.0686174 0)
(0.621011 0.0683576 0)
(0.60542 0.0676482 0)
(0.590875 0.067606 0)
(0.577008 0.0685434 0)
(0.563103 0.0700026 0)
(0.54843 0.0713405 0)
(0.532659 0.0722663 0)
(0.516023 0.0725584 0)
(0.499182 0.0725654 0)
(0.482674 0.0733607 0)
(0.466606 0.0751479 0)
(0.45068 0.0764678 0)
(0.43484 0.0768105 0)
(0.418986 0.0774793 0)
(0.402793 0.0787339 0)
(0.386007 0.0798068 0)
(0.368738 0.0807737 0)
(0.351256 0.0819244 0)
(0.333832 0.0830871 0)
(0.316633 0.0841044 0)
(0.299642 0.0848734 0)
(0.2827 0.0854245 0)
(0.265557 0.0859736 0)
(0.247947 0.0865794 0)
(0.229717 0.0871501 0)
(0.210962 0.0877671 0)
(0.192003 0.0885601 0)
(0.173208 0.0895394 0)
(0.154835 0.0905183 0)
(0.136985 0.0916009 0)
(0.119568 0.0932188 0)
(0.102331 0.0955552 0)
(0.0849768 0.0983046 0)
(0.0671277 0.101005 0)
(0.0488127 0.104117 0)
(0.0297158 0.106148 0)
(0.0101125 0.108741 0)
(3 -4.6296e-17 0)
(3 4.60095e-17 0)
(3 -1.27289e-16 0)
(3 -1.06606e-16 0)
(3 5.2719e-17 0)
(3 6.2614e-16 0)
(3 9.12149e-16 0)
(3 8.65523e-16 0)
(3 6.67842e-16 0)
(3 3.66916e-16 0)
(3 8.78718e-16 0)
(3 9.95716e-16 0)
(3 1.32485e-15 0)
(3 1.25137e-15 0)
(3 1.17012e-15 0)
(3 9.80304e-16 0)
(3 6.01722e-16 0)
(3 4.13803e-16 0)
(3 5.47611e-16 0)
(3 5.79874e-16 0)
(3 2.66116e-16 0)
(3 8.24686e-16 0)
(3 1.26479e-15 0)
(3 9.57844e-16 0)
(3 5.88573e-16 0)
(3 5.70911e-17 0)
(3 4.50529e-17 0)
(3 -3.67481e-16 0)
(3 -8.49557e-16 0)
(3 -1.06365e-15 0)
(3 -9.85626e-16 0)
(3 -7.68441e-16 0)
(3 -7.56201e-16 0)
(3 -6.78711e-16 0)
(3 -5.35267e-16 0)
(3 -3.64513e-17 0)
(3 2.00288e-16 0)
(3 4.42611e-16 0)
(3 8.38337e-16 0)
(3 1.70692e-15 0)
(3 1.87556e-15 0)
(3 1.32784e-15 0)
(3 9.57293e-16 0)
(3 7.34135e-16 0)
(3 7.3142e-16 0)
(3 7.02305e-16 0)
(3 1.64823e-15 0)
(3 2.32435e-15 0)
(2.96673 0.00759175 0)
(1.06129 0.100656 0)
(0.766719 0.0884979 0)
(0.753559 0.0789074 0)
(0.739607 0.0781229 0)
(0.725218 0.0783276 0)
(0.710382 0.0799613 0)
(0.695314 0.0829002 0)
(0.679832 0.0864435 0)
(0.663603 0.0892499 0)
(0.646764 0.0903295 0)
(0.63006 0.0894832 0)
(0.614277 0.0880868 0)
(0.599636 0.0878187 0)
(0.585845 0.0891727 0)
(0.572167 0.0915409 0)
(0.557742 0.0938871 0)
(0.542137 0.095438 0)
(0.52557 0.0956662 0)
(0.508742 0.0952111 0)
(0.492194 0.0958681 0)
(0.476169 0.0982102 0)
(0.460273 0.100343 0)
(0.44437 0.101101 0)
(0.428455 0.101991 0)
(0.412243 0.103632 0)
(0.395422 0.105137 0)
(0.378076 0.106476 0)
(0.360496 0.10803 0)
(0.342941 0.109671 0)
(0.325545 0.111225 0)
(0.308279 0.112522 0)
(0.290998 0.113541 0)
(0.273487 0.114535 0)
(0.255502 0.11557 0)
(0.236875 0.116489 0)
(0.217629 0.117356 0)
(0.197978 0.118339 0)
(0.17824 0.119477 0)
(0.158721 0.120539 0)
(0.139652 0.1216 0)
(0.121094 0.123166 0)
(0.102916 0.125492 0)
(0.0849078 0.128353 0)
(0.0666157 0.131151 0)
(0.0482322 0.134684 0)
(0.0292326 0.137089 0)
(0.00993023 0.140352 0)
(3 2.37865e-16 0)
(3 1.04627e-15 0)
(3 1.40387e-15 0)
(3 1.85424e-15 0)
(3 2.11327e-15 0)
(3 2.3967e-15 0)
(3 2.36159e-15 0)
(3 2.20632e-15 0)
(3 2.22622e-15 0)
(3 2.36841e-15 0)
(3 1.22872e-15 0)
(3 7.2563e-16 0)
(3 3.16775e-16 0)
(3 2.46096e-16 0)
(3 -2.96828e-16 0)
(3 -1.17107e-15 0)
(3 -1.30094e-15 0)
(3 -1.02998e-15 0)
(3 -8.72121e-16 0)
(3 -9.99928e-16 0)
(3 -6.31398e-16 0)
(3 -3.2075e-16 0)
(3 -8.8312e-16 0)
(3 -9.86689e-16 0)
(3 -5.04612e-16 0)
(3 -5.63194e-16 0)
(3 -9.3016e-16 0)
(3 -1.19934e-15 0)
(3 -1.57576e-15 0)
(3 -1.83285e-15 0)
(3 -1.64012e-15 0)
(3 -9.41677e-16 0)
(3 -5.95543e-16 0)
(3 -3.45891e-16 0)
(3 -4.34e-16 0)
(3 -1.45046e-16 0)
(3 -5.72027e-17 0)
(3 -2.64185e-16 0)
(3 -4.60372e-16 0)
(3 6.71844e-17 0)
(3 7.55188e-16 0)
(3 1.24354e-15 0)
(3 4.72054e-16 0)
(3 1.97481e-16 0)
(3 -4.4367e-18 0)
(3 2.38761e-16 0)
(3 1.15691e-15 0)
(3 8.36077e-16 0)
(2.99994 0.00180369 0)
(1.14146 0.11639 0)
(0.774879 0.102977 0)
(0.755393 0.0974116 0)
(0.74039 0.0986244 0)
(0.724835 0.0998412 0)
(0.709717 0.102226 0)
(0.694962 0.105788 0)
(0.680297 0.109797 0)
(0.665157 0.112763 0)
(0.649431 0.113604 0)
(0.633604 0.112242 0)
(0.618407 0.110109 0)
(0.60418 0.109415 0)
(0.590841 0.111052 0)
(0.577718 0.11436 0)
(0.563807 0.117937 0)
(0.548496 0.120406 0)
(0.531982 0.120777 0)
(0.515034 0.119876 0)
(0.498211 0.120291 0)
(0.481999 0.123123 0)
(0.466025 0.126187 0)
(0.450007 0.127488 0)
(0.434031 0.12857 0)
(0.417852 0.130547 0)
(0.401096 0.132508 0)
(0.383793 0.134248 0)
(0.366241 0.136217 0)
(0.348676 0.138373 0)
(0.331192 0.140541 0)
(0.313732 0.142476 0)
(0.296167 0.144079 0)
(0.278346 0.145616 0)
(0.260086 0.147175 0)
(0.241233 0.148542 0)
(0.221768 0.149741 0)
(0.201809 0.150964 0)
(0.181598 0.152286 0)
(0.16144 0.153447 0)
(0.141643 0.15446 0)
(0.122379 0.155884 0)
(0.103601 0.158019 0)
(0.0851599 0.160753 0)
(0.0665183 0.163338 0)
(0.048042 0.166991 0)
(0.0290263 0.169527 0)
(0.00985566 0.173259 0)
(3 9.00173e-17 0)
(3 3.55255e-16 0)
(3 7.74208e-16 0)
(3 1.30328e-15 0)
(3 1.66512e-15 0)
(3 1.62156e-15 0)
(3 1.5574e-15 0)
(3 1.77102e-15 0)
(3 1.94346e-15 0)
(3 1.86325e-15 0)
(3 1.42192e-15 0)
(3 9.52497e-16 0)
(3 4.0793e-17 0)
(3 -1.05797e-15 0)
(3 -1.41518e-15 0)
(3 -1.54232e-15 0)
(3 -1.29859e-15 0)
(3 -1.06998e-15 0)
(3 -1.4264e-15 0)
(3 -2.18743e-15 0)
(3 -1.68746e-15 0)
(3 -1.74713e-15 0)
(3 -1.62853e-15 0)
(3 -1.4603e-15 0)
(3 -1.59258e-15 0)
(3 -2.15138e-15 0)
(3 -2.70065e-15 0)
(3 -2.5134e-15 0)
(3 -2.49897e-15 0)
(3 -2.91858e-15 0)
(3 -2.86561e-15 0)
(3 -3.34623e-15 0)
(3 -2.26195e-15 0)
(3 -1.80799e-15 0)
(3 -9.45193e-16 0)
(3 -1.09496e-15 0)
(3 3.30292e-16 0)
(3 7.2692e-16 0)
(3 6.65635e-16 0)
(3 -3.73306e-16 0)
(3 -6.32706e-16 0)
(3 -3.06208e-16 0)
(3 -4.16801e-16 0)
(3 -9.05364e-16 0)
(3 -1.16996e-15 0)
(3 -5.08123e-16 0)
(3 1.87433e-16 0)
(3 -3.61392e-16 0)
(3.00001 4.49526e-06 0)
(1.27551 0.14397 0)
(0.779096 0.126958 0)
(0.751599 0.120658 0)
(0.735554 0.12021 0)
(0.719674 0.120845 0)
(0.704924 0.123159 0)
(0.690932 0.127002 0)
(0.677236 0.131407 0)
(0.663024 0.134763 0)
(0.647925 0.136065 0)
(0.632227 0.135008 0)
(0.616774 0.132609 0)
(0.602158 0.131395 0)
(0.588619 0.133055 0)
(0.575797 0.1372 0)
(0.562669 0.142147 0)
(0.548317 0.145797 0)
(0.532746 0.14659 0)
(0.516695 0.145327 0)
(0.500578 0.145387 0)
(0.48506 0.148551 0)
(0.469837 0.152585 0)
(0.454348 0.154614 0)
(0.438783 0.155939 0)
(0.422988 0.158275 0)
(0.406588 0.160816 0)
(0.389555 0.163096 0)
(0.372227 0.165573 0)
(0.354859 0.168309 0)
(0.337531 0.171153 0)
(0.320154 0.173805 0)
(0.302589 0.176081 0)
(0.284733 0.178255 0)
(0.266459 0.180457 0)
(0.247628 0.18242 0)
(0.228191 0.184104 0)
(0.208192 0.185703 0)
(0.187776 0.187341 0)
(0.167186 0.188749 0)
(0.146753 0.189847 0)
(0.12674 0.191218 0)
(0.107179 0.193159 0)
(0.0879831 0.195714 0)
(0.0685923 0.197975 0)
(0.0494706 0.2016 0)
(0.0298402 0.204128 0)
(0.0101507 0.208213 0)
(3 -5.99687e-17 0)
(3 -1.7223e-16 0)
(3 -3.8402e-16 0)
(3 -6.71066e-16 0)
(3 -5.90266e-16 0)
(3 -5.67949e-16 0)
(3 -5.45462e-16 0)
(3 -1.92953e-17 0)
(3 1.34775e-16 0)
(3 2.05905e-16 0)
(3 2.87556e-16 0)
(3 -2.67376e-16 0)
(3 -5.72688e-16 0)
(3 -9.18993e-16 0)
(3 -8.81445e-16 0)
(3 -8.32889e-16 0)
(3 -1.08986e-15 0)
(3 -1.67168e-15 0)
(3 -1.90912e-15 0)
(3 -2.91861e-15 0)
(3 -3.17147e-15 0)
(3 -2.77577e-15 0)
(3 -1.18231e-15 0)
(3 -1.10586e-15 0)
(3 -1.40767e-15 0)
(3 -1.66836e-15 0)
(3 -1.81748e-15 0)
(3 -2.1558e-15 0)
(3 -1.86874e-15 0)
(3 -1.35918e-15 0)
(3 -1.90664e-15 0)
(3 -3.70873e-15 0)
(3 -3.83153e-15 0)
(3 -3.28716e-15 0)
(3 -2.02604e-15 0)
(3 -1.32631e-15 0)
(3 -2.15149e-16 0)
(3 1.56854e-15 0)
(3 1.74763e-15 0)
(3 1.07073e-15 0)
(3 1.58396e-16 0)
(3 -9.50962e-16 0)
(3 -1.11781e-15 0)
(3 -1.42216e-15 0)
(3 -1.2117e-15 0)
(3 -9.96203e-16 0)
(3 -7.4899e-16 0)
(3 -1.0957e-15 0)
(3 1.05136e-08 0)
(1.49747 0.169844 0)
(0.798522 0.151051 0)
(0.75611 0.149619 0)
(0.738001 0.14537 0)
(0.720481 0.144263 0)
(0.704899 0.145658 0)
(0.690611 0.149139 0)
(0.677075 0.153636 0)
(0.663193 0.157525 0)
(0.648329 0.159771 0)
(0.632498 0.159602 0)
(0.616578 0.157296 0)
(0.601388 0.155196 0)
(0.587365 0.155949 0)
(0.574591 0.159958 0)
(0.562262 0.165646 0)
(0.549027 0.17035 0)
(0.534472 0.171888 0)
(0.519283 0.170579 0)
(0.503816 0.170374 0)
(0.488919 0.173847 0)
(0.474519 0.178986 0)
(0.459681 0.182109 0)
(0.444698 0.183852 0)
(0.429574 0.186584 0)
(0.413916 0.189796 0)
(0.39755 0.19273 0)
(0.380785 0.195778 0)
(0.363871 0.199137 0)
(0.346872 0.202731 0)
(0.329664 0.206236 0)
(0.312081 0.209383 0)
(0.29405 0.212418 0)
(0.275523 0.215515 0)
(0.25641 0.218362 0)
(0.236683 0.220823 0)
(0.216364 0.223057 0)
(0.195538 0.225225 0)
(0.174368 0.227079 0)
(0.153155 0.228439 0)
(0.132228 0.2299 0)
(0.111697 0.231728 0)
(0.0915468 0.23414 0)
(0.0712584 0.23607 0)
(0.0513117 0.239597 0)
(0.030895 0.242029 0)
(0.010525 0.246389 0)
(3 -7.22789e-17 0)
(3 -2.82218e-16 0)
(3 -4.09677e-16 0)
(3 -7.69338e-16 0)
(3 -1.34993e-15 0)
(3 -1.62446e-15 0)
(3 -1.29434e-15 0)
(3 -9.02579e-16 0)
(3 -1.0017e-15 0)
(3 -1.09046e-15 0)
(3 -1.0961e-15 0)
(3 -1.28144e-15 0)
(3 -1.28094e-15 0)
(3 -1.31239e-15 0)
(3 -1.61421e-15 0)
(3 -1.49136e-15 0)
(3 -1.51658e-15 0)
(3 -1.90771e-15 0)
(3 -2.72363e-15 0)
(3 -2.69696e-15 0)
(3 -2.51368e-15 0)
(3 -2.30446e-15 0)
(3 -1.31674e-15 0)
(3 -5.51261e-16 0)
(3 -5.23823e-16 0)
(3 -7.27078e-16 0)
(3 -9.33865e-16 0)
(3 -1.36822e-15 0)
(3 -1.30656e-15 0)
(3 -1.06319e-15 0)
(3 -9.11378e-16 0)
(3 -1.85726e-15 0)
(3 -3.4361e-15 0)
(3 -3.83771e-15 0)
(3 -3.68808e-15 0)
(3 -2.79567e-15 0)
(3 -1.81299e-15 0)
(3 -9.96808e-16 0)
(3 1.47336e-16 0)
(3 1.55721e-15 0)
(3 1.33873e-15 0)
(3 2.89234e-16 0)
(3 -4.54094e-17 0)
(3 -4.47984e-16 0)
(3 -7.57076e-16 0)
(3 -9.1443e-16 0)
(3 -6.07279e-16 0)
(3 -1.02555e-15 0)
(3 2.20445e-11 0)
(1.82534 0.188695 0)
(0.828874 0.178875 0)
(0.759969 0.184291 0)
(0.741733 0.17465 0)
(0.722562 0.171037 0)
(0.705793 0.170648 0)
(0.690708 0.172923 0)
(0.676894 0.176875 0)
(0.663211 0.181386 0)
(0.648622 0.184968 0)
(0.6328 0.186206 0)
(0.616478 0.184585 0)
(0.600673 0.181742 0)
(0.585911 0.180886 0)
(0.572523 0.183697 0)
(0.560219 0.189337 0)
(0.547497 0.194978 0)
(0.533349 0.19767 0)
(0.518359 0.19672 0)
(0.503009 0.196123 0)
(0.488224 0.199535 0)
(0.474411 0.205587 0)
(0.460229 0.209939 0)
(0.445899 0.212126 0)
(0.431638 0.215178 0)
(0.41707 0.219138 0)
(0.401794 0.222943 0)
(0.386028 0.226765 0)
(0.370029 0.230915 0)
(0.353873 0.23541 0)
(0.337426 0.239936 0)
(0.320475 0.244142 0)
(0.302945 0.248213 0)
(0.284827 0.25238 0)
(0.266057 0.256321 0)
(0.2466 0.259796 0)
(0.226457 0.262902 0)
(0.205658 0.265832 0)
(0.184273 0.268391 0)
(0.162513 0.270293 0)
(0.140716 0.272132 0)
(0.119062 0.274112 0)
(0.0976085 0.276592 0)
(0.076052 0.278342 0)
(0.054679 0.281842 0)
(0.0328773 0.284176 0)
(0.0112438 0.28881 0)
(3 -8.25686e-17 0)
(3 -4.1204e-16 0)
(3 -5.77872e-16 0)
(3 -5.46414e-16 0)
(3 -6.85985e-16 0)
(3 -7.48003e-16 0)
(3 -8.15473e-16 0)
(3 -7.17643e-16 0)
(3 -1.1749e-15 0)
(3 -1.21242e-15 0)
(3 -1.14031e-15 0)
(3 -5.01558e-16 0)
(3 -4.34409e-17 0)
(3 6.18179e-16 0)
(3 2.02695e-16 0)
(3 -5.18182e-16 0)
(3 -6.17311e-16 0)
(3 -4.56309e-16 0)
(3 -4.86392e-16 0)
(3 -7.3657e-16 0)
(3 -1.00895e-15 0)
(3 -1.32554e-15 0)
(3 -1.90793e-15 0)
(3 -1.62986e-15 0)
(3 -1.13212e-15 0)
(3 -6.96451e-16 0)
(3 -2.65638e-16 0)
(3 2.38852e-17 0)
(3 1.66396e-16 0)
(3 4.36074e-17 0)
(3 -1.81146e-17 0)
(3 1.81094e-16 0)
(3 2.90245e-16 0)
(3 1.17875e-16 0)
(3 -2.23897e-16 0)
(3 -2.46394e-16 0)
(3 -1.31643e-16 0)
(3 -1.47472e-15 0)
(3 -1.26381e-15 0)
(3 -7.62954e-16 0)
(3 -5.5719e-16 0)
(3 -7.00491e-16 0)
(3 -1.18652e-15 0)
(3 -1.47048e-15 0)
(3 -1.82667e-15 0)
(3 -2.01338e-15 0)
(3 -1.20211e-15 0)
(3 -1.44439e-15 0)
(3 4.69668e-14 0)
(2.26894 0.189073 0)
(0.878265 0.217066 0)
(0.764298 0.215916 0)
(0.750101 0.205785 0)
(0.732475 0.201416 0)
(0.716439 0.199199 0)
(0.701231 0.199886 0)
(0.687 0.202891 0)
(0.673203 0.207598 0)
(0.658821 0.212387 0)
(0.643165 0.215251 0)
(0.626583 0.214929 0)
(0.6101 0.212061 0)
(0.594376 0.209696 0)
(0.579765 0.210795 0)
(0.566535 0.215748 0)
(0.553576 0.222087 0)
(0.539227 0.226198 0)
(0.523683 0.226053 0)
(0.507717 0.224823 0)
(0.492135 0.227394 0)
(0.477985 0.23363 0)
(0.463737 0.238955 0)
(0.449244 0.241437 0)
(0.434939 0.244416 0)
(0.42063 0.248837 0)
(0.405764 0.25347 0)
(0.390408 0.258071 0)
(0.374857 0.262995 0)
(0.359243 0.268391 0)
(0.343439 0.274008 0)
(0.327153 0.279442 0)
(0.310223 0.284787 0)
(0.292611 0.290332 0)
(0.27423 0.295795 0)
(0.255028 0.300821 0)
(0.235011 0.305384 0)
(0.214223 0.309642 0)
(0.192699 0.313447 0)
(0.170547 0.316385 0)
(0.148072 0.319019 0)
(0.125462 0.321483 0)
(0.102857 0.32428 0)
(0.0801053 0.325963 0)
(0.0574601 0.329456 0)
(0.0344778 0.331656 0)
(0.0118286 0.336557 0)
(3 -1.29896e-16 0)
(3 -2.62861e-16 0)
(3 -5.12617e-16 0)
(3 -5.35503e-16 0)
(3 -5.6365e-16 0)
(3 -6.68073e-16 0)
(3 -1.19732e-15 0)
(3 -1.43843e-15 0)
(3 -1.53249e-15 0)
(3 -1.34319e-15 0)
(3 -1.07597e-15 0)
(3 -9.62804e-16 0)
(3 -9.52838e-16 0)
(3 -8.87204e-16 0)
(3 -6.36409e-16 0)
(3 -5.6604e-16 0)
(3 -3.08162e-16 0)
(3 5.76957e-16 0)
(3 9.22195e-16 0)
(3 3.38227e-16 0)
(3 -3.00114e-16 0)
(3 -1.38763e-15 0)
(3 -1.98591e-15 0)
(3 -2.21854e-15 0)
(3 -2.36333e-15 0)
(3 -1.82104e-15 0)
(3 -2.40965e-16 0)
(3 7.30344e-16 0)
(3 1.00221e-15 0)
(3 1.12356e-15 0)
(3 1.10788e-15 0)
(3 7.03989e-16 0)
(3 1.56746e-15 0)
(3 1.89298e-15 0)
(3 5.78051e-16 0)
(3 3.39976e-16 0)
(3 6.4879e-16 0)
(3 4.63186e-16 0)
(3 -1.11196e-15 0)
(3 -1.402e-15 0)
(3 -1.29153e-15 0)
(3 -2.03941e-15 0)
(3 -2.40153e-15 0)
(3 -2.28703e-15 0)
(3 -1.7174e-15 0)
(3 -9.19418e-16 0)
(3 -5.37263e-16 0)
(3 -1.1717e-16 0)
(3 -2.40022e-15 0)
(2.77908 0.149428 0)
(0.992739 0.255818 0)
(0.788078 0.23648 0)
(0.781447 0.22561 0)
(0.763254 0.223786 0)
(0.746632 0.222505 0)
(0.72981 0.223737 0)
(0.713822 0.227024 0)
(0.698558 0.232095 0)
(0.683433 0.238077 0)
(0.667558 0.242911 0)
(0.650732 0.24476 0)
(0.633662 0.243216 0)
(0.617096 0.240387 0)
(0.601241 0.239941 0)
(0.586588 0.24393 0)
(0.572888 0.250927 0)
(0.558202 0.25697 0)
(0.541928 0.258626 0)
(0.525018 0.257226 0)
(0.508089 0.258592 0)
(0.492694 0.264504 0)
(0.477693 0.270818 0)
(0.462209 0.273976 0)
(0.446814 0.276786 0)
(0.431631 0.281342 0)
(0.416182 0.286589 0)
(0.400308 0.291774 0)
(0.384312 0.297176 0)
(0.368423 0.303139 0)
(0.352585 0.309562 0)
(0.33649 0.31605 0)
(0.319886 0.322581 0)
(0.302699 0.329471 0)
(0.284813 0.336522 0)
(0.266128 0.34329 0)
(0.246617 0.349606 0)
(0.226286 0.355556 0)
(0.205096 0.361084 0)
(0.182941 0.365682 0)
(0.159984 0.369818 0)
(0.136322 0.373534 0)
(0.112168 0.377397 0)
(0.0874551 0.379557 0)
(0.062754 0.383341 0)
(0.0376048 0.385556 0)
(0.012925 0.390813 0)
(3 -4.22708e-17 0)
(3 -1.77829e-17 0)
(3 -2.38948e-16 0)
(3 -5.31028e-16 0)
(3 -5.05498e-16 0)
(3 -3.36252e-16 0)
(3 -2.65886e-16 0)
(3 -3.47328e-16 0)
(3 7.17746e-18 0)
(3 3.10733e-16 0)
(3 6.15742e-16 0)
(3 3.85315e-16 0)
(3 -1.27591e-16 0)
(3 -5.25732e-16 0)
(3 -4.60336e-16 0)
(3 -2.44778e-16 0)
(3 -7.79656e-17 0)
(3 1.50502e-18 0)
(3 3.58779e-16 0)
(3 4.76955e-16 0)
(3 -1.89836e-16 0)
(3 -5.4216e-16 0)
(3 -1.63786e-15 0)
(3 -2.53897e-15 0)
(3 -2.35903e-15 0)
(3 -1.41296e-15 0)
(3 -1.02116e-15 0)
(3 -4.76019e-16 0)
(3 -7.93192e-17 0)
(3 -1.46062e-17 0)
(3 -5.95143e-17 0)
(3 1.6824e-16 0)
(3 1.9996e-16 0)
(3 7.728e-17 0)
(3 -2.63874e-17 0)
(3 -3.09482e-16 0)
(3 -7.81304e-16 0)
(3 -1.05474e-15 0)
(3 -9.17553e-16 0)
(3 -1.31018e-15 0)
(3 -1.45159e-15 0)
(3 -5.07123e-16 0)
(3 6.5014e-16 0)
(3 8.09677e-16 0)
(3 1.033e-15 0)
(3 6.59958e-17 0)
(3 -4.31263e-16 0)
(3 -7.75625e-16 0)
(3 -8.61034e-16 0)
(3.01528 0.00631013 0)
(1.19182 0.276787 0)
(0.808579 0.233818 0)
(0.798012 0.25141 0)
(0.781406 0.257476 0)
(0.764732 0.258301 0)
(0.748314 0.25871 0)
(0.732949 0.259992 0)
(0.718564 0.26297 0)
(0.70485 0.26752 0)
(0.690991 0.272053 0)
(0.676276 0.274717 0)
(0.660801 0.274515 0)
(0.645177 0.27222 0)
(0.62967 0.270764 0)
(0.61468 0.273265 0)
(0.600803 0.279935 0)
(0.586644 0.287454 0)
(0.57067 0.291609 0)
(0.553522 0.291208 0)
(0.535873 0.29145 0)
(0.519216 0.296494 0)
(0.503504 0.303796 0)
(0.487077 0.308617 0)
(0.470377 0.311768 0)
(0.45388 0.316397 0)
(0.437389 0.322241 0)
(0.420547 0.32816 0)
(0.403534 0.334109 0)
(0.386641 0.340575 0)
(0.369924 0.347702 0)
(0.35311 0.355171 0)
(0.335872 0.362839 0)
(0.318077 0.371045 0)
(0.299571 0.379774 0)
(0.280208 0.388596 0)
(0.25996 0.397254 0)
(0.238832 0.405684 0)
(0.21686 0.413867 0)
(0.193881 0.421116 0)
(0.170034 0.427631 0)
(0.145364 0.433321 0)
(0.120038 0.438881 0)
(0.0936428 0.442022 0)
(0.0670722 0.446184 0)
(0.0400142 0.448261 0)
(0.0136709 0.453686 0)
(3 1.39351e-16 0)
(3 4.31612e-16 0)
(3 3.16809e-16 0)
(3 1.18597e-16 0)
(3 6.27369e-17 0)
(3 -8.02184e-17 0)
(3 4.56717e-16 0)
(3 1.07324e-15 0)
(3 1.34388e-15 0)
(3 1.55599e-15 0)
(3 1.74071e-15 0)
(3 1.65432e-15 0)
(3 1.49149e-15 0)
(3 1.55402e-15 0)
(3 1.65373e-15 0)
(3 1.65041e-15 0)
(3 1.37116e-15 0)
(3 9.07303e-16 0)
(3 -3.23143e-17 0)
(3 -1.09558e-16 0)
(3 -3.21315e-16 0)
(3 -2.52067e-16 0)
(3 -4.40216e-16 0)
(3 -3.79803e-16 0)
(3 -2.14702e-16 0)
(3 -2.39538e-16 0)
(3 -4.34288e-16 0)
(3 -8.1333e-16 0)
(3 -1.41164e-15 0)
(3 -1.58578e-15 0)
(3 -7.27985e-16 0)
(3 -2.78565e-16 0)
(3 -5.74464e-16 0)
(3 -1.03297e-15 0)
(3 -2.01157e-15 0)
(3 -2.28763e-15 0)
(3 -1.89184e-15 0)
(3 -1.16044e-15 0)
(3 -7.19046e-16 0)
(3 -4.97785e-16 0)
(3 -6.01638e-17 0)
(3 6.59631e-16 0)
(3 1.25899e-15 0)
(3 1.20458e-15 0)
(3 4.51666e-16 0)
(3 2.61543e-16 0)
(3 -6.10655e-16 0)
(3 -1.25419e-15 0)
(3 -1.09554e-15 0)
(3.00015 7.84854e-06 0)
(1.64376 0.310605 0)
(0.828004 0.274386 0)
(0.780296 0.280707 0)
(0.767029 0.287544 0)
(0.75274 0.287953 0)
(0.739155 0.288112 0)
(0.726355 0.288748 0)
(0.714329 0.290967 0)
(0.702782 0.295014 0)
(0.69117 0.300083 0)
(0.678806 0.304579 0)
(0.665511 0.306932 0)
(0.65177 0.306856 0)
(0.637946 0.306292 0)
(0.624189 0.30827 0)
(0.611231 0.314386 0)
(0.598816 0.322865 0)
(0.585 0.329331 0)
(0.5697 0.330877 0)
(0.553661 0.33082 0)
(0.537805 0.334576 0)
(0.523231 0.342009 0)
(0.50809 0.348541 0)
(0.492078 0.352428 0)
(0.475895 0.35683 0)
(0.459734 0.362784 0)
(0.443246 0.369291 0)
(0.42635 0.375826 0)
(0.4093 0.382772 0)
(0.39228 0.390489 0)
(0.375174 0.398857 0)
(0.357643 0.40758 0)
(0.339593 0.417029 0)
(0.32092 0.427307 0)
(0.301531 0.438085 0)
(0.281465 0.449061 0)
(0.260683 0.459928 0)
(0.239213 0.470675 0)
(0.216667 0.480558 0)
(0.192944 0.489718 0)
(0.167575 0.498131 0)
(0.140547 0.507044 0)
(0.110911 0.51394 0)
(0.0796976 0.520512 0)
(0.0474169 0.523489 0)
(0.0159355 0.528892 0)
(3 7.30417e-17 0)
(3 1.08706e-16 0)
(3 7.72429e-16 0)
(3 1.01295e-15 0)
(3 7.35934e-16 0)
(3 1.47817e-16 0)
(3 1.94385e-16 0)
(3 4.17249e-16 0)
(3 6.59361e-16 0)
(3 5.75707e-16 0)
(3 6.11628e-16 0)
(3 8.15255e-16 0)
(3 9.71734e-16 0)
(3 1.06769e-15 0)
(3 1.07414e-15 0)
(3 9.60741e-16 0)
(3 7.38502e-16 0)
(3 9.49288e-16 0)
(3 1.4491e-15 0)
(3 1.22628e-15 0)
(3 4.5099e-16 0)
(3 4.15109e-16 0)
(3 9.7322e-16 0)
(3 1.27785e-15 0)
(3 9.17692e-16 0)
(3 1.16541e-16 0)
(3 -1.6625e-15 0)
(3 -1.95672e-15 0)
(3 -2.11167e-15 0)
(3 -1.9251e-15 0)
(3 -1.83136e-15 0)
(3 -1.73221e-15 0)
(3 -1.21873e-15 0)
(3 -1.30858e-15 0)
(3 -1.83789e-15 0)
(3 -1.87919e-15 0)
(3 -1.42326e-15 0)
(3 -1.00106e-15 0)
(3 -1.88315e-16 0)
(3 2.89757e-16 0)
(3 4.64477e-16 0)
(3 -1.97835e-16 0)
(3 -5.14899e-16 0)
(3 -3.93098e-16 0)
(3 -3.85932e-16 0)
(3 -1.18997e-15 0)
(3 -1.57749e-15 0)
(3 -2.00586e-15 0)
(3 -2.08047e-15 0)
(3 1.41377e-08 0)
(2.501 0.256728 0)
(0.943971 0.332415 0)
(0.795854 0.319206 0)
(0.782779 0.314098 0)
(0.766167 0.317197 0)
(0.752119 0.317249 0)
(0.739008 0.317373 0)
(0.72674 0.318647 0)
(0.715015 0.321862 0)
(0.703451 0.326737 0)
(0.691531 0.331993 0)
(0.678961 0.335955 0)
(0.665974 0.337684 0)
(0.652983 0.338212 0)
(0.640056 0.340033 0)
(0.627629 0.345369 0)
(0.616158 0.353907 0)
(0.604163 0.362131 0)
(0.590627 0.366263 0)
(0.576231 0.367184 0)
(0.561469 0.370189 0)
(0.54776 0.377445 0)
(0.534212 0.386023 0)
(0.519333 0.392309 0)
(0.503729 0.397685 0)
(0.488001 0.404331 0)
(0.472125 0.412047 0)
(0.455837 0.419991 0)
(0.439189 0.428137 0)
(0.422266 0.436835 0)
(0.405195 0.446472 0)
(0.387469 0.456583 0)
(0.369236 0.467477 0)
(0.35026 0.479416 0)
(0.330515 0.492303 0)
(0.30992 0.505989 0)
(0.288179 0.520144 0)
(0.265358 0.534915 0)
(0.240876 0.549749 0)
(0.214462 0.564616 0)
(0.185759 0.579152 0)
(0.155506 0.594167 0)
(0.123651 0.607495 0)
(0.0902829 0.617711 0)
(0.0551672 0.622778 0)
(0.0176324 0.626429 0)
(3 -5.18652e-18 0)
(3 -3.64651e-18 0)
(3 2.97856e-16 0)
(3 5.26387e-16 0)
(3 9.28343e-16 0)
(3 9.81601e-16 0)
(3 7.59225e-16 0)
(3 2.68749e-16 0)
(3 1.94248e-16 0)
(3 2.69947e-17 0)
(3 -4.73825e-16 0)
(3 -6.80698e-16 0)
(3 -2.53782e-16 0)
(3 2.13881e-17 0)
(3 -7.27564e-17 0)
(3 -2.50657e-16 0)
(3 -4.36851e-16 0)
(3 -3.10525e-16 0)
(3 -1.51026e-16 0)
(3 -1.56389e-16 0)
(3 1.71646e-16 0)
(3 2.50649e-16 0)
(3 4.97149e-16 0)
(3 3.46088e-17 0)
(3 -3.14007e-16 0)
(3 -6.95005e-16 0)
(3 -1.16647e-15 0)
(3 -1.20704e-15 0)
(3 -2.48081e-16 0)
(3 8.72354e-17 0)
(3 2.37406e-16 0)
(3 3.6191e-16 0)
(3 6.64751e-16 0)
(3 9.55876e-16 0)
(3 1.2845e-15 0)
(3 1.25897e-15 0)
(3 1.37416e-15 0)
(3 1.12336e-15 0)
(3 4.78234e-16 0)
(3 3.72885e-16 0)
(3 1.23696e-16 0)
(3 -5.26205e-16 0)
(3 -1.09137e-15 0)
(3 -1.3432e-15 0)
(3 -1.4787e-15 0)
(3 -1.84461e-15 0)
(3 -1.96862e-15 0)
(3 -2.80632e-15 0)
(3 -1.15411e-15 0)
(3 -2.54411e-09 0)
(3.02494 0.0120814 0)
(1.31579 0.378336 0)
(0.843691 0.326948 0)
(0.818881 0.340548 0)
(0.802935 0.342134 0)
(0.788202 0.341376 0)
(0.774027 0.34148 0)
(0.760156 0.342873 0)
(0.746745 0.346168 0)
(0.733711 0.35131 0)
(0.720713 0.357199 0)
(0.707491 0.362381 0)
(0.694059 0.365833 0)
(0.680715 0.367846 0)
(0.667612 0.370041 0)
(0.65492 0.374686 0)
(0.643193 0.382631 0)
(0.631826 0.391736 0)
(0.619387 0.398441 0)
(0.605947 0.401587 0)
(0.592057 0.404688 0)
(0.578733 0.411426 0)
(0.566345 0.421217 0)
(0.55309 0.430587 0)
(0.538583 0.438061 0)
(0.52369 0.445758 0)
(0.508807 0.454605 0)
(0.493802 0.464192 0)
(0.478408 0.474125 0)
(0.462487 0.484511 0)
(0.446211 0.495894 0)
(0.429198 0.508087 0)
(0.411338 0.52116 0)
(0.392749 0.535557 0)
(0.373426 0.551365 0)
(0.353434 0.568681 0)
(0.332595 0.587344 0)
(0.310926 0.607448 0)
(0.288156 0.628546 0)
(0.263881 0.649803 0)
(0.237781 0.670039 0)
(0.209379 0.688271 0)
(0.178694 0.706057 0)
(0.141985 0.725855 0)
(0.0960091 0.748352 0)
(0.0364986 0.767853 0)
(3 2.84364e-17 0)
(3 -3.45717e-17 0)