/*--------------------------------*- C++ -*----------------------------------*\
  =========                 |
  \\      /  F ield         | OpenFOAM: The Open Source CFD Toolbox
   \\    /   O peration     | Website:  https://openfoam.org
    \\  /    A nd           | Version:  7
     \\/     M anipulation  |
\*---------------------------------------------------------------------------*/
FoamFile
{
    version     2.0;
    format      ascii;
    class       volScalarField;
    location    "31";
    object      p;
}
// * * * * * * * * * * * * * * * * * * * * * * * * * * * * * * * * * * * * * //

dimensions      [0 2 -2 0 0 0 0];

internalField   nonuniform List<scalar> 
16000
(
8.6924785e-06
-0.00013159548
-0.00044308807
-0.00084544814
-0.0012636594
-0.00165233
-0.0019805875
-0.0022295914
-0.0023887038
-0.0024522198
-0.0024171994
-0.0022821862
-0.0020466097
-0.0017107127
-0.0012758526
-0.00074503906
-0.00012358411
0.00058024514
0.0013546721
0.0021840437
0.0030487329
0.0039253798
0.0047875013
0.0056065067
0.0063530718
0.0069988176
0.007518188
0.0078903879
0.0081012193
0.0081446435
0.0080239034
0.0077521044
0.0073522372
0.0068567302
0.0063064346
0.0057488811
0.0052391342
0.004833489
0.0045936284
0.0045548739
0.00015330014
8.3911033e-06
-0.00024169367
-0.00055057371
-0.00087276897
-0.0011739695
-0.0014299302
-0.0016244713
-0.0017472327
-0.0017917713
-0.0017541464
-0.0016319949
-0.0014240631
-0.0011301194
-0.0007511542
-0.00028977218
0.0002493175
0.00085880343
0.0015283503
0.0022443234
0.0029897222
0.0037445201
0.0044860115
0.0051898412
0.0058311558
0.0063860567
0.0068332202
0.0071555473
0.0073417026
0.0073874003
0.0072963041
0.0070804358
0.0067600273
0.0063628476
0.0059230867
0.0054797225
0.0050739137
0.0047491213
0.0045505623
0.0045152008
0.00047195986
0.00025407706
-1.7582549e-06
-0.00028080429
-0.00056104806
-0.00081798562
-0.0010338278
-0.0011965165
-0.001297846
-0.0013322962
-0.0012961478
-0.0011868681
-0.0010028169
-0.00074324024
-0.00040848459
-3.6609528e-07
0.00047737905
0.0010186351
0.0016145097
0.0022530704
0.0029193127
0.0035952827
0.0042606205
0.00489333
0.0054708708
0.0059715091
0.0063758353
0.0066683171
0.0068387375
0.006883364
0.0068057225
0.0066168866
0.006335218
0.00598555
0.0055978826
0.0052056435
0.0048433951
0.0045453728
0.0043479413
0.0042806915
0.00089357745
0.00056231888
0.00026162731
-2.4156327e-05
-0.00029475819
-0.0005339073
-0.00073003851
-0.00087593694
-0.00096653116
-0.00099812663
-0.00096791025
-0.00087359475
-0.00071330782
-0.00048571125
-0.00019029739
0.00017219131
0.00059927611
0.0010862488
0.0016257348
0.0022073861
0.0028177713
0.0034404407
0.004056432
0.004644959
0.0051844618
0.0056539223
0.0060343655
0.0063104243
0.006471801
0.0065144467
0.0064413019
0.0062625011
0.0059950085
0.0056616893
0.0052898554
0.0049094215
0.0045510399
0.0042445941
0.0040166281
0.0038810477
0.0013443776
0.00088470969
0.00052155573
0.00021124219
-6.6465527e-05
-0.00030252386
-0.00049125701
-0.00063040208
-0.00071830176
-0.00075339116
-0.00073400863
-0.00065825279
-0.00052403976
-0.00032935853
-7.2675983e-05
0.00024655468
0.00062732981
0.0010665273
0.0015583919
0.0020941387
0.0026617428
0.0032459723
0.0038287474
0.0043898239
0.0049078209
0.0053615425
0.0057315122
0.0060015964
0.0061605534
0.0062033069
0.0061317485
0.0059549304
0.00568861
0.0053541925
0.0049771284
0.0045849959
0.00420609
0.0038675552
0.0035848701
0.003361238
0.0017712262
0.0011780984
0.0007434364
0.000397389
0.00010082809
-0.00014346174
-0.00033517297
-0.00047675776
-0.00056990557
-0.00061519153
-0.0006121269
-0.00055918718
-0.00045401663
-0.00029381555
-7.5863042e-05
0.00020186511
0.00054002594
0.00093723494
0.0013894434
0.0018894301
0.0024264771
0.0029863109
0.0035513514
0.0041013573
0.0046144419
0.0050684354
0.0054425009
0.0057188664
0.0058845028
0.0059325477
0.0058632556
0.0056842861
0.0054102437
0.0050615102
0.0046624578
0.0042394413
0.0038199171
0.0034304106
0.0030778615
0.0027505546
0.0021289195
0.0014039429
0.00089435624
0.00050612568
0.00018285575
-7.8122759e-05
-0.00028132662
-0.00043353721
-0.00053953671
-0.00060186843
-0.00062108248
-0.00059590558
-0.00052357504
-0.0004003489
-0.00022214524
1.472441e-05
0.00031276431
0.0006724932
0.0010916894
0.0015647481
0.0020822251
0.0026306631
0.0031927216
0.0037477619
0.0042728343
0.0047440874
0.0051384977
0.0054357675
0.0056201937
0.0056822948
0.0056199696
0.0054389799
0.0051526139
0.0047805052
0.0043466675
0.0038773302
0.0034005617
0.0029440626
0.0025078357
0.0020662894
0.0023788939
0.0015274898
0.00094341655
0.00051024138
0.0001556553
-0.00012790011
-0.00034929366
-0.00051921236
-0.00064518891
-0.00073145843
-0.00077937699
-0.00078771538
-0.00075310883
-0.0006706803
-0.00053478986
-0.00033988076
-8.1391359e-05
0.00024330902
0.00063401737
0.001086897
0.0015938637
0.0021422788
0.0027149288
0.0032905336
0.003844674
0.0043512217
0.0047841826
0.0051198
0.0053386943
0.0054277834
0.0053817305
0.0052037003
0.0049052599
0.0045053231
0.0040280921
0.0035007051
0.0029532616
0.0024163392
0.0018849313
0.0013224111
0.0024873423
0.0015170471
0.0008613164
0.00038285537
-5.4495533e-06
-0.00031567381
-0.00056065504
-0.00075458043
-0.00090736886
-0.0010246297
-0.0011082469
-0.0011567871
-0.0011660541
-0.0011298129
-0.0010406406
-0.00089087654
-0.00067365013
-0.00038394898
-1.9674503e-05
0.0004173822
0.00092073798
0.0014787518
0.0020743941
0.0026856618
0.0032864004
0.0038477202
0.0043399228
0.0047348132
0.0050081727
0.0051420936
0.0051268559
0.0049620768
0.0046569517
0.0042294443
0.003704255
0.0031103181
0.002481149
0.0018518946
0.0012139672
0.00052047918
0.0024237926
0.0013435353
0.00062049165
9.7922061e-05
-0.00032511398
-0.0006649626
-0.00093812469
-0.0011619236
-0.0013483173
-0.0015039736
-0.0016310206
-0.0017275654
-0.0017883418
-0.0018055218
-0.0017696513
-0.0016706932
-0.0014991615
-0.0012473151
-0.00091036562
-0.00048764261
1.6387321e-05
0.00059149916
0.0012210919
0.0018825605
0.0025479117
0.0031851206
0.0037601042
0.0042392195
0.0045920954
0.0047944883
0.004830769
0.0046956688
0.0043950251
0.0039453339
0.0033718437
0.0027059687
0.0019859494
0.0012532134
0.00049671286
-0.00034043025
0.002160468
0.00098032005
0.00019534442
-0.00036920974
-0.00082715559
-0.0011989329
-0.0015044566
-0.0017638683
-0.0019908566
-0.0021928626
-0.0023719978
-0.0025256721
-0.0026473244
-0.0027273033
-0.0027538674
-0.0027143006
-0.0025961367
-0.0023884713
-0.0020833205
-0.0016769815
-0.0011713008
-0.00057439553
9.8025188e-05
0.00082314958
0.0015712698
0.0023070092
0.0029912904
0.0035839908
0.0040471384
0.0043483608
0.0044641577
0.0043825087
0.0041043957
0.0036439169
0.0030266072
0.0022868156
0.0014687139
0.00062174827
-0.00026675024
-0.0012639216
0.0016721721
0.00040328345
-0.00043747725
-0.0010413141
-0.001533897
-0.0019396076
-0.0022815602
-0.0025824376
-0.0028573991
-0.0031144229
-0.0033553901
-0.0035768153
-0.0037706494
-0.0039252098
-0.0040262199
-0.0040579687
-0.0040046009
-0.0038515303
-0.003586945
-0.0032033399
-0.0026990032
-0.0020795426
-0.0013584796
-0.00055823202
0.00029018963
0.001148097
0.001970959
0.0027111585
0.0033215486
0.0037595531
0.0039913792
0.0039957628
0.0037666367
0.0033141432
0.0026633795
0.0018517973
0.00093060256
-4.0948389e-05
-0.0010765505
-0.0022543918
0.00093650564
-0.00040891115
-0.0012987057
-0.0019387769
-0.0024655153
-0.0029070878
-0.0032896103
-0.0036380646
-0.0039688716
-0.0042903725
-0.0046040675
-0.0049054386
-0.005184807
-0.0054282917
-0.0056188597
-0.0057374964
-0.005764528
-0.0056811079
-0.0054708519
-0.0051215661
-0.0046270114
-0.0039888251
-0.0032174957
-0.0023338968
-0.0013694807
-0.00036581865
0.00062694339
0.0015528178
0.0023538468
0.0029749008
0.0033689819
0.0035023895
0.0033589544
0.0029424321
0.0022760447
0.0014000728
0.00037372004
-0.00073205145
-0.0019315285
-0.0033151524
-6.570816e-05
-0.0014744212
-0.0024060047
-0.00307905
-0.0036393757
-0.0041187545
-0.0045461146
-0.0049485257
-0.0053435149
-0.0057396806
-0.0061380681
-0.0065330669
-0.0069133003
-0.0072625833
-0.0075609526
-0.0077858127
-0.0079132503
-0.0079195544
-0.0077829513
-0.0074855286
-0.0070153009
-0.0063683933
-0.0055508616
-0.0045805121
-0.0034879105
-0.0023165731
-0.0011219455
3.1079839e-05
0.0010722052
0.0019312102
0.0025444835
0.0028619116
0.0028531545
0.0025120261
0.0018574129
0.00093143674
-0.00019800461
-0.0014462256
-0.0028277261
-0.0044467023
-0.0013498864
-0.0028077618
-0.0037734924
-0.0044761019
-0.0050693756
-0.0055884789
-0.00606497
-0.0065278299
-0.0069955949
-0.0074770892
-0.0079729141
-0.0084763976
-0.0089744873
-0.0094486749
-0.0098759675
-0.01022997
-0.010482151
-0.010603348
-0.010565564
-0.010344049
-0.00991965
-0.0092813773
-0.0084289193
-0.0073750756
-0.0061476586
-0.0047905658
-0.0033635739
-0.001940428
-0.00060491509
0.00055515055
0.0014557446
0.0020255434
0.0022147873
0.0020023983
0.001399083
0.00044673729
-0.00077787622
-0.0021742756
-0.0037567617
-0.0056449373
-0.0029271229
-0.0044193472
-0.0054112921
-0.0061399121
-0.0067653374
-0.0073258773
-0.0078555481
-0.0083851085
-0.0089340755
-0.0095115514
-0.010117798
-0.01074521
-0.011379185
-0.011998977
-0.012578567
-0.013087635
-0.013492733
-0.013758729
-0.013850607
-0.013735659
-0.013386088
-0.012781967
-0.01191443
-0.010788873
-0.0094278893
-0.0078734628
-0.0061879052
-0.0044529182
-0.0027662099
-0.0012352958
3.1475014e-05
0.00093605627
0.0014027358
0.0013889043
0.0008914382
-5.161363e-05
-0.0013553711
-0.002901622
-0.0047039926
-0.0068991453
-0.0048036747
-0.0063151065
-0.007325175
-0.0080760658
-0.0087325021
-0.0093356591
-0.0099218598
-0.010523566
-0.011161327
-0.011844674
-0.012573734
-0.013340206
-0.01412817
-0.014914841
-0.015671299
-0.016363301
-0.01695231
-0.017396821
-0.017654113
-0.01768249
-0.017444065
-0.016908093
-0.016054802
-0.014879419
-0.013396278
-0.011642372
-0.0096797703
-0.0075961329
-0.0055024289
-0.0035271206
-0.001806436
-0.00047103956
0.00036965728
0.00064295648
0.0003239662
-0.00055889066
-0.0019148421
-0.0036065043
-0.0056463611
-0.0081896562
-0.0069805762
-0.0084962443
-0.0095163618
-0.010285515
-0.010971189
-0.011617132
-0.012261867
-0.012939563
-0.01367196
-0.014469276
-0.015331824
-0.016250952
-0.01720977
-0.01818377
-0.019141377
-0.020044573
-0.020849716
-0.0215087
-0.021970592
-0.022183849
-0.022099213
-0.021673341
-0.02087316
-0.019680812
-0.018098888
-0.016155566
-0.013908852
-0.011449042
-0.0088982323
-0.0064056763
-0.0041380382
-0.0022642853
-0.00093612992
-0.00026686653
-0.00031382716
-0.0010668799
-0.0024338426
-0.004257784
-0.0065497961
-0.0094850011
-0.0094534563
-0.010959217
-0.011981552
-0.012764574
-0.013476684
-0.014163931
-0.014867007
-0.015621915
-0.016451873
-0.017368177
-0.01837177
-0.019454111
-0.020597794
-0.021777008
-0.022957894
-0.024098939
-0.025151553
-0.026061012
-0.026767901
-0.027210241
-0.027326398
-0.027058895
-0.026359187
-0.025193455
-0.023548862
-0.021440425
-0.018917295
-0.016067668
-0.013020845
-0.009944753
-0.0070372845
-0.0045103247
-0.0025666256
-0.0013722174
-0.0010305271
-0.0015620343
-0.0028808953
-0.0048121918
-0.0073660201
-0.010738431
-0.012212628
-0.013696002
-0.014713252
-0.015505209
-0.01623943
-0.016964038
-0.017722007
-0.018551479
-0.019477616
-0.020513344
-0.021660814
-0.022912173
-0.024250049
-0.025647839
-0.027069865
-0.028471514
-0.029799563
-0.030992851
-0.031983491
-0.032698808
-0.033064177
-0.03300685
-0.032460991
-0.03137451
-0.029715389
-0.027480977
-0.024706117
-0.021470892
-0.017905969
-0.014193414
-0.010560561
-0.0072646842
-0.0045673355
-0.0027002556
-0.0018294551
-0.0020226375
-0.0032124957
-0.0052108575
-0.0080286103
-0.011883641
-0.015243515
-0.016694726
-0.017700471
-0.018495698
-0.019245551
-0.020000129
-0.020805023
-0.021701081
-0.02271613
-0.023865478
-0.025153218
-0.026572864
-0.028107701
-0.029730906
-0.031405495
-0.033084229
-0.034709673
-0.036214588
-0.03752287
-0.038551242
-0.039211902
-0.039416244
-0.039079872
-0.038131021
-0.036514907
-0.034207049
-0.031222368
-0.027625958
-0.02354229
-0.019160425
-0.014732106
-0.01055915
-0.0069672284
-0.0042662314
-0.0027033259
-0.0024145894
-0.0033691001
-0.0053749426
-0.0084481564
-0.012829559
-0.018527472
-0.01994073
-0.020929858
-0.021721691
-0.022477764
-0.023250274
-0.024088118
-0.025035815
-0.026124912
-0.027374121
-0.028790381
-0.030369349
-0.032095633
-0.03394276
-0.035872954
-0.037836827
-0.039773191
-0.041609192
-0.043260958
-0.044635003
-0.045630614
-0.046143541
-0.046071166
-0.045317726
-0.043806651
-0.041487403
-0.038349588
-0.034436222
-0.029856874
-0.024798117
-0.019527522
-0.014386301
-0.0097654686
-0.00606304
-0.0036264563
-0.0026854115
-0.0032698138
-0.0052001792
-0.0085063582
-0.013454063
-0.022043062
-0.023418155
-0.02438735
-0.025167743
-0.025916672
-0.026688964
-0.027538051
-0.028513657
-0.029652576
-0.030978271
-0.032501628
-0.03422131
-0.036123897
-0.038183781
-0.040362814
-0.04260985
-0.044860362
-0.047036337
-0.049046666
-0.050788259
-0.052148121
-0.053006715
-0.053242775
-0.052739436
-0.051394321
-0.049129138
-0.045904211
-0.041734067
-0.036704458
-0.030988446
-0.024857643
-0.018682712
-0.012915655
-0.0080478445
-0.004544276
-0.0027561333
-0.0028055029
-0.0045501032
-0.0080488924
-0.013596521
-0.025767873
-0.027112157
-0.028060427
-0.028819341
-0.029542444
-0.030288415
-0.031117294
-0.03208634
-0.033239738
-0.034607456
-0.036205638
-0.038036855
-0.040090243
-0.042341415
-0.044752089
-0.047269563
-0.049826208
-0.052339193
-0.054710662
-0.056828574
-0.05856849
-0.059796539
-0.060373822
-0.06016251
-0.059035327
-0.056885037
-0.05364014
-0.049281747
-0.043863818
-0.037534623
-0.030555893
-0.023313366
-0.01630925
-0.010126568
-0.0053602711
-0.0025108818
-0.0018300905
-0.0032477674
-0.0068768487
-0.013049004
-0.029681006
-0.031011948
-0.031941111
-0.032665478
-0.03333682
-0.034020047
-0.034785134
-0.035700317
-0.036820102
-0.038183169
-0.039812412
-0.041715186
-0.043883597
-0.046294582
-0.04890966
-0.051674466
-0.054518219
-0.057353361
-0.060075579
-0.062564434
-0.064684861
-0.066289764
-0.067223998
-0.067330046
-0.066456774
-0.064468864
-0.061262226
-0.056781746
-0.05104366
-0.044161452
-0.036372648
-0.028060629
-0.019760883
-0.012137956
-0.0059211098
-0.0017842757
-0.00014987328
-0.0010656965
-0.0047364684
-0.011545997
-0.033766503
-0.03511497
-0.036029936
-0.036701845
-0.037285386
-0.037855981
-0.038498701
-0.039297671
-0.040321588
-0.041620504
-0.043225637
-0.045149843
-0.047388296
-0.049918967
-0.052702692
-0.055682904
-0.058785216
-0.061917068
-0.064967665
-0.067808437
-0.070294327
-0.07226603
-0.073553628
-0.073981881
-0.073376571
-0.071577131
-0.068447731
-0.06389655
-0.057898975
-0.050526443
-0.041979624
-0.032621338
-0.022998922
-0.013839835
-0.0060014808
-0.00034718004
0.0024891775
0.0022862043
-0.0013067543
-0.0087522196
-0.038018216
-0.03943279
-0.040341273
-0.040934756
-0.041380032
-0.041770368
-0.042213691
-0.042816776
-0.043667375
-0.044829899
-0.046345341
-0.04823238
-0.050488836
-0.053092858
-0.056003552
-0.059161082
-0.062486513
-0.065881547
-0.069228465
-0.072390445
-0.075212719
-0.077524484
-0.079142111
-0.07987387
-0.079526287
-0.077914239
-0.074872921
-0.070275576
-0.064056616
-0.056241824
-0.046985907
-0.036614883
-0.025664889
-0.014900935
-0.0052910359
0.0021080596
0.0064159391
0.0071751827
0.0038158063
-0.0042477761
-0.042447143
-0.043999715
-0.044910642
-0.045386009
-0.045621496
-0.045740342
-0.045884589
-0.046192553
-0.046776753
-0.047718922
-0.049070761
-0.050856346
-0.053074913
-0.055703162
-0.058696726
-0.061990828
-0.06550049
-0.069120453
-0.072725186
-0.076169039
-0.079287379
-0.081898149
-0.08380473
-0.084800187
-0.084673273
-0.083217089
-0.080240668
-0.075585326
-0.069146812
-0.060905359
-0.050965229
-0.039603761
-0.027324715
-0.01490196
-0.0033866751
0.0059809752
0.012050075
0.014063242
0.011136794
0.0024910709
-0.047093209
-0.048885919
-0.049805049
-0.050098979
-0.0500219
-0.049746368
-0.049464216
-0.049356268
-0.049565816
-0.050194148
-0.05130344
-0.052921494
-0.055046565
-0.057651278
-0.060685255
-0.064076426
-0.067731739
-0.071537253
-0.075358639
-0.079039899
-0.082406239
-0.08526405
-0.087403819
-0.088604017
-0.0886368
-0.087275173
-0.084304706
-0.079538105
-0.072836063
-0.064136124
-0.053492062
-0.041126245
-0.027493765
-0.013349555
0.00020574564
0.011771955
0.019918457
0.02352879
0.021290227
0.012119181
-0.052045411
-0.054218243
-0.055137975
-0.05514634
-0.054607097
-0.053771765
-0.05290251
-0.052234923
-0.051948123
-0.052163254
-0.052950624
-0.054338175
-0.056319216
-0.058858452
-0.061896267
-0.06534999
-0.069116152
-0.073069906
-0.077068023
-0.080940292
-0.084502336
-0.087548102
-0.089854667
-0.091185753
-0.091297915
-0.089943749
-0.086887344
-0.081915473
-0.074857116
-0.065610945
-0.054183022
-0.040739408
-0.025676387
-0.009706595
0.0060551874
0.02008216
0.030669988
0.036293642
0.035076211
0.025465577
-0.057478084
-0.060214089
-0.061091324
-0.060639724
-0.059418461
-0.057801023
-0.056144402
-0.054750303
-0.05383547
-0.05353743
-0.053928892
-0.0550317
-0.056828307
-0.059270192
-0.062285216
-0.065775046
-0.069624216
-0.073695018
-0.077829675
-0.081848812
-0.085553528
-0.088724808
-0.091125826
-0.092505029
-0.092600994
-0.091148571
-0.087889381
-0.08258466
-0.075033528
-0.065098444
-0.05274054
-0.038070494
-0.021420225
-0.0034421446
0.014768436
0.031597274
0.045084509
0.053256394
0.053516764
0.043607534
-0.063718917
-0.067237669
-0.067947287
-0.066740946
-0.064512934
-0.061816001
-0.059126258
-0.056817349
-0.055138446
-0.054233654
-0.054167486
-0.054946079
-0.056533057
-0.058860536
-0.061836421
-0.065346928
-0.069259274
-0.073420961
-0.077659794
-0.081783285
-0.085578535
-0.088812539
-0.091233602
-0.092573929
-0.092553876
-0.09088821
-0.087295221
-0.081509582
-0.073299396
-0.062490106
-0.048997656
-0.032875854
-0.014386434
0.0058948315
0.026924413
0.047044825
0.064067548
0.07553124
0.077939447
0.068005337
-0.071381094
-0.075893796
-0.076132672
-0.073672532
-0.069958426
-0.065787593
-0.061769012
-0.058340273
-0.055765251
-0.054175327
-0.053609789
-0.054045685
-0.055416891
-0.057628984
-0.06056549
-0.064091771
-0.068056162
-0.072289547
-0.076604453
-0.080793922
-0.084630815
-0.087867602
-0.09023715
-0.091454727
-0.091221649
-0.089230887
-0.085175204
-0.078759822
-0.069717588
-0.057831533
-0.042965459
-0.025108021
-0.0044390495
0.018570215
0.042964922
0.067105106
0.088610871
0.10448337
0.11010493
0.10076081
-0.081631714
-0.087181936
-0.086270463
-0.081716512
-0.075814827
-0.069654982
-0.063961393
-0.059200682
-0.055613756
-0.053286924
-0.05220958
-0.052311074
-0.053484354
-0.055599631
-0.058511228
-0.062060215
-0.066074469
-0.070367306
-0.07473562
-0.078957994
-0.082793255
-0.085979612
-0.088234725
-0.089256985
-0.088728383
-0.086319063
-0.081693875
-0.074524866
-0.064503002
-0.051358845
-0.034889542
-0.014997691
0.0082488064
0.034515487
0.063013629
0.092226144
0.11966013
0.14172273
0.15240468
0.14512489
-0.096760068
-0.10273838
-0.099198157
-0.091155473
-0.082062729
-0.073261683
-0.065508036
-0.059217218
-0.054540402
-0.05146961
-0.049910407
-0.049723205
-0.050746042
-0.052806209
-0.05572471
-0.059316498
-0.063388568
-0.06773703
-0.072144014
-0.076374803
-0.080175522
-0.083271527
-0.085366699
-0.086143866
-0.085266776
-0.082382969
-0.077128445
-0.069138727
-0.058055796
-0.043544907
-0.025315353
-0.0031508799
0.023041437
0.053141865
0.086633929
0.12228358
0.15778143
0.18895224
0.20809846
0.20632829
-0.12133962
-0.12518726
-0.11587303
-0.10208114
-0.088417259
-0.076198233
-0.066005694
-0.058052165
-0.052291256
-0.048550186
-0.046608343
-0.046232978
-0.04719476
-0.049272682
-0.052253003
-0.055925303
-0.06007753
-0.064490943
-0.068935495
-0.073165854
-0.076918223
-0.079907973
-0.081828138
-0.082348937
-0.081118872
-0.077764574
-0.071895986
-0.063110435
-0.050996253
-0.035141843
-0.015145431
0.0093695439
0.038725988
0.073130261
0.11252036
0.15626318
0.20263146
0.24752373
0.28130153
0.29235713
-0.16445707
-0.1584328
-0.1371483
-0.11415738
-0.094107231
-0.07763113
-0.064737806
-0.055161723
-0.048489851
-0.044291517
-0.042172836
-0.041787419
-0.042832471
-0.045039724
-0.048164825
-0.051977155
-0.056250887
-0.060757439
-0.065259259
-0.069504807
-0.073224643
-0.076128437
-0.077902875
-0.078210628
-0.076690616
-0.072947877
-0.066577784
-0.057140691
-0.044172396
-0.027180383
-0.005636047
0.021035309
0.053464649
0.092332156
0.13829681
0.19182745
0.25266857
0.31751198
0.37626913
0.41537131
-0.24629393
-0.20631798
-0.16213028
-0.12552892
-0.097143686
-0.075878204
-0.060487588
-0.049752383
-0.042660294
-0.03843626
-0.036490401
-0.03636545
-0.037697423
-0.040185235
-0.04356734
-0.047604324
-0.052066019
-0.056721812
-0.06133326
-0.065648412
-0.069397443
-0.072289379
-0.074009749
-0.07421997
-0.072558638
-0.068605661
-0.061961762
-0.05215594
-0.038682948
-0.020981137
0.0015962392
0.029825823
0.064687015
0.10746556
0.15987181
0.22417859
0.30290625
0.39553298
0.49624421
0.6032131
-0.4254387
-0.26573008
-0.1772213
-0.12463591
-0.089116543
-0.065102676
-0.049323886
-0.039185365
-0.032983759
-0.029674153
-0.028570796
-0.029186845
-0.03115692
-0.034189998
-0.038037714
-0.042473434
-0.047278274
-0.052231303
-0.057102359
-0.061646662
-0.065600704
-0.068679081
-0.070571761
-0.070940644
-0.069407932
-0.065629807
-0.059132358
-0.049452808
-0.036074724
-0.018403146
0.0042719512
0.032847921
0.068543401
0.11314286
0.16943747
0.24201803
0.33806693
0.46591668
0.6430555
0.92086307
-0.79331266
-0.32444188
-0.14899713
-0.087725095
-0.055345499
-0.035999197
-0.025091233
-0.019200685
-0.016355217
-0.015618795
-0.016494033
-0.018653849
-0.021852969
-0.025888337
-0.030575353
-0.035733748
-0.041178966
-0.046716214
-0.052135922
-0.057210108
-0.06168943
-0.065300825
-0.067745829
-0.06870086
-0.067824456
-0.064707895
-0.05894171
-0.050072362
-0.03759329
-0.020927042
0.00061082612
0.02788154
0.062059255
0.10491387
0.15945184
0.23152852
0.33385198
0.49409275
0.7900169
1.3837788
1.223915e-05
-0.00013062318
-0.00044281515
-0.00084537369
-0.0012637776
-0.0016525786
-0.0019809214
-0.0022299854
-0.0023891406
-0.0024526852
-0.0024176813
-0.0022826732
-0.0020470912
-0.0017111785
-0.0012762924
-0.0007454415
-0.00012393683
0.00057995462
0.0013544553
0.0021839104
0.0030486906
0.0039254346
0.0047876579
0.0056067661
0.0063534281
0.0069992578
0.0075186936
0.0078909387
0.008101796
0.0081452243
0.0080244594
0.0077525998
0.0073526389
0.0068570183
0.0063066076
0.0057489575
0.0052390939
0.0048332905
0.0045932564
0.0045547248
0.00015417623
8.907943e-06
-0.00024124536
-0.00055010242
-0.00087226018
-0.0011734095
-0.0014293221
-0.0016238283
-0.0017465701
-0.0017911046
-0.0017534905
-0.0016313633
-0.0014234684
-0.0011295738
-0.00075067044
-0.00028936327
0.00024963903
0.00085902647
0.0015284661
0.0022443253
0.0029896047
0.0037442782
0.0044856456
0.0051893585
0.0058305703
0.0063853865
0.0068324834
0.0071547618
0.0073408903
0.007386592
0.0072955368
0.0070797407
0.0067594201
0.0063623323
0.0059226711
0.0054794292
0.0050737754
0.004749058
0.0045504504
0.0045152945
0.00047244407
0.00025434837
-1.4433046e-06
-0.00028054027
-0.00056085389
-0.00081783001
-0.0010336973
-0.0011964067
-0.0012977533
-0.0013322185
-0.0012960847
-0.0011868199
-0.0010027839
-0.00074322189
-0.00040848041
-3.7588517e-07
0.00047735508
0.0010185969
0.0016144583
0.0022530085
0.0029192433
0.0035952077
0.0042605402
0.0048932439
0.0054707807
0.00597142
0.0063757523
0.0066682405
0.0068386612
0.0068832809
0.0068056335
0.0066168008
0.0063351414
0.0059854734
0.0055977869
0.0052055232
0.0048432751
0.0045452541
0.0043477798
0.0042806678
0.00089406705
0.00056238155
0.00026187706
-2.3929997e-05
-0.00029462314
-0.00053381909
-0.0007299815
-0.00087590805
-0.00096652535
-0.00099813912
-0.0009679378
-0.00087363537
-0.00071336007
-0.00048577342
-0.00019036702
0.0001721172
0.00059920029
0.0010861732
0.0016256612
0.0022073167
0.0028177094
0.0034403914
0.0040563985
0.0046449409
0.0051844558
0.0056539262
0.0060343811
0.0063104546
0.0064718433
0.006514489
0.0064413286
0.0062625063
0.0059949992
0.0056616724
0.0052898224
0.0049093518
0.0045509232
0.0042444493
0.0040164808
0.003880919
0.0013449206
0.00088456388
0.00052177401
0.00021149779
-6.629264e-05
-0.00030237645
-0.00049112151
-0.00063028308
-0.00071819927
-0.00075330382
-0.00073393561
-0.0006581938
-0.00052399518
-0.0003293292
-7.2662413e-05
0.00024655294
0.00062731412
0.001066499
0.0015583513
0.0020940853
0.002661677
0.0032458968
0.0038286672
0.0043897434
0.0049077404
0.0053614587
0.005731423
0.0060015059
0.0061604699
0.0062032333
0.0061316761
0.0059548449
0.0056885074
0.0053540859
0.0049770333
0.0045849035
0.0042059652
0.003867427
0.0035848512
0.0033610242
0.0017718605
0.0011777647
0.00074362071
0.00039764781
0.00010099261
-0.0001433171
-0.00033503256
-0.00047662978
-0.00056979172
-0.00061509166
-0.00061204116
-0.0005591155
-0.000453959
-0.00029377256
-7.5835887e-05
0.00020187544
0.00054001964
0.00093721351
0.0013894086
0.0018893826
0.0024264163
0.0029862362
0.0035512652
0.0041012656
0.0046143503
0.0050683449
0.005442407
0.0057187649
0.0058843972
0.0059324482
0.0058631679
0.0056842013
0.0054101455
0.0050613948
0.0046623428
0.0042393341
0.0038197802
0.0034302909
0.0030779286
0.002750246
0.002129656
0.0014034428
0.00089451397
0.00050638596
0.00018300486
-7.7992491e-05
-0.00028119644
-0.00043341765
-0.00053942978
-0.00060177406
-0.00062100151
-0.00059583857
-0.00052352187
-0.00040030928
-0.00022211951
1.4735121e-05
0.00031275886
0.00067247171
0.0010916538
0.0015647011
0.0020821684
0.0026305958
0.0031926425
0.0037476728
0.0042727414
0.0047439979
0.0051384134
0.0054356821
0.0056201002
0.0056821948
0.0056198741
0.0054388957
0.0051525316
0.0047804091
0.0043465592
0.0038772148
0.0034004034
0.0029439447
0.0025080017
0.0020659061
0.0023797333
0.0015268416
0.0009435568
0.00051050994
0.00015579709
-0.00012777531
-0.00034916437
-0.00051909181
-0.00064507946
-0.00073135966
-0.00077928999
-0.00078764163
-0.00075304921
-0.00067063483
-0.00053475817
-0.000339863
-8.1388723e-05
0.00024329498
0.00063398634
0.0010868511
0.0015938067
0.002142213
0.0027148538
0.0032904473
0.0038445772
0.0043511209
0.0047840865
0.0051197116
0.0053386067
0.0054276873
0.0053816261
0.0052035987
0.0049051677
0.0045052327
0.0040279958
0.0035005907
0.002953081
0.0024162193
0.0018852001
0.0013219389
0.002488282
0.0015162664
0.00086144518
0.00038313536
-5.3116699e-06
-0.00031555129
-0.0005605235
-0.00075445582
-0.0009072544
-0.0010245247
-0.001108152
-0.0011567039
-0.0011659843
-0.0011297579
-0.0010406006
-0.00089085104
-0.00067363901
-0.00038395338
-1.9696454e-05
0.00041734191
0.00092068178
0.0014786837
0.0020743182
0.0026855781
0.0032863061
0.0038476148
0.0043398127
0.0047347084
0.0050080775
0.005142001
0.0051267554
0.0049619677
0.0046568438
0.0042293451
0.0037041647
0.0031102112
0.002480952
0.0018517712
0.0012143376
0.00051991304
0.0024248274
0.0013426362
0.00062061347
9.8215478e-05
-0.00032497782
-0.00066484116
-0.00093799016
-0.001161794
-0.0013481969
-0.0015038621
-0.0016309185
-0.0017274736
-0.0017882617
-0.0018054556
-0.0017696007
-0.0016706588
-0.0014991427
-0.0012473112
-0.00091037768
-0.00048767257
1.63388e-05
0.00059143204
0.0012210122
0.0018824738
0.0025478191
0.0031850188
0.0037599916
0.0042391019
0.0045919836
0.0047943874
0.004830672
0.0046955648
0.0043949126
0.0039452239
0.0033717504
0.0027058663
0.0019857392
0.0012530897
0.00049719185
-0.00034109701
0.0021615914
0.00097931607
0.00019546278
-0.00036890115
-0.00082701834
-0.0011988105
-0.001504318
-0.0017637327
-0.0019907287
-0.0021927427
-0.0023718871
-0.0025255713
-0.0026472342
-0.0027272252
-0.0027538037
-0.0027142536
-0.0025961074
-0.002388459
-0.002083324
-0.0016770007
-0.0011713361
-0.00057445386
9.7946935e-05
0.00082305801
0.0015711719
0.0023069072
0.0029911812
0.0035838718
0.004047015
0.0043482438
0.0044640523
0.0043824075
0.0041042879
0.0036438044
0.0030265097
0.0022867115
0.0014684864
0.00062162612
-0.00026614945
-0.0012647005
0.0016733764
0.00040218839
-0.00043735982
-0.0010409895
-0.0015337559
-0.0019394818
-0.0022814161
-0.0025822952
-0.0028572627
-0.003114293
-0.0033552685
-0.0035767036
-0.0037705483
-0.0039251198
-0.0040261425
-0.0040579064
-0.0040045565
-0.0038515053
-0.0035869388
-0.003203351
-0.0026990324
-0.0020795893
-0.0013585478
-0.00055832108
0.00029008623
0.0011479875
0.0019708472
0.0027110415
0.003321424
0.0037594259
0.0039912597
0.0039956545
0.0037665311
0.0033140349
0.0026632839
0.0018516909
0.00093035115
-4.1071036e-05
-0.0010758112
-0.002255298
0.00093778171
-0.00041008245
-0.0012985871
-0.0019384367
-0.0024653685
-0.0029069562
-0.0032894587
-0.0036379141
-0.0039687262
-0.0042902319
-0.0046039336
-0.0049053137
-0.0051846929
-0.0054281892
-0.005618769
-0.0057374188
-0.0057644663
-0.0056810654
-0.0054708306
-0.0051215661
-0.0046270319
-0.0039888614
-0.003217551
-0.0023339747
-0.0013695804
-0.00036593353
0.00062682283
0.0015526964
0.0023537228
0.0029747723
0.003368854
0.0035022702
0.0033588438
0.0029423266
0.0022759566
0.0013999682
0.00037344063
-0.00073217768
-0.0019306313
-0.0033162058
-6.4371176e-05
-0.0014756529
-0.0024058828
-0.0030786949
-0.0036392222
-0.0041186155
-0.0045459537
-0.0049483655
-0.0053433597
-0.0057395294
-0.0061379219
-0.0065329279
-0.006913171
-0.0072624658
-0.0075608478
-0.0077857208
-0.0079131723
-0.007919493
-0.0077829104
-0.0074855111
-0.0070153072
-0.0063684197
-0.0055509066
-0.0045805773
-0.0034879988
-0.0023166838
-0.0011220714
3.094908e-05
0.0010720754
0.0019310809
0.0025443543
0.0028617863
0.0028530365
0.0025119188
0.0018573322
0.00093133772
-0.00019831391
-0.0014463566
-0.0028266474
-0.0044479282
-0.0013485011
-0.0028090375
-0.0037733651
-0.0044757327
-0.0050692147
-0.0055883319
-0.006064799
-0.0065276586
-0.0069954283
-0.0074769266
-0.0079727561
-0.0084762453
-0.0089743427
-0.0094485406
-0.0098758461
-0.010229863
-0.010482058
-0.01060327
-0.010565504
-0.01034401
-0.0099196371
-0.00928139
-0.0084289548
-0.0073751315
-0.0061477356
-0.0047906661
-0.0033636961
-0.0019405641
-0.00060505432
0.00055501504
0.0014556141
0.0020254176
0.0022146662
0.0020022885
0.001399008
0.00044664418
-0.0007782187
-0.0021744114
-0.0037554721
-0.0056463656
-0.0029257029
-0.0044206506
-0.005411158
-0.0061395298
-0.0067651679
-0.0073257217
-0.0078553668
-0.0083849256