/*--------------------------------*- C++ -*----------------------------------*\
  =========                 |
  \\      /  F ield         | OpenFOAM: The Open Source CFD Toolbox
   \\    /   O peration     | Website:  https://openfoam.org
    \\  /    A nd           | Version:  7
     \\/     M anipulation  |
\*---------------------------------------------------------------------------*/
FoamFile
{
    version     2.0;
    format      ascii;
    class       surfaceScalarField;
    location    "31";
    object      phi;
}
// * * * * * * * * * * * * * * * * * * * * * * * * * * * * * * * * * * * * * //

dimensions      [0 3 -1 0 0 0 0];

internalField   nonuniform List<scalar> 
45600
(
2.7499526e-07
-2.8241359e-07
-8.3344429e-11
4.0324792e-07
-1.2822658e-07
-2.6250126e-11
1.3251387e-07
2.707413e-07
-7.3684483e-12
-5.6233409e-07
6.9485002e-07
-2.0099016e-12
-1.6393253e-06
1.0769883e-06
3.192827e-12
-3.0276302e-06
1.3882985e-06
6.7130316e-12
-4.6524697e-06
1.6248302e-06
9.0155159e-12
-6.4451002e-06
1.7926196e-06
1.0637272e-11
-8.3454252e-06
1.9003137e-06
1.1791051e-11
-1.0301443e-05
1.9560064e-06
1.2565462e-11
-1.22674e-05
1.9659457e-06
1.3008344e-11
-1.4201578e-05
1.9341649e-06
1.3146535e-11
-1.6064234e-05
1.8626428e-06
1.2998922e-11
-1.7816022e-05
1.7517751e-06
1.2576804e-11
-1.9417048e-05
1.6010161e-06
1.1873923e-11
-2.082665e-05
1.4095949e-06
1.0864965e-11
-2.2003898e-05
1.1772396e-06
9.5228597e-12
-2.2908759e-05
9.0485161e-07
7.8435892e-12
-2.3503859e-05
5.9509014e-07
5.8516033e-12
-2.3756693e-05
2.5282925e-07
3.5996581e-12
-2.3642131e-05
-1.1455808e-07
1.1426234e-12
-2.3144999e-05
-4.9712422e-07
-1.4805666e-12
-2.2262565e-05
-8.8242794e-07
-4.2279923e-12
-2.100661e-05
-1.2559546e-06
-7.0012295e-12
-1.940486e-05
-1.6017511e-06
-9.6200741e-12
-1.7501557e-05
-1.9032953e-06
-1.1885339e-11
-1.5356971e-05
-2.1445615e-06
-1.3648886e-11
-1.304575e-05
-2.3111875e-06
-1.4871743e-11
-1.0654088e-05
-2.3916412e-06
-1.5569738e-11
-8.2758068e-06
-2.3782859e-06
-1.5680348e-11
-6.0075714e-06
-2.2682491e-06
-1.500901e-11
-3.943547e-06
-2.0640142e-06
-1.3374696e-11
-2.1697935e-06
-1.7737066e-06
-1.0846073e-11
-7.5852675e-07
-1.4112182e-06
-7.778524e-12
2.3823476e-07
-9.9676354e-07
-4.6709473e-12
7.9655138e-07
-5.5837343e-07
-2.0633282e-12
9.2924508e-07
-1.3273866e-07
1.0891409e-12
7.0553165e-07
2.2375092e-07
5.3607529e-12
2.9043399e-07
4.1519806e-07
1.0045702e-11
2.9049584e-07
3.7658718e-12
1.3280316e-07
-4.1519323e-07
-2.3652837e-11
-3.0176647e-07
3.0635804e-07
-1.4989633e-11
-1.6154627e-06
1.5844505e-06
-1.3002146e-11
-3.8747516e-06
2.9541526e-06
-1.366875e-11
-7.0073722e-06
4.209624e-06
-1.4756024e-11
-1.0879771e-05
5.2607148e-06
-1.6240422e-11
-1.5335176e-05
6.0802546e-06
-1.7636913e-11
-2.0216007e-05
6.6734707e-06
-1.8648819e-11
-2.537406e-05
7.0583865e-06
-1.9215267e-11
-3.0673269e-05
7.2552345e-06
-1.9334315e-11
-3.5988531e-05
7.2812295e-06
-1.9023935e-11
-4.1202814e-05
7.1484696e-06
-1.8318237e-11
-4.6203953e-05
6.8638016e-06
-1.7248356e-11
-5.0882078e-05
6.4299158e-06
-1.582312e-11
-5.5128208e-05
5.8471581e-06
-1.4030308e-11
-5.8834294e-05
5.1156912e-06
-1.1859242e-11
-6.1894775e-05
4.2377333e-06
-9.3253241e-12
-6.4209577e-05
3.219666e-06
-6.4689125e-12
-6.5688324e-05
2.0738429e-06
-3.3587526e-12
-6.6255435e-05
8.1993478e-07
-5.3963033e-14
-6.5855953e-05
-5.1405269e-07
3.4069262e-12
-6.4460782e-05
-1.8923076e-06
7.0162886e-12
-6.207245e-05
-3.2707631e-06
1.0611143e-11
-5.8729059e-05
-4.5993459e-06
1.3997996e-11
-5.4507045e-05
-5.8237753e-06
1.6980453e-11
-4.9521881e-05
-6.8884923e-06
1.9439469e-11
-4.3926386e-05
-7.7401035e-06
2.1369486e-11
-3.7906449e-05
-8.331158e-06
2.2781718e-11
-3.1674138e-05
-8.6239518e-06
2.3557628e-11
-2.5458382e-05
-8.594025e-06
2.3440698e-11
-1.9493588e-05
-8.2330537e-06
2.2254463e-11
-1.4006714e-05
-7.5509514e-06
2.0159994e-11
-9.2033104e-06
-6.577184e-06
1.7610732e-11
-5.2529281e-06
-5.3616113e-06
1.4946852e-11
-2.2739781e-06
-3.9756474e-06
1.2053828e-11
-3.1723419e-07
-2.5150569e-06
8.5061855e-12
6.5708828e-07
-1.1071167e-06
4.0103003e-12
8.0365171e-07
7.7026448e-08
1.8384017e-12
4.177726e-07
8.0092917e-07
3.2460211e-12
7.0832832e-07
-2.52938e-12
-2.7362061e-07
-1.4155968e-07
-1.307275e-11
-1.6275349e-06
1.6602804e-06
-7.8685588e-12
-4.2894535e-06
4.2463785e-06
-9.1343386e-12
-8.2747173e-06
6.9394242e-06
-7.6572921e-12
-1.3474447e-05
9.4093589e-06
-5.6315113e-12
-1.970874e-05
1.1495012e-05
-4.5132596e-12
-2.6765759e-05
1.3137279e-05
-3.7847787e-12
-3.4426616e-05
1.4334332e-05
-3.1842573e-12
-4.2478622e-05
1.5110396e-05
-2.6881473e-12
-5.0720434e-05
1.5497049e-05
-2.2531961e-12
-5.8962273e-05
1.5523069e-05
-1.8302421e-12
-6.7023662e-05
1.5209861e-05
-1.3972145e-12
-7.4730497e-05
1.4570641e-05
-9.5952039e-13
-8.1912679e-05
1.3612101e-05
-5.3224931e-13
-8.8403103e-05
1.2337583e-05
-1.2117128e-13
-9.4038429e-05
1.0751014e-05
2.8393114e-13
-9.8661747e-05
8.8610485e-06
6.9511314e-13
-0.00010212704
6.6849636e-06
1.1097866e-12
-0.00010430517
4.2519752e-06
1.4913327e-12
-0.00010509095
1.6057131e-06
1.7941484e-12
-0.00010441059
-1.194418e-06
2.0117676e-12
-0.00010222941
-4.073498e-06
2.1745499e-12
-9.8558476e-05
-6.9417041e-06
2.3312389e-12
-9.3459963e-05
-9.6978577e-06
2.4972478e-12
-8.7050352e-05
-1.2233373e-05
2.6126695e-12
-7.9500957e-05
-1.4437877e-05
2.58504e-12
-7.1035248e-05
-1.6205822e-05
2.4069201e-12
-6.1922707e-05
-1.7443728e-05
2.2204925e-12
-5.2469143e-05
-1.8077538e-05
2.2141946e-12
-4.3003674e-05
-1.805948e-05
2.410153e-12
-3.3862805e-05
-1.737388e-05
2.5823766e-12
-2.5372204e-05
-1.6041532e-05
2.4875884e-12
-1.7826877e-05
-1.412255e-05
2.2201354e-12
-1.1470428e-05
-1.1718127e-05
2.2207217e-12
-6.4738956e-06
-8.9721934e-06
2.7760507e-12
-2.9140472e-06
-6.0748253e-06
3.4877787e-12
-7.5119678e-07
-3.2698636e-06
3.4796134e-12
1.9438292e-07
-8.6853474e-07
3.4431048e-12
2.6546334e-07
7.2974838e-07
4.6830868e-12
9.7380392e-07
6.4010779e-13
-7.4586626e-07
6.0431972e-07
-1.3218208e-11
-3.1796703e-06
4.0940866e-06
-1.8177774e-12
-7.3461444e-06
8.4128605e-06
-7.2433277e-12
-1.3163095e-05
1.2756382e-05
-6.5641108e-12
-2.0455851e-05
1.6702119e-05
-3.9165891e-12
-2.8992659e-05
2.0031824e-05
-2.5580903e-12
-3.8513892e-05
2.2658513e-05
-1.6534004e-12
-4.8752682e-05
2.4573124e-05
-8.3782025e-13
-5.9446977e-05
2.5804694e-05
-1.6841162e-13
-7.0344819e-05
2.6394892e-05
3.6223443e-13
-8.1205105e-05
2.6383354e-05
7.9909719e-13
-9.1795951e-05
2.5800705e-05
1.1780563e-12
-0.00010189237
2.4667063e-05
1.5153351e-12
-0.00011127458
2.2994312e-05
1.8031672e-12
-0.00011972773
2.0790728e-05
2.0194276e-12
-0.00012704355
1.8066834e-05
2.1494668e-12
-0.0001330241
1.484159e-05
2.1990611e-12
-0.00013748735
1.1148213e-05
2.1912765e-12
-0.00014027445
7.0390698e-06
2.1353273e-12
-0.00014125799
2.5892536e-06
2.012576e-12
-0.0001403507
-2.1016937e-06
1.7940456e-12
-0.00013751432
-6.9098863e-06
1.4295039e-12
-0.00013276696
-1.168907e-05
9.7204205e-13
-0.00012618926
-1.6275578e-05
5.2757409e-13
-0.00011792784
-2.0494789e-05
1.7554134e-13
-0.00010819587
-2.4169834e-05
-1.1326928e-13
-9.7269825e-05
-2.713184e-05
-4.5090179e-13
-8.5482368e-05
-2.9231184e-05
-8.7736295e-13
-7.3210925e-05
-3.0349013e-05
-1.2281545e-12
-6.0862265e-05
-3.0408172e-05
-1.2248771e-12
-4.8853455e-05
-2.9382679e-05
-7.7500991e-13
-3.7589888e-05
-2.7305043e-05
-1.5023275e-13
-2.7441282e-05
-2.4271115e-05
2.7104937e-13
-1.8716671e-05
-2.0442773e-05
4.890612e-13
-1.1639475e-05
-1.604948e-05
9.5529237e-13
-6.3236098e-06
-1.139074e-05
2.0191882e-12
-2.751546e-06
-6.841879e-06
3.3831671e-12
-7.5712308e-07
-2.862887e-06
4.199083e-12
-9.5179685e-09
-1.7874366e-08
4.2726765e-12
9.6425953e-07
3.4761286e-12
-1.2279776e-06
1.8323121e-06
-1.4661341e-11
-4.788132e-06
7.6542371e-06
4.2289556e-12
-1.052157e-05
1.4146305e-05
-6.3307886e-12
-1.821436e-05
2.044918e-05
-7.4130143e-12
-2.7603957e-05
2.6091723e-05
-5.0141438e-12
-3.8396307e-05
3.0824179e-05
-4.2752137e-12
-5.0283055e-05
3.4545264e-05
-3.9297341e-12
-6.2954772e-05
3.7244844e-05
-3.4512554e-12
-7.6109015e-05
3.8958941e-05
-2.9723079e-12
-8.9453739e-05
3.973962e-05
-2.5329509e-12
-0.00010270743
3.9637045e-05
-2.1176906e-12
-0.00011559748
3.8690754e-05
-1.7108871e-12
-0.00012785828
3.6927867e-05
-1.2929336e-12
-0.00013923013
3.4366159e-05
-8.507688e-13
-0.00014945967
3.1020273e-05
-3.9355927e-13
-0.00015830239
2.6909558e-05
5.0396074e-14
-0.00016552715
2.206635e-05
4.548721e-13
-0.00017092265
1.6543715e-05
8.2143822e-13
-0.0001743055
1.042191e-05
1.1776734e-12
-0.00017552926
3.8130135e-06
1.546933e-12
-0.00017449404
-3.1369155e-06
1.9102082e-12
-0.00017115579
-1.0248121e-05
2.1892782e-12
-0.00016553471
-1.7310147e-05
2.3235793e-12
-0.00015772182
-2.4088479e-05
2.3339996e-12
-0.00014788313
-3.0333501e-05
2.3344992e-12
-0.00013626054
-3.579243e-05
2.4310285e-12
-0.00012316891
-4.0223457e-05
2.5877406e-12
-0.00010898866
-4.3411402e-05
2.6259684e-12
-9.4153748e-05
-4.5183921e-05
2.4238556e-12
-7.9134823e-05
-4.5427136e-05
2.1322285e-12
-6.4418062e-05
-4.409949e-05
2.0990878e-12
-5.0480375e-05
-4.1242731e-05
2.4812842e-12
-3.7762127e-05
-3.6989301e-05
2.9751177e-12
-2.6638786e-05
-3.1566052e-05
3.0894356e-12
-1.7393147e-05
-2.5295136e-05
2.7596561e-12
-1.0189933e-05
-1.8594034e-05
2.6807184e-12
-5.0547672e-06
-1.1977085e-05
3.6167108e-12
-1.8598314e-06
-6.0577825e-06
3.7160877e-12
-3.2221901e-07
-1.5554595e-06
5.4977276e-13
6.4201887e-07
5.771918e-12
-1.6931737e-06
3.5255036e-06
-1.7125029e-11
-6.371422e-06
1.2332477e-05
9.6798306e-12
-1.3671468e-05
2.1446357e-05
-5.3452518e-12
-2.3234073e-05
3.0011793e-05
-7.5061384e-12
-3.469525e-05
3.7552906e-05
-4.7714083e-12
-4.7689818e-05
4.3818753e-05
-4.1947858e-12
-6.1857508e-05
4.8712958e-05
-4.072097e-12
-7.6848041e-05
5.2235378e-05
-3.7117988e-12
-9.2323832e-05
5.4434734e-05
-3.3017624e-12
-0.00010796022
5.5376014e-05
-2.8965264e-12
-0.00012344391
5.5120733e-05
-2.4866233e-12
-0.00013847062
5.3717473e-05
-2.0787448e-12
-0.00015274314
5.120039e-05
-1.6714135e-12
-0.00016597045
4.7593463e-05
-1.2467982e-12
-0.00017786864
4.2918466e-05
-7.8756805e-13
-0.00018816395
3.7204866e-05
-2.9964633e-13
-0.00019659778
3.0500189e-05
1.828379e-13
-0.00020293372
2.287966e-05
6.2176973e-13
-0.00020696603
1.445421e-05
1.0089888e-12
-0.00020852918
5.3761618e-06
1.3771204e-12
-0.00020750801
-4.1580942e-06
1.7653501e-12
-0.00020384757
-1.3908554e-05
2.1674488e-12
-0.00019756236
-2.3595344e-05
2.4978888e-12
-0.00018874386
-3.290697e-05
2.6604424e-12
-0.0001775658
-4.151158e-05
2.6561756e-12
-0.00016428618
-4.9072069e-05
2.6238864e-12
-0.00014924546
-5.5264205e-05
2.7237326e-12
-0.00013285985
-5.9796991e-05
2.9450328e-12
-0.00011560961
-6.2434118e-05
3.0644397e-12
-9.8021699e-05
-6.3015034e-05
2.8859898e-12
-8.0647188e-05
-6.147404e-05
2.5455384e-12
-6.4034175e-05
-5.785581e-05
2.4595336e-12
-4.8697458e-05
-5.2326037e-05
2.8471756e-12
-3.5086891e-05
-4.5176565e-05
3.344665e-12
-2.3556639e-05
-3.6825328e-05
3.3359799e-12
-1.4337849e-05
-2.781284e-05
3.1108631e-12
-7.5175023e-06
-1.8797492e-05
3.9689759e-12
-3.0267364e-06
-1.0548555e-05
3.4718898e-12
-6.4248767e-07
-3.9396786e-06
-1.9458936e-12
-4.7829677e-10
8.3307581e-12
-2.1329399e-06
5.6584638e-06
-1.9884066e-11
-7.8910812e-06
1.8090605e-05
1.4503387e-11
-1.6717411e-05
3.0272692e-05
-4.5744624e-12
-2.8105744e-05
4.1400133e-05
-7.5486707e-12
-4.1585086e-05
5.1032253e-05
-4.3246212e-12
-5.6714123e-05
5.8947795e-05
-3.7781067e-12
-7.3078256e-05
6.5077096e-05
-3.7757244e-12
-9.0287053e-05
6.9444179e-05
-3.4674195e-12
-0.00010797128
7.2118958e-05
-3.1011198e-12
-0.00012577921
7.3183948e-05
-2.7371355e-12
-0.00014337267
7.2714195e-05
-2.3483317e-12
-0.00016042333
7.076814e-05
-1.9431799e-12
-0.00017661009
6.7387152e-05
-1.5419835e-12
-0.00019161803
6.2601403e-05
-1.1490475e-12
-0.0002051394
5.643983e-05
-7.4629359e-13
-0.00021687672
4.8942184e-05
-3.1064107e-13
-0.00022654802
4.0171492e-05
1.5797681e-13
-0.00023389394
3.0225581e-05
6.2307676e-13
-0.00023868637
1.9246646e-05
1.0321831e-12
-0.00024073828
7.4280793e-06
1.3617412e-12
-0.00023991424
-4.9821537e-06
1.6447619e-12
-0.0002361409
-1.7681901e-05
1.9530216e-12
-0.00022941736
-3.0318888e-05
2.2949562e-12
-0.00021982404
-4.2500266e-05
2.5848136e-12
-0.00020752981
-5.38058e-05
2.6933545e-12
-0.00019279599
-6.3805889e-05
2.5937404e-12
-0.00017597662
-7.2083613e-05
2.4463352e-12
-0.00015751358
-7.826006e-05
2.4754155e-12
-0.00013792608
-8.202161e-05
2.7119427e-12
-0.00011779367
-8.3147395e-05
2.8992957e-12
-9.773289e-05
-8.1534785e-05
2.769626e-12
-7.8368085e-05
-7.7220646e-05
2.4426182e-12
-6.0297861e-05
-7.0396328e-05
2.3865355e-12
-4.4059533e-05
-6.1414917e-05
2.7876964e-12
-3.0094415e-05
-5.0790399e-05
3.1404147e-12
-1.8717234e-05
-3.918998e-05
3.3456037e-12
-1.0093043e-05
-2.7421707e-05
4.5904544e-12
-4.225319e-06
-1.6416311e-05
3.4176594e-12
-9.5848982e-07
-7.206501e-06
-4.8152563e-12
-9.5896769e-07
1.0349318e-11
-2.5450555e-06
8.2035418e-06
-2.2664191e-11
-9.3288464e-06
2.487438e-05
1.8798742e-11
-1.9615361e-05
4.0559212e-05
-4.0677519e-12
-3.2756842e-05
5.4541622e-05
-7.7886339e-12
-4.8175872e-05
6.6451286e-05
-4.1121052e-12
-6.5354067e-05
7.6125993e-05
-3.6193642e-12
-8.3822105e-05
8.3545138e-05
-3.7497449e-12
-0.00010315057
8.8772654e-05
-3.4964025e-12
-0.00012294156
9.1909946e-05
-3.1742869e-12
-0.00014282088
9.306327e-05
-2.8646056e-12
-0.00016243126
9.2324571e-05
-2.5231706e-12
-0.00018142678
8.9763663e-05
-2.1389371e-12
-0.00019946914
8.5429513e-05
-1.7292209e-12
-0.00021622592
7.9358192e-05
-1.3187674e-12
-0.00023137117
7.1585082e-05
-9.1913239e-13
-0.00024458819
6.2159194e-05
-5.1497414e-13
-0.00025557446
5.1157757e-05
-7.6477824e-14
-0.00026404853
3.869966e-05
4.0714154e-13
-0.00026975853
2.495665e-05
8.9985391e-13
-0.00027249195
1.0161505e-05
1.3310356e-12
-0.00027208653
-5.3875669e-06
1.6519475e-12
-0.00026844158
-2.1326864e-05
1.9072955e-12
-0.00026152962
-3.7230868e-05
2.1741831e-12
-0.00025140727
-5.2622618e-05
2.5008516e-12
-0.00023822486
-6.6988192e-05
2.8061445e-12
-0.00022223352
-7.9797208e-05
2.9233732e-12
-0.00020378853
-9.0528605e-05
2.7858108e-12
-0.00018334754
-9.8701083e-05
2.5634046e-12
-0.00016146235
-0.00010390684
2.5393549e-12
-0.00013876322
-0.00010584652
2.7873039e-12
-0.00011593529
-0.00010436267
3.0266545e-12
-9.3687485e-05
-9.9468414e-05
2.9461591e-12
-7.2715396e-05
-9.1368442e-05
2.6733419e-12
-5.3660743e-05
-8.0469629e-05
2.6216155e-12
-3.7071089e-05
-6.7380068e-05
2.792999e-12
-2.3363932e-05
-5.2897099e-05
3.317269e-12
-1.2799299e-05
-3.7986323e-05
5.2360437e-12
-5.4648751e-06
-2.3750752e-05
3.4754073e-12
-1.2772607e-06
-1.1394124e-05
-7.7949605e-12
-2.236236e-06
1.2749825e-11
-2.9284813e-06
1.1132048e-05
-2.536855e-11
-1.0673669e-05
3.2619545e-05
2.2642365e-11
-2.2336166e-05
5.2221715e-05
-3.7349537e-12
-3.7135959e-05
6.9341425e-05
-8.1203529e-12
-5.4394085e-05
8.3709416e-05
-3.9989585e-12
-7.3517592e-05
9.5249502e-05
-3.55343e-12
-9.3984252e-05
0.0001040118
-3.8152589e-12
-0.0001153279
0.0001101163
-3.6142126e-12
-0.0001371251
0.00011370715
-3.3198013e-12
-0.00015898344
0.00011492162
-3.0454935e-12
-0.00018053168
0.00011387281
-2.7514391e-12
-0.00020141203
0.00011064402
-2.4128896e-12
-0.00022127491
0.00010529239
-2.0235059e-12
-0.00023977605
9.7859336e-05
-1.5963318e-12
-0.00025657623
8.8385273e-05
-1.1611491e-12
-0.00027134331
7.6926274e-05
-7.3970928e-13
-0.00028375643
6.3570876e-05
-3.2264959e-13
-0.00029351228
4.8455498e-05
1.2767892e-13
-0.00030033307
3.1777436e-05
6.366437e-13
-0.0003039762
1.3804648e-05
1.1684593e-12
-0.00030424541
-5.1183432e-06
1.6298551e-12
-0.00030100281
-2.4569457e-05
1.9759914e-12
-0.00029418237
-4.4051327e-05
2.2041332e-12
-0.00028380312
-6.3001891e-05
2.4277965e-12
-0.00026998209
-8.0809233e-05
2.7349657e-12
-0.00025294537
-9.6833907e-05
3.0563838e-12
-0.00023303588
-0.00011043807
3.1939455e-12
-0.00021071589
-0.00012102106
3.0383045e-12
-0.00018656259
-0.00012806017
2.7594473e-12
-0.00016125478
-0.00013115438
2.6841783e-12
-0.00013554994
-0.00013006752
2.9142809e-12
-0.00011025143
-0.00012476688
3.1631155e-12
-8.616733e-05
-0.0001154525
3.1285161e-12
-6.4063703e-05
-0.00010257328
2.8768761e-12
-4.4616668e-05
-8.6827149e-05
2.6191822e-12
-2.8368531e-05
-6.9145242e-05
3.1021198e-12
-1.5693143e-05
-5.066169e-05
5.7125164e-12
-6.7752122e-06
-3.2668676e-05
3.5779508e-12
-1.607033e-06
-1.6562301e-05
-1.0744451e-11
-3.8432877e-06
1.528457e-11
-3.2816977e-06
1.4413775e-05
-2.7936767e-11
-1.1915864e-05
4.1253686e-05
2.6076169e-11
-2.4855499e-05
6.5161354e-05
-3.5330562e-12
-4.1199897e-05
8.5685834e-05
-8.5097974e-12
-6.0176277e-05
0.0001026858
-3.9489031e-12
-8.1122205e-05
0.00011619543
-3.5222821e-12
-0.00010346625
0.00012635585
-3.9016451e-12
-0.00012670881
0.00013335887
-3.7582667e-12
-0.00015040456
0.00013740291
-3.4910239e-12
-0.00017414704
0.0001386641
-3.2331375e-12
-0.00019755583
0.0001372816
-2.9614506e-12
-0.00022026656
0.00013335475
-2.6630113e-12
-0.00024192375
0.00012694958
-2.3213927e-12
-0.00026217654
0.00011811212
-1.9203492e-12
-0.00028067702
0.00010688576
-1.4674964e-12
-0.00029708114
9.3330405e-05
-9.977733e-13
-0.00031105179
7.7541528e-05
-5.4630436e-13
-0.00032226397
5.966768e-05
-1.1172571e-13
-0.00033041204
3.9925488e-05
3.4969444e-13
-0.00033521881
1.8611414e-05
8.6871103e-13
-0.00033644697
-3.8901815e-06
1.4072269e-12
-0.00033391157
-2.7104842e-05
1.9466776e-12
-0.0003274958
-5.0467082e-05
2.3124458e-12
-0.00031716672
-7.3330977e-05
2.5134985e-12
-0.00030299216
-9.4983821e-05
2.6844821e-12
-0.00028515671
-0.00011466938
2.950959e-12
-0.00026397507
-0.0001316197
3.2659037e-12
-0.0002399005
-0.00014509559
3.4110646e-12
-0.00021352572
-0.00015443494
3.2428308e-12
-0.0001855737
-0.00015910643
2.9279437e-12
-0.00015687653
-0.00015876473
2.8138899e-12
-0.0001283416
-0.00015330182
3.0151038e-12
-0.00010090602
-0.00014288804
3.2610715e-12
-7.5482429e-05
-0.00012799684
3.1900417e-12
-5.2901125e-05
-0.00010940847
2.7037892e-12
-3.3855112e-05
-8.8191284e-05
2.9705192e-12
-1.8854784e-05
-6.5662023e-05
6.0962708e-12
-8.1982584e-06
-4.332519e-05
3.5864465e-12
-1.9611589e-06
-2.279938e-05
-1.3891745e-11
-5.8044689e-06
1.8001267e-11
-3.6023e-06
1.8016107e-05
-3.0328493e-11
-1.3044864e-05
5.0696221e-05
2.9118114e-11
-2.7149274e-05
7.9265766e-05
-3.4327489e-12
-4.4907144e-05
0.00010344371
-8.9498147e-12
-6.5461467e-05
0.00012324013
-3.9804891e-12
-8.8087181e-05
0.00013882115
-3.5479527e-12
-0.00011216874
0.00015043741
-4.018346e-12
-0.00013717734
0.00015836748
-3.9331678e-12
-0.00016264979
0.00016287536
-3.7091925e-12
-0.00018816983
0.00016418414
-3.4756307e-12
-0.00021335252
0.0001624643
-3.2110711e-12
-0.00023783189
0.00015783413
-2.9233384e-12
-0.00026125176
0.00015036945
-2.6154984e-12
-0.00028325968
0.00014012003
-2.2659336e-12
-0.00030350366
0.00012712974
-1.8482816e-12
-0.00032163149
0.00011145824
-1.3634159e-12
-0.00033729227
9.3202311e-05
-8.4996661e-13
-0.0003501402
7.2515618e-05
-3.5748802e-13
-0.00035984061
4.9625894e-05
1.0161284e-13
-0.00036607825
2.4849044e-05
5.5553411e-13
-0.00036856879
-1.3996479e-06
1.0262366e-12
-0.00036707117
-2.860246e-05
1.6914844e-12
-0.0003614062
-5.6132043e-05
2.2695303e-12
-0.00035147441
-8.3262751e-05
2.6558811e-12
-0.00033727766
-0.00010918057
2.8398142e-12
-0.00031894077
-0.00013300631
2.9573106e-12
-0.00029673163
-0.00015382887
3.1688077e-12
-0.00027107716
-0.00017075005
3.4514249e-12
-0.00024257152
-0.00018294054
3.5789188e-12
-0.00021197317
-0.00018970476
3.3918816e-12
-0.00018018752
-0.00019055041
3.0580783e-12
-0.00014823327
-0.00018525611
2.9331032e-12
-0.00011719273
-0.00017392859
3.1284221e-12
-8.8148912e-05
-0.00015704063
3.2634985e-12
-6.2115349e-05
-0.00013544202
2.8288565e-12
-3.9966474e-05
-0.00011034017
3.0172958e-12
-2.2377608e-05
-8.3250911e-05
6.5980454e-12
-9.7826898e-06
-5.592011e-05
3.5424681e-12
-2.3546938e-06
-3.022735e-05
-1.7424363e-11
-8.1591832e-06
2.1027835e-11
-3.8870477e-06
2.1903188e-05
-3.2512636e-11
-1.404865e-05
6.0857794e-05
3.1759449e-11
-2.9192035e-05
9.4409155e-05
-3.4056498e-12
-4.8215236e-05
0.00012246692
-9.4133124e-12
-7.0187801e-05
0.0001452127
-4.092087e-12
-9.4330005e-05
0.00016296336
-3.6475006e-12
-0.00011998814
0.00017609555
-4.1787098e-12
-0.00014660899
0.00018498833
-4.1326431e-12
-0.00017371578
0.00018998214
-3.9560848e-12
-0.00020088674
0.0001913551
-3.7683453e-12
-0.00022773696
0.00018931452
-3.5271856e-12
-0.00025390367
0.00018400084
-3.2396248e-12
-0.00027903504
0.00017550083
-2.931178e-12
-0.00030278215
0.00016386715
-2.6078912e-12
-0.00032479379
0.00014914138
-2.2454726e-12
-0.00034471387
0.00013137831
-1.8079854e-12
-0.00036218108
0.00011066952
-1.2867554e-12
-0.00037683095
8.7165498e-05
-7.228398e-13
-0.00038830023
6.109518e-05
-1.8125301e-13
-0.00039623408
3.27829e-05
3.2082129e-13
-0.0004002962
2.6624555e-06
8.4637495e-13
-0.0004001837
-2.8714971e-05
1.3556128e-12
-0.00039564388
-6.0671866e-05
1.9778731e-12
-0.00038649719
-9.2409432e-05
2.5828891e-12
-0.00037266246
-0.00012301528
2.9988862e-12
-0.00035418481
-0.00015148396
3.1733408e-12
-0.00033126366
-0.00017675004
3.2427546e-12
-0.00030427772
-0.00019773602
3.3913303e-12
-0.00027380289
-0.00021341538
3.6138991e-12
-0.0002406182
-0.00022288942
3.688472e-12
-0.00020569509
-0.00022547349
3.4663822e-12
-0.00017016631
-0.00022078491
3.1406563e-12
-0.00013527313
-0.00020882181
3.060952e-12
-0.00010229329
-0.00019002047
3.1398936e-12
-7.2455901e-05
-0.00016527939
2.770587e-12
-4.6853269e-05
-0.0001359428
3.086886e-12
-2.6361353e-05
-0.00010374284
7.2916339e-12
-1.158044e-05
-7.0701034e-05
3.557065e-12
-2.8033151e-06
-3.9004453e-05
-2.144173e-11
-1.096252e-05
2.4464358e-11
-4.1321148e-06
2.6035337e-05
-3.4451279e-11
-1.4914087e-05
7.1639735e-05
3.3970526e-11
-3.0957112e-05
0.00011045218
-3.4386981e-12
-5.1080624e-05
0.00014259044
-9.8681201e-12
-7.4292231e-05
0.00016842431
-4.2586341e-12
-9.9766069e-05
0.0001884372
-3.8168226e-12
-0.00012681662
0.0002031461
-4.3958795e-12
-0.00015487122
0.00021304294
-4.364994e-12
-0.00018344384
0.00021855477
-4.2158897e-12
-0.00021211138
0.00022002265
-4.0760803e-12
-0.00024049331
0.00021769645
-3.8837009e-12
-0.00026823479
0.00021174232
-3.6221948e-12
-0.00029499337
0.00020225942
-3.3096943e-12
-0.00032042889
0.00018930267
-2.9743674e-12
-0.00034419623
0.00017290873
-2.6286122e-12
-0.00036594056
0.00015312263
-2.2486212e-12
-0.00038529487
0.00013002383
-1.7897144e-12
-0.00040187983
0.00010375046
-1.2326136e-12
-0.00041530625
7.4521612e-05
-6.1612298e-13
-0.00042518058
4.2657238e-05
2.4691061e-16
-0.00043111377
8.5956537e-06
5.9412076e-13
-0.00043273604
-2.7092722e-05
1.0511258e-12
-0.00042971399
-6.3693932e-05
1.6024706e-12
-0.00042177602
-0.00010034741
2.2569428e-12
-0.00040874156
-0.00013604973
2.8940496e-12
-0.00039055522
-0.00016967027
3.3316705e-12
-0.00036732335
-0.00019998191
3.4964963e-12
-0.00033934967
-0.00022570973
3.5209726e-12
-0.00030716526
-0.00024559981
3.5975254e-12
-0.00027154673
-0.00025850794
3.728026e-12
-0.00023351591
-0.00026350429
3.7109014e-12
-0.00019431489
-0.00025998591
3.4593941e-12
-0.00015535285
-0.00024778387
3.2089553e-12
-0.00011812523
-0.00022724812
3.05816e-12
-8.4111803e-05
-0.00019929282
2.556156e-12
-5.4665457e-05
-0.00016538913
3.0318372e-12
-3.0907326e-05
-0.00012750098
8.1035745e-12
-1.3644692e-05
-8.7963675e-05
3.6609206e-12
-3.3229924e-06
-4.9326131e-05
-2.6019704e-11
-1.4285539e-05
2.8439306e-11
-4.3334523e-06
3.0368825e-05
-3.6095836e-11
-1.5627786e-05
8.2934034e-05
3.5721473e-11
-3.2417892e-05
0.0001272423
-3.534079e-12
-5.3460277e-05
0.00016363284
-1.0298671e-11
-7.7712418e-05
0.00019267645
-4.453373e-12
-0.00010431095
0.00021503574
-4.0310902e-12
-0.00013254484
0.00023138001
-4.6656035e-12
-0.00016182685
0.00024232495
-4.6460993e-12
-0.00019166578
0.0002483937
-4.5020551e-12
-0.00022164113
0.00024999801
-4.3853743e-12
-0.00025138084
0.00024743617
-4.2388904e-12
-0.00028054251
0.00024090399
-4.0309409e-12
-0.00030879807
0.00023051498
-3.7505701e-12
-0.00033582163
0.00021632624
-3.4095166e-12
-0.00036128001
0.00019836713
-3.0404007e-12
-0.00038482578
0.00017666841
-2.6644875e-12
-0.00040609238
0.00015129042
-2.2614589e-12
-0.00042469161
0.00012234968
-1.7803455e-12
-0.00044021367
9.0043674e-05
-1.1874412e-12
-0.00045223047
5.4674042e-05
-5.0623192e-13
-0.00046030285
1.6668047e-05
1.8525371e-13
-0.00046399339
-2.3402176e-05
7.6624797e-13
-0.00046288431
-6.4803023e-05
1.3060408e-12
-0.00045660325
-0.0001066285
1.8913799e-12
-0.00044485594
-0.00014779705
2.5615257e-12
-0.00042746598
-0.00018706022
3.211933e-12
-0.00040442007
-0.0002230278
3.6504525e-12
-0.00037591547
-0.00025421432
3.7923314e-12
-0.00034240446
-0.00027911084
3.7640188e-12
-0.00030462852
-0.0002962839
3.7483879e-12
-0.00026363329
-0.00030449953
3.7484126e-12
-0.00022075504
-0.00030286414
3.6333667e-12
-0.00017757156
-0.00029096734
3.4219039e-12
-0.00013581496
-0.00026900473
3.1134293e-12
-9.7251902e-05
-0.00023785589
2.3419592e-12
-6.3544819e-05
-0.00019909622
2.8719768e-12
-3.6114677e-05
-0.00015493112
8.9704304e-12
-1.6028551e-05
-0.0001080498
3.8002303e-12
-3.9298343e-06
-6.1424818e-05
-3.1284439e-11
-1.8215407e-05
3.3096879e-11
-4.4872211e-06
3.4856083e-05
-3.7400452e-11
-1.6177317e-05
9.4624091e-05
3.6999061e-11
-3.3549884e-05
0.00014461487
-3.6902722e-12
-5.5314528e-05
0.0001853975
-1.0705565e-11
-8.0390328e-05
0.00021775226
-4.6686112e-12
-0.00010788475
0.00024253016
-4.2647611e-12
-0.00013706719
0.00026056245
-4.9607839e-12
-0.00016734019
0.00027259797
-4.9693416e-12
-0.0001982111
0.00027926462
-4.8319009e-12
-0.00022926551
0.00028105242
-4.715787e-12
-0.00026014356
0.00027831422
-4.5835138e-12
-0.00029051954
0.00027127998
-4.4175825e-12
-0.00032008469
0.00026008013
-4.1956646e-12
-0.00034853303
0.00024477458
-3.8944362e-12
-0.00037554978
0.00022538388
-3.5203535e-12
-0.00040080202
0.00020192066
-3.1105265e-12
-0.00042393143
0.00017441984
-2.6957193e-12
-0.00044454913
0.00014296738
-2.2620394e-12
-0.00046223305
0.00010772758
-1.7523808e-12
-0.00047652846
6.8969448e-05
-1.116214e-12
-0.00048695271
2.7092304e-05
-3.7388663e-13
-0.00049300547
-1.7349404e-05
3.6680806e-13
-0.00049418547
-6.3623018e-05
1.0294482e-12
-0.00049001566
-0.00011079831
1.6219817e-12
-0.0004800776
-0.00015773514
2.2326522e-12
-0.00046405552
-0.0002030823
2.9077656e-12
-0.00044178961
-0.0002452937
3.5433399e-12
-0.00041333561
-0.00028266831
3.9476846e-12
-0.00037902583
-0.00031342062
4.0380605e-12
-0.00033952323
-0.00033578652
3.930243e-12
-0.00029585743
-0.00034816535
3.7852649e-12
-0.00024942972
-0.00034929185
3.6484435e-12
-0.0002019749
-0.00033842215
3.512259e-12
-0.00015547278
-0.00031550684
3.1851231e-12
-0.00011201155
-0.00028131713
2.1728074e-12
-7.3617474e-05
-0.00023749031
2.7004634e-12
-4.2076991e-05
-0.00018647161
9.9328558e-12
-1.8783996e-05
-0.0001313428
3.9360546e-12
-4.6400081e-06
-7.5568767e-05
-3.7401957e-11
-2.2855455e-05
3.8561167e-11
-4.5902803e-06
3.9446404e-05
-3.8339149e-11
-1.6552682e-05
0.00010658645
3.7802021e-11
-3.4333336e-05
0.00016239552
-3.8888178e-12
-5.6610864e-05
0.00020767504
-1.1085971e-11
-8.227715e-05
0.00024341855
-4.9140276e-12
-0.00011041814
0.00027067116
-4.5145061e-12
-0.00014028886
0.00029043317
-5.2566562e-12
-0.00017128544
0.00030359455
-5.3042821e-12
-0.0002029168
0.00031089599
-5.1936898e-12
-0.00023477759
0.00031291321
-5.0841198e-12
-0.00026652348
0.00031006012
-4.9435991e-12
-0.00029784934
0.00030260585
-4.7792369e-12
-0.00032847048
0.00029070128
-4.5917007e-12
-0.00035810659
0.00027441069
-4.3506727e-12
-0.00038646811
0.00025374541
-4.0233338e-12
-0.00041324471
0.00022869727
-3.6109652e-12
-0.00043809553
0.00019927067
-3.1529163e-12
-0.00046064137
0.00016551323
-2.6888794e-12
-0.00048045916
0.00012754538
-2.212253e-12
-0.00049707931
8.5589583e-05
-1.6620796e-12
-0.00050998705
4.0000035e-05
-9.7930706e-13
-0.00051862924
-8.7072117e-06
-1.8064277e-13
-0.00052242819
-5.9824052e-05
6.3144537e-13
-0.00052080447
-0.00011242201
1.3646676e-12
-0.00051321075
-0.00016532887
2.0103515e-12
-0.00049917809
-0.00021711499
2.6442762e-12
-0.00047837537
-0.00026609644
3.3033052e-12
-0.00045068047
-0.00031036321
3.882717e-12
-0.00041625879
-0.00034784229
4.2035178e-12
-0.00037564075
-0.00037640456
4.1932959e-12
-0.00032978523
-0.00039402088
3.9550837e-12
-0.00028011183
-0.00039896527
3.6714471e-12
-0.00022848366
-0.00039005032
3.4842431e-12
-0.00017712611
-0.00036686439
3.1423841e-12
-0.00012847761
-0.00032996562
1.9480438e-12
-8.4985557e-05
-0.00028098237
2.5253663e-12
-4.8878626e-05
-0.00022257856
1.1064018e-11
-2.1960819e-05
-0.00015826061
4.0887766e-12
-5.4696761e-06
-9.2059863e-05
-4.4518536e-11
-2.8325175e-05
4.4941989e-11
-4.6407172e-06
4.4087161e-05
-3.8908109e-11
-1.6747981e-05
0.00011869368
3.8125337e-11
-3.47563e-05
0.00018040385
-4.1045848e-12
-5.7328444e-05
0.00023024719
-1.1420597e-11
-8.3339236e-05
0.00026942935
-5.1942107e-12
-0.00011185968
0.00029919161
-4.7959567e-12
-0.0001421347
0.0003207082
-5.556158e-12
-0.00017355696
0.00033501682
-5.629542e-12
-0.00020563937
0.0003429784
-5.553715e-12
-0.00023798802
0.00034526187
-5.4716894e-12
-0.00027027692
0.00034234902
-5.3336923e-12
-0.0003022251
0.00033455403
-5.1487203e-12
-0.00033357642
0.00032205261
-4.9455307e-12
-0.00036408195
0.00030491622
-4.7250614e-12
-0.00039348447
0.00028314794
-4.4533545e-12
-0.00042150488
0.00025671768
-4.0908402e-12
-0.0004478302
0.00022559598
-3.6323915e-12
-0.0004721031
0.00018978614
-3.1170936e-12
-0.0004939134
0.00014935569
-2.5918151e-12
-0.00051279194
0.00010446813
-2.0569661e-12
-0.00052820795
5.5416031e-05
-1.4524376e-12
-0.00053957127
2.6561019e-06
-7.11859e-13
-0.00054624171
-5.3153614e-05
1.3559748e-13
-0.00054754728
-0.00011111643
1.0119994e-12
-0.00054281487
-0.00017006127
1.8087113e-12
-0.00053141568
-0.00022851418
2.4997666e-12
-0.00051282793
-0.0002846842
3.1386676e-12
-0.00048671726
-0.00033647388
3.7429986e-12
-0.00045303236
-0.0003815272
4.2075241e-12
-0.00041210813
-0.00041732877
4.373341e-12
-0.00036476265
-0.00044136636
4.1868313e-12
-0.00031236673
-0.0004513612
3.79586e-12
-0.00025686074
-0.00044555633
3.4636845e-12
-0.00020069375
-0.00042303138
2.9964885e-12
-0.00014667109
-0.00038398828
1.5728584e-12
-9.7717378e-05
-0.00032993608
2.2635669e-12
-5.6590316e-05
-0.00026370564
1.2374684e-11
-2.560532e-05