/*--------------------------------*- C++ -*----------------------------------*\
  =========                 |
  \\      /  F ield         | OpenFOAM: The Open Source CFD Toolbox
   \\    /   O peration     | Website:  https://openfoam.org
    \\  /    A nd           | Version:  7
     \\/     M anipulation  |
\*---------------------------------------------------------------------------*/
FoamFile
{
    version     2.0;
    format      ascii;
    class       volVectorField;
    location    "31";
    object      U_0;
}
// * * * * * * * * * * * * * * * * * * * * * * * * * * * * * * * * * * * * * //

dimensions      [0 1 -1 0 0 0 0];

internalField   nonuniform List<vector> 
16000
(
(6.6016095e-05 -6.736097e-05 -4.2371727e-07)
(0.00016271276 -5.6370799e-05 5.6757284e-06)
(0.00014190511 4.5691428e-07 1.9175394e-05)
(-5.062556e-05 6.1888236e-05 3.6597875e-05)
(-0.00040997534 0.00011562997 5.4706429e-05)
(-0.00090902751 0.00015774332 7.1534819e-05)
(-0.0015177124 0.00018850449 8.5746947e-05)
(-0.0022068867 0.00020960891 9.6527635e-05)
(-0.0029506015 0.0002228767 0.00010341655)
(-0.0037264644 0.0002298111 0.00010616677)
(-0.0045150494 0.00023147707 0.0001046511)
(-0.0052990114 0.00022850382 9.8806481e-05)
(-0.0060621907 0.00022114723 8.8608243e-05)
(-0.0067888613 0.000209383 7.4066909e-05)
(-0.0074632129 0.00019301385 5.5241235e-05)
(-0.0080691136 0.00017178079 3.2261484e-05)
(-0.0085901658 0.00014547168 5.3575962e-06)
(-0.0090100457 0.00011402167 -2.5112549e-05)
(-0.0093130983 7.7601156e-05 -5.8639121e-05)
(-0.0094851446 3.6687557e-05 -9.454446e-05)
(-0.0095144444 -7.8857222e-06 -0.00013197886)
(-0.0093927256 -5.4923279e-05 -0.00016993105)
(-0.0091162195 -0.00010284332 -0.00020725453)
(-0.008686598 -0.00014975014 -0.00024271153)
(-0.0081116887 -0.00019351301 -0.00027503247)
(-0.007405894 -0.00023188598 -0.00030298865)
(-0.0065902198 -0.00026265892 -0.00032547363)
(-0.0056918526 -0.00028382491 -0.00034158716)
(-0.0047432577 -0.00029374809 -0.00035071462)
(-0.0037808153 -0.00029131441 -0.00035259454)
(-0.0028430638 -0.00027604934 -0.00034736716)
(-0.0019686562 -0.00024818775 -0.00033559966)
(-0.0011941484 -0.00020869286 -0.00031828736)
(-0.00055166597 -0.00015925797 -0.00029683438)
(-6.650124e-05 -0.00010240946 -0.00027300957)
(0.00024492496 -4.1761481e-05 -0.00024887097)
(0.00037893678 1.7847091e-05 -0.00022680147)
(0.00034977306 6.7080463e-05 -0.00020923765)
(0.00020617671 8.9868681e-05 -0.00019885032)
(5.7462206e-05 5.7416594e-05 -0.00018440483)
(5.798766e-05 -0.00016707014 -6.6553327e-06)
(4.0856548e-05 -3.9983608e-05 -4.023034e-07)
(-0.00029499314 0.00024855329 1.123114e-05)
(-0.0010110376 0.00056211788 2.5597119e-05)
(-0.0020992388 0.00084749385 4.0582073e-05)
(-0.0035140962 0.0010831195 5.4590209e-05)
(-0.0051946924 0.0012643008 6.6494239e-05)
(-0.0070766342 0.0013940676 7.5541853e-05)
(-0.0090981533 0.0014779607 8.1251227e-05)
(-0.011202307 0.0015215272 8.3322696e-05)
(-0.013337034 0.0015292111 8.157295e-05)
(-0.015454176 0.0015039756 7.5892049e-05)
(-0.017508146 0.0014473572 6.6221662e-05)
(-0.019454711 0.0013597781 5.2551005e-05)
(-0.02125015 0.0012410023 3.4926154e-05)
(-0.022850968 0.0010906592 1.3468266e-05)
(-0.024214217 0.00090877556 -1.160364e-05)
(-0.025298423 0.00069627584 -3.9949533e-05)
(-0.026065045 0.00045541421 -7.1088755e-05)
(-0.026480385 0.00019010688 -0.00010438718)
(-0.026517802 -9.3864378e-05 -0.00013905412)
(-0.026159976 -0.00038877397 -0.0001741581)
(-0.025401158 -0.0006850892 -0.00020864319)
(-0.024249158 -0.00097175876 -0.00024137674)
(-0.022726739 -0.0012366947 -0.00027120293)
(-0.020872339 -0.0014674286 -0.00029701031)
(-0.018739906 -0.0016519038 -0.00031780706)
(-0.016397714 -0.0017793467 -0.00033279788)
(-0.013926125 -0.0018411428 -0.00034145565)
(-0.011414313 -0.0018316362 -0.00034358122)
(-0.0089560914 -0.0017487805 -0.00033934514)
(-0.0066450001 -0.0015945889 -0.00032930643)
(-0.0045688991 -0.0013753851 -0.00031440575)
(-0.0028042316 -0.0011019589 -0.00029593442)
(-0.0014100245 -0.0007899205 -0.00027548274)
(-0.00042162833 -0.00046059607 -0.00025486399)
(0.00015578133 -0.00014256609 -0.00023599277)
(0.00035673208 0.00012231996 -0.00022088789)
(0.0002752517 0.00027114632 -0.00021165146)
(9.0112446e-05 0.00020510634 -0.00019546527)
(1.9119972e-06 -0.00014897683 -2.0441643e-05)
(-0.00025606208 0.00029700406 -1.1823847e-05)
(-0.0010504659 0.0010236119 7.4454872e-08)
(-0.0023878396 0.0017975302 1.3054525e-05)
(-0.0042394541 0.0025098972 2.6090743e-05)
(-0.0065455704 0.0031100528 3.8042224e-05)
(-0.0092251295 0.0035809224 4.808198e-05)
(-0.012190002 0.0039234308 5.5649379e-05)
(-0.015352989 0.0041461835 6.0362774e-05)
(-0.018631053 0.0042595896 6.1965457e-05)
(-0.021946074 0.004272814 6.0284478e-05)
(-0.025224249 0.0041924745 5.5202046e-05)
(-0.028394913 0.0040224689 4.6641879e-05)
(-0.031389378 0.003764523 3.4568887e-05)
(-0.034140206 0.0034191694 1.8999186e-05)
(-0.036581127 0.002986939 1.7255359e-08)
(-0.038647734 0.0024696056 -2.2203119e-05)
(-0.040278927 0.001871359 -4.7377488e-05)
(-0.041419037 0.0011998082 -7.5092279e-05)
(-0.042020485 0.00046672971 -0.00010479253)
(-0.04204675 -0.0003115001 -0.00013578037)
(-0.041475455 -0.001113811 -0.00016722071)
(-0.040301303 -0.0019148745 -0.00019816653)
(-0.038538543 -0.0026858596 -0.00022759474)
(-0.036222741 -0.0033956761 -0.00025445701)
(-0.03341157 -0.004012607 -0.00027774254)
(-0.030184418 -0.0045062487 -0.00029654855)
(-0.026640637 -0.004849635 -0.0003101525)
(-0.022896378 -0.0050213833 -0.00031807904)
(-0.019080019 -0.0050076818 -0.00032015453)
(-0.015326326 -0.0048039511 -0.00031654316)
(-0.011769567 -0.0044160705 -0.00030776017)
(-0.0085358331 -0.0038611632 -0.00029465952)
(-0.005734885 -0.0031680989 -0.00027839589)
(-0.0034517128 -0.0023781063 -0.00026036441)
(-0.0017379854 -0.0015461842 -0.00024212015)
(-0.0006036803 -0.00074419425 -0.0002252714)
(-8.0274461e-06 -6.637098e-05 -0.00021140993)
(0.00015540678 0.0003603931 -0.00020222607)
(7.3547704e-05 0.00035438129 -0.00018531081)
(-6.4687331e-05 5.0417363e-05 -3.8693604e-05)
(-0.00060838914 0.0010457481 -2.6155824e-05)
(-0.0019305498 0.002381724 -1.217452e-05)
(-0.0039464501 0.0037565075 1.1182866e-06)
(-0.0065890266 0.0050153042 1.3706543e-05)
(-0.0097792107 0.0060800549 2.4830846e-05)
(-0.013417136 0.0069205144 3.3953954e-05)
(-0.017395538 0.0075341068 4.0740581e-05)
(-0.021607745 0.0079313903 4.4954803e-05)
(-0.025950703 0.0081270347 4.6424785e-05)
(-0.030325856 0.0081347633 4.5019722e-05)
(-0.034638804 0.0079649972 4.0633259e-05)
(-0.038798368 0.0076243709 3.3178323e-05)
(-0.042715687 0.0071165044 2.2592667e-05)
(-0.046303752 0.0064435502 8.8526607e-06)
(-0.049477668 0.0056081411 -8.0071746e-06)
(-0.052155723 0.0046154467 -2.7871544e-05)
(-0.054261286 0.0034751103 -5.0521442e-05)
(-0.055725413 0.002202889 -7.5613862e-05)
(-0.056490015 0.00082185218 -0.00010266751)
(-0.056511314 -0.00063696868 -0.00013105769)
(-0.055763416 -0.0021345954 -0.00016001935)
(-0.054241642 -0.0036248129 -0.00018867048)
(-0.051965294 -0.0050556169 -0.00021604418)
(-0.048979643 -0.0063713879 -0.00024113762)
(-0.045356791 -0.0075157134 -0.00026297322)
(-0.041195174 -0.0084347242 -0.00028066853)
(-0.036617519 -0.0090807476 -0.00029350881)
(-0.031767131 -0.0094160232 -0.00030101498)
(-0.026802512 -0.0094161944 -0.0003029985)
(-0.021890415 -0.0090732968 -0.00029959606)
(-0.017197566 -0.0083980368 -0.00029127924)
(-0.012881378 -0.0074212978 -0.00027883739)
(-0.0090800471 -0.006195026 -0.00026333399)
(-0.0059024819 -0.0047929302 -0.00024603902)
(-0.0034185049 -0.0033118108 -0.00022834356)
(-0.0016495375 -0.0018745281 -0.00021167356)
(-0.0005597974 -0.00063471059 -0.00019741961)
(-5.011036e-05 0.00021499595 -0.00018681648)
(3.8095065e-05 0.0004138327 -0.00016800794)
(-0.00013086691 0.00044555763 -5.8209918e-05)
(-0.00097095488 0.0022426767 -4.1145897e-05)
(-0.0028462197 0.0043591691 -2.4263482e-05)
(-0.0055648212 0.0064571975 -9.8311625e-06)
(-0.0090094481 0.0083534602 3.0873992e-06)
(-0.013075464 0.0099514379 1.4067449e-05)
(-0.017642278 0.011211735 2.2846012e-05)
(-0.022584675 0.012129572 2.9318259e-05)
(-0.027779623 0.012717515 3.3407001e-05)
(-0.033108099 0.012994137 3.5039418e-05)
(-0.038455477 0.012977357 3.4138238e-05)
(-0.043711106 0.012681207 3.0615037e-05)
(-0.048767493 0.012115123 2.4372906e-05)
(-0.053519602 0.011284982 1.5318319e-05)
(-0.057864667 0.010195255 3.3799627e-06)
(-0.061702759 0.0088517373 -1.1467619e-05)
(-0.064938191 0.0072644366 -2.9177766e-05)
(-0.067481755 0.0054502896 -4.9605263e-05)
(-0.069253663 0.0034354347 -7.2482401e-05)
(-0.070187036 0.0012568444 -9.7400558e-05)
(-0.070231687 -0.0010368492 -0.00012380046)
(-0.069357979 -0.0033854728 -0.0001509737)
(-0.067560427 -0.0057183927 -0.00017807941)
(-0.064860765 -0.0079566819 -0.00020417598)
(-0.061310171 -0.010016296 -0.00022826887)
(-0.05699034 -0.011812181 -0.00024937212)
(-0.052013131 -0.013263131 -0.00026657989)
(-0.046518539 -0.014297138 -0.00027914191)
(-0.040670831 -0.014856885 -0.00028653543)
(-0.034652752 -0.014904992 -0.00028852419)
(-0.028657891 -0.0144286 -0.00028519592)
(-0.022881404 -0.013442957 -0.00027697152)
(-0.017509478 -0.011993818 -0.00026458412)
(-0.012708051 -0.010158716 -0.00024902973)
(-0.0086114592 -0.0080475033 -0.00023149213)
(-0.0053117536 -0.0058029601 -0.00021325347)
(-0.0028485254 -0.003602471 -0.00019562919)
(-0.0012000379 -0.0016605417 -0.00017988331)
(-0.00028880733 -0.00023378213 -0.0001667377)
(-2.4692515e-06 0.0003504635 -0.00014550351)
(-0.00019286559 0.0010313004 -7.6690189e-05)
(-0.0013239889 0.0038925197 -5.4787515e-05)
(-0.0037518612 0.0069679816 -3.4582723e-05)
(-0.0071733043 0.0099107999 -1.8489228e-05)
(-0.011414811 0.012527379 -4.6935046e-06)
(-0.016341484 0.014714486 6.6692754e-06)
(-0.021809616 0.016430485 1.5586175e-05)
(-0.027675871 0.017672003 2.2171803e-05)
(-0.033802385 0.018455233 2.6504588e-05)
(-0.040056831 0.0188032 2.8611237e-05)
(-0.046311816 0.018738066 2.8469025e-05)
(-0.052444034 0.018277396 2.6007039e-05)
(-0.058333325 0.017433425 2.1115712e-05)
(-0.063862027 0.016214485 1.366484e-05)
(-0.068914955 0.014627816 3.5278821e-06)
(-0.073380162 0.012683103 -9.3893151e-06)
(-0.077150571 0.010396205 -2.5117339e-05)
(-0.080126409 0.0077926337 -4.3591824e-05)
(-0.082218348 0.0049104433 -6.4624464e-05)
(-0.083351175 0.0018022819 -8.7879364e-05)
(-0.08346778 -0.0014636057 -0.00011285799)
(-0.08253322 -0.0048035742 -0.00013889644)
(-0.080538612 -0.0081200413 -0.00016517713)
(-0.077504546 -0.011304329 -0.00019075867)
(-0.073483725 -0.014240823 -0.00021462307)
(-0.068562501 -0.01681238 -0.00023573908)
(-0.062860977 -0.018906768 -0.00025313739)
(-0.056531376 -0.020423845 -0.00026599142)
(-0.049754393 -0.021283038 -0.00027369535)
(-0.042733379 -0.021430603 -0.00027593014)
(-0.035686339 -0.020846114 -0.00027270752)
(-0.028835904 -0.019547663 -0.00026438343)
(-0.022397703 -0.017595379 -0.00025163696)
(-0.016567758 -0.015093159 -0.0002354164)
(-0.011509859 -0.012188857 -0.00021685583)
(-0.0073438927 -0.0090736743 -0.00019718082)
(-0.004134536 -0.0059816734 -0.00017766738)
(-0.0018816017 -0.0031890359 -0.0001595512)
(-0.00053619296 -0.0010143218 -0.00014315791)
(-4.124471e-05 0.00015894736 -0.00011906495)
(-0.0002501169 0.0017985654 -9.2176958e-05)
(-0.0016597737 0.0059841283 -6.528804e-05)
(-0.0046244576 0.010198599 -4.1601633e-05)
(-0.0087321704 0.014107 -2.3546782e-05)
(-0.013751604 0.017522315 -8.5083864e-06)
(-0.019515076 0.020347096 3.6305872e-06)
(-0.025854137 0.022545903 1.3081932e-05)
(-0.032606996 0.024121982 2.0161741e-05)
(-0.039621864 0.025098089 2.5092244e-05)
(-0.046754988 0.025503159 2.7991686e-05)
(-0.053868771 0.025364211 2.8885674e-05)
(-0.060830214 0.024702521 2.771498e-05)
(-0.067509603 0.023533159 2.4351091e-05)
(-0.073779725 0.021866966 1.8619958e-05)
(-0.079515833 0.019714112 1.0331738e-05)
(-0.084596455 0.017088482 -6.8510537e-07)
(-0.088905079 0.014012227 -1.454705e-05)
(-0.092332653 0.010520005 -3.1278254e-05)
(-0.094780771 0.0066624793 -5.0775423e-05)
(-0.096165416 0.0025088065 -7.2777889e-05)
(-0.096421071 -0.0018521422 -9.6846361e-05)
(-0.095504982 -0.0063119875 -0.00012235486)
(-0.093401387 -0.01074458 -0.00014849684)
(-0.090125435 -0.015009412 -0.00017431243)
(-0.085726461 -0.018956657 -0.00019873432)
(-0.080290301 -0.022433812 -0.00022065315)
(-0.073940248 -0.025293734 -0.00023899793)
(-0.066836214 -0.027403753 -0.00025282441)
(-0.059171731 -0.028655358 -0.00026140218)
(-0.051168484 -0.028973806 -0.00026429046)
(-0.043068225 -0.028326916 -0.00026139172)
(-0.035122178 -0.026732274 -0.00025297385)
(-0.02757833 -0.024262234 -0.00023965455)
(-0.020667344 -0.021046293 -0.00022234684)
(-0.014588347 -0.017270891 -0.00020216806)
(-0.0094958136 -0.013177223 -0.00018033826)
(-0.0054864852 -0.0090579311 -0.00015816198)
(-0.0025879528 -0.0052522175 -0.0001369304)
(-0.00078447054 -0.002140534 -0.00011664738)
(-7.6874058e-05 -0.00016053888 -8.944146e-05)
(-0.00030295629 0.0027365246 -0.00010300059)
(-0.001975499 0.0084980922 -7.1030962e-05)
(-0.005452141 0.014028562 -4.3883101e-05)
(-0.010217971 0.019021373 -2.3738403e-05)
(-0.015985177 0.023311077 -7.2430789e-06)
(-0.022552792 0.026818178 5.94594e-06)
(-0.029727174 0.029522412 1.624321e-05)
(-0.037328192 0.031439759 2.4146609e-05)
(-0.045190965 0.032603386 3.0006241e-05)
(-0.053161866 0.033050356 3.4019025e-05)
(-0.061095217 0.032813677 3.6248069e-05)
(-0.068850824 0.03191881 3.6636209e-05)
(-0.0762921 0.030383771 3.5026931e-05)
(-0.083284945 0.028221847 3.1193375e-05)
(-0.089697502 0.025446008 2.487321e-05)
(-0.095400839 0.022074161 1.5807995e-05)
(-0.10027052 0.018134562 3.7855833e-06)
(-0.10418898 0.013670798 -1.1316372e-05)
(-0.10704866 0.0087459274 -2.9488458e-05)
(-0.10875567 0.0034454476 -5.0552281e-05)
(-0.109234 -0.0021211605 -7.4131869e-05)
(-0.10842993 -0.0078205127 -9.9639343e-05)
(-0.10631678 -0.013497138 -0.00012627401)
(-0.1028994 -0.018977271 -0.00015304607)
(-0.098218379 -0.024074589 -0.0001788198)
(-0.092353513 -0.028597946 -0.00020238006)
(-0.085425994 -0.032360966 -0.00022251789)
(-0.077598865 -0.035193176 -0.00023812818)
(-0.069075139 -0.036952139 -0.00024830933)
(-0.060093098 -0.037535829 -0.00025245281)
(-0.050918454 -0.036894241 -0.00025031062)
(-0.04183334 -0.035039205 -0.00024203021)
(-0.033122469 -0.032051373 -0.00022814948)
(-0.025057293 -0.028083637 -0.00020954781)
(-0.017879648 -0.023360668 -0.00018735088)
(-0.011786478 -0.01817499 -0.00016282083)
(-0.0069140642 -0.012880396 -0.0001373568)
(-0.0033238354 -0.0078822632 -0.00011238508)
(-0.0010368628 -0.0036261494 -8.7677474e-05)
(-0.00011093562 -0.00060701998 -5.7237012e-05)
(-0.00035169315 0.003833817 -0.0001076975)
(-0.0022696852 0.01141035 -7.0542176e-05)
(-0.0062274769 0.018427283 -4.0064223e-05)
(-0.011614744 0.024619936 -1.7813738e-05)
(-0.018090309 0.029857536 2.5026101e-07)
(-0.02542101 0.034089851 1.4679654e-05)
(-0.033388699 0.037320685 2.607392e-05)
(-0.041795651 0.039585219 3.5093866e-05)
(-0.050464942 0.040931413 4.2200541e-05)
(-0.059234558 0.041407209 4.7654754e-05)
(-0.067952636 0.041053156 5.1544161e-05)
(-0.076473996 0.03989964 5.3802118e-05)
(-0.084657549 0.037967816 5.4233451e-05)
(-0.092364661 0.035273249 5.2548159e-05)
(-0.099458534 0.031831271 4.8400959e-05)
(-0.10580457 0.027663168 4.1435525e-05)
(-0.11127162 0.022802452 3.1332306e-05)
(-0.11573417 0.017300623 1.7858194e-05)
(-0.1190751 0.011231984 9.1560364e-07)
(-0.12118935 0.0046971964 -1.9412189e-05)
(-0.12198803 -0.0021747049 -4.2823715e-05)
(-0.12140307 -0.0092260591 -6.8777569e-05)
(-0.11939242 -0.016272181 -9.6481681e-05)
(-0.11594543 -0.023105271 -0.00012491256)
(-0.11108817 -0.029500559 -0.00015285364)
(-0.10488836 -0.035224916 -0.00017896128)
(-0.097459266 -0.040047888 -0.00020185431)
(-0.088961987 -0.043754898 -0.00022022143)
(-0.079605219 -0.046162092 -0.00023293605)
(-0.069641861 -0.047131934 -0.00023916499)
(-0.059361844 -0.046588334 -0.00023845608)
(-0.049080934 -0.044529851 -0.00023079173)
(-0.039125735 -0.041039482 -0.00021659989)
(-0.029815729 -0.036289748 -0.00019671603)
(-0.021444135 -0.03054237 -0.00017228883)
(-0.014259506 -0.024142628 -0.00014466347)
(-0.0084461196 -0.017509192 -0.0001153977)
(-0.0041057528 -0.011119102 -8.6131763e-05)
(-0.0013000782 -0.0054896944 -5.6472204e-05)
(-0.00014466056 -0.0011817412 -2.2519312e-05)
(-0.00039639227 0.0050786705 -0.00010494848)
(-0.0025408038 0.014693476 -6.2469106e-05)
(-0.0069442105 0.023357961 -2.886291e-05)
(-0.012909242 0.030860787 -4.5613381e-06)
(-0.020045648 0.037117323 1.5118414e-05)
(-0.028090298 0.042116877 3.0925669e-05)
(-0.036802137 0.045895755 4.3630578e-05)
(-0.045967182 0.048514785 5.4039943e-05)
(-0.055397816 0.05004133 6.2709631e-05)
(-0.064925179 0.050537273 6.9949668e-05)
(-0.074393034 0.050052565 7.5859049e-05)
(-0.08365325 0.048623457 8.0349744e-05)
(-0.092562406 0.046274508 8.3176826e-05)
(-0.1009795 0.043023293 8.3976218e-05)
(-0.10876481 0.038886804 8.2308185e-05)
(-0.11577972 0.033888607 7.7705861e-05)
(-0.12188757 0.028066 6.9728006e-05)
(-0.12695533 0.021476592 5.8014566e-05)
(-0.13085605 0.014203875 4.2342867e-05)
(-0.1334722 0.0063614915 2.2681748e-05)
(-0.1346997 -0.0019040775 -7.6107256e-07)
(-0.13445276 -0.010412642 -2.7510028e-05)
(-0.13266954 -0.018951362 -5.6793118e-05)
(-0.12931849 -0.027278385 -8.7558937e-05)
(-0.12440503 -0.035129011 -0.00011850537)
(-0.11797821 -0.04222486 -0.00014814278)
(-0.1101368 -0.048286133 -0.00017488595)
(-0.1010339 -0.053046868 -0.00019717026)
(-0.090879039 -0.05627272 -0.00021358323)
(-0.079936732 -0.057780307 -0.00022299711)
(-0.068520608 -0.057456665 -0.00022468467)
(-0.056982413 -0.055276894 -0.00021840078)
(-0.04569594 -0.051317878 -0.00020441716)
(-0.035036643 -0.04576608 -0.00018350134)
(-0.025358963 -0.038918042 -0.00015682777)
(-0.016973697 -0.031173308 -0.00012585663)
(-0.010123127 -0.023020483 -9.2364853e-05)
(-0.0049573017 -0.015016285 -5.828612e-05)
(-0.0015839098 -0.0077601705 -2.3114063e-05)
(-0.00018000403 -0.0018919994 1.4751672e-05)
(-0.00043687296 0.0064585647 -9.355107e-05)
(-0.0027868505 0.01831689 -4.5572933e-05)
(-0.0075958959 0.028778305 -9.0885396e-06)
(-0.014088633 0.037694885 1.716537e-05)
(-0.021830796 0.045038185 3.8469161e-05)
(-0.030532252 0.050846245 5.5761474e-05)
(-0.039931297 0.055195662 6.9971503e-05)
(-0.049799483 0.058179087 8.2037232e-05)
(-0.059940102 0.059887891 9.2595009e-05)
(-0.07017908 0.060401118 0.00010199082)
(-0.080357577 0.059780164 0.0001103229)
(-0.090326459 0.058068251 0.00011747078)
(-0.099942026 0.055293661 0.00012312927)
(-0.109063 0.051475647 0.0001268495)
(-0.11754866 0.046631933 0.00012808538)
(-0.12525811 0.040786873 0.00012624545)
(-0.13205044 0.033979532 0.00012074986)
(-0.13778583 0.026271117 0.0001110914)
(-0.14232747 0.017751394 9.6898707e-05)
(-0.14554445 0.0085438166 7.7999586e-05)
(-0.14731565 -0.0011908487 5.4479928e-05)
(-0.14753455 -0.011252619 2.6717428e-05)
(-0.14611537 -0.021402734 -4.5574912e-06)
(-0.14300045 -0.031366209 -3.8283898e-05)
(-0.1381682 -0.040837662 -7.308004e-05)
(-0.13164191 -0.049490568 -0.00010730038)
(-0.12349836 -0.056990398 -0.00013912725)
(-0.11387526 -0.063011772 -0.00016669448)
(-0.1029765 -0.06725931 -0.00018823613)
(-0.091073482 -0.069491251 -0.00020224662)
(-0.078501357 -0.069544157 -0.00020763279)
(-0.065648961 -0.067356309 -0.00020383526)
(-0.052941993 -0.062986888 -0.00019089962)
(-0.040820042 -0.056627992 -0.00016948189)
(-0.029709652 -0.048607146 -0.00014077016)
(-0.019996211 -0.039379393 -0.0001063611)
(-0.011992167 -0.029509494 -6.8306983e-05)
(-0.0059060234 -0.019644345 -2.8915683e-05)
(-0.0018995935 -0.010479294 1.2393016e-05)
(-0.00021911026 -0.0027504903 5.4732081e-05)
(-0.00047276045 0.0079598478 -7.2414471e-05)
(-0.0030053051 0.02224665 -1.8731903e-05)
(-0.0081754772 0.034640686 2.0345048e-05)
(-0.01513963 0.045066357 4.8425664e-05)
(-0.02342506 0.053560127 7.1340764e-05)
(-0.032718071 0.060216861 9.0211381e-05)
(-0.042738956 0.06516047 0.00010611573)
(-0.053246894 0.068521181 0.00012011007)
(-0.064037846 0.070418832 0.00013289911)
(-0.0749342 0.070952872 0.00014485386)
(-0.085776265 0.070198314 0.00015606183)
(-0.096415775 0.06820657 0.00016636091)
(-0.10671075 0.065010048 0.00017537669)
(-0.11652167 0.060629315 0.0001825658)
(-0.12570888 0.055081753 0.00018726424)
(-0.13413103 0.048390729 0.00018874128)
(-0.14164455 0.040594611 0.00018625947)
(-0.14810395 0.031755098 0.00017914036)
(-0.15336312 0.021964574 0.00016683451)
(-0.15727759 0.011352262 0.00014899281)
(-0.15970795 8.9021938e-05 0.00012553571)
(-0.16052484 -0.011609425 9.6723996e-05)
(-0.15961522 -0.023481671 6.3186684e-05)
(-0.15689035 -0.035221758 2.5966351e-05)
(-0.1522955 -0.046483991 -1.3494788e-05)
(-0.14582076 -0.056891658 -5.3397314e-05)
(-0.13751243 -0.066050499 -9.1669911e-05)
(-0.12748399 -0.073567386 -0.00012609767)
(-0.11592509 -0.079074214 -0.00015448773)
(-0.10310682 -0.082256198 -0.00017485998)
(-0.089381192 -0.082882801 -0.00018564276)
(-0.075173017 -0.080838414 -0.00018584691)
(-0.060963154 -0.076148977 -0.00017518995)
(-0.047263074 -0.069000332 -0.00015414368)
(-0.034583078 -0.059744587 -0.00012387589)
(-0.023397388 -0.048892487 -8.6127633e-05)
(-0.01410344 -0.037091884 -4.3277993e-05)
(-0.006981431 -0.025092613 1.9074285e-06)
(-0.0022590058 -0.013702944 5.0054924e-05)
(-0.00026414604 -0.0037760387 9.7612333e-05)
(-0.00050355078 0.0095674355 -4.056899e-05)
(-0.0031932742 0.026445171 1.9046363e-05)
(-0.0086754001 0.040892072 6.0402158e-05)
(-0.016048486 0.05291255 9.0167758e-05)
(-0.024807351 0.062615376 0.00011467172)
(-0.0346184 0.070159176 0.00013521032)
(-0.04518677 0.075721355 0.00015300161)
(-0.056261473 0.079474954 0.00016920881)
(-0.067632936 0.081572496 0.0001845953)
(-0.079121672 0.082137042 0.00019954894)
(-0.090568825 0.081259468 0.00021413956)
(-0.1018288 0.079000726 0.00022815703)
(-0.1127633 0.075397849 0.00024115116)
(-0.12323663 0.070472411 0.0002524763)
(-0.13311233 0.064240326 0.0002613402)
(-0.14225071 0.056722045 0.00026685849)
(-0.15050754 0.047952492 0.00026811615)
(-0.1577334 0.037990325 0.00026423659)
(-0.16377422 0.026926302 0.00025445773)
(-0.16847271 0.014890609 0.00023821238)
(-0.17167125 0.002059042 0.00021521031)
(-0.17321654 -0.011342239 0.00018552759)
(-0.17296587 -0.025033741 0.00014965225)
(-0.17079565 -0.038682215 0.00010855515)
(-0.16661237 -0.051903581 6.3699095e-05)
(-0.16036544 -0.064270338 1.7017493e-05)
(-0.15206151 -0.075324564 -2.9157354e-05)
(-0.14177934 -0.084597475 -7.2221261e-05)
(-0.12968344 -0.091635993 -0.00010947836)
(-0.11603431 -0.096035895 -0.00013836449)
(-0.10119271 -0.097479847 -0.00015669386)
(-0.085615049 -0.095777061 -0.00016289906)
(-0.069838022 -0.090899795 -0.00015622786)
(-0.054451403 -0.083010892 -0.00013685485)
(-0.04006117 -0.072476713 -0.0001058605)
(-0.027246476 -0.059861688 -6.5117233e-05)
(-0.016507699 -0.045903599 -1.737583e-05)
(-0.008213768 -0.031469856 3.405184e-05)
(-0.0026743195 -0.017501838 8.9817669e-05)
(-0.00031729591 -0.0049938539 0.00014353589)
(-0.00052868042 0.01126464 2.81557e-06)
(-0.003347737 0.030871082 6.8606373e-05)
(-0.0090880477 0.047474019 0.00011190436)
(-0.016801577 0.061164103 0.00014320337)
(-0.025956874 0.072128348 0.00016926972)
(-0.036204162 0.080594855 0.00019156674)
(-0.04723627 0.086799804 0.00021144345)
(-0.058794214 0.090963708 0.00023016026)
(-0.07066462 0.093275707 0.00024853197)
(-0.08266768 0.093885611 0.00026695837)
(-0.09464695 0.09290247 0.00028548814)
(-0.10646122 0.09039827 0.00030386035)
(-0.11797776 0.086415332 0.00032154584)
(-0.12906683 0.080976063 0.00033779184)
(-0.13959742 0.074093879 0.00035166978)
(-0.14943395 0.065784385 0.00036212869)
(-0.15843397 0.056076223 0.00036805634)
(-0.16644663 0.045021262 0.00036834994)
(-0.17331216 0.032704002 0.00036199678)
(-0.17886246 0.019250188 0.00034816371)
(-0.18292311 0.0048345461 0.00032629321)
(-0.18531731 -0.010312553 0.00029620495)
(-0.18587192 -0.025899782 0.00025818065)
(-0.18442612 -0.041572042 0.00021304859)
(-0.18084309 -0.056910814 0.00016223045)
(-0.1750246 -0.071439306 0.00010775016)
(-0.16692822 -0.084633939 5.218644e-05)
(-0.15658621 -0.095943739 -1.442533e-06)
(-0.14412456 -0.10481878 -4.9866993e-05)
(-0.12977944 -0.1107479 -8.9820723e-05)
(-0.11390796 -0.11330447 -0.00011834506)
(-0.096989333 -0.11219666 -0.00013310925)
(-0.079612797 -0.1073167 -0.00013270212)
(-0.062450261 -0.098781287 -0.00011683593)
(-0.046214665 -0.086954958 -8.638942e-05)
(-0.031607735 -0.07244988 -4.3320336e-05)
(-0.019254146 -0.056099241 9.2167096e-06)
(-0.009633135 -0.038903913 6.7269352e-05)
(-0.0031578284 -0.021961646 0.00013149706)
(-0.00038078504 -0.0064355908 0.00019252447)
(-0.00054759883 0.013033159 5.8406657e-05)
(-0.003465856 0.035479348 0.00013062324)
(-0.0094063924 0.054322932 0.00017550831)
(-0.017386387 0.06974524 0.0002081822)
(-0.026854421 0.082015837 0.00023578117)
(-0.037448134 0.091436693 0.00025992583)
(-0.048850751 0.098307084 0.00028208765)
(-0.060797295 0.10289906 0.00030361601)
(-0.073072145 0.10544201 0.00032537263)
(-0.085496553 0.10611555 0.00034776781)
(-0.097917904 0.10504929 0.00037082954)
(-0.11020096 0.10232793 0.00039424751)
(-0.12222037 0.09799998 0.00041741465)
(-0.13385446 0.092088744 0.00043947013)
(-0.14498009 0.084604333 0.0004593445)
(-0.15546852 0.075555777 0.00047581007)
(-0.16518208 0.064962732 0.00048753974)
(-0.17397169 0.052866554 0.00049317718)
(-0.18167524 0.039340753 0.00049142019)
(-0.18811709 0.024500894 0.00048111764)
(-0.19310905 0.0085140195 0.00046137877)
(-0.19645321 -0.008392548 0.00043169226)
(-0.19794723 -0.025923341 0.00039204359)
(-0.19739259 -0.043708835 0.00034302807)
(-0.19460643 -0.061302483 0.0002859394)
(-0.18943725 -0.078182523 0.00022281935)
(-0.18178448 -0.093760629 0.00015644814)
(-0.17162143 -0.10739966 9.025563e-05)
(-0.15902004 -0.11844262 2.8138824e-05)
(-0.14417477 -0.12625399 -2.5817805e-05)
(-0.12742187 -0.13027322 -6.7706016e-05)
(-0.10924877 -0.13007705 -9.4208395e-05)
(-0.09028852 -0.12544452 -0.00010301055)
(-0.071294691 -0.11641491 -9.313225e-05)
(-0.053096421 -0.1033268 -6.5071884e-05)
(-0.036536425 -0.086827838 -2.0776313e-05)
(-0.022388434 -0.067848892 3.6188254e-05)
(-0.011268759 -0.047540413 0.00010113226)
(-0.0037218423 -0.027182713 0.00017470311)
(-0.00045691146 -0.0081393793 0.0002444005)
(-0.00055984421 0.014853253 0.00012668454)
(-0.003545336 0.040221748 0.00020558134)
(-0.0096248043 0.061370737 0.00025168488)
(-0.017792795 0.078574476 0.00028556842)
(-0.027484115 0.092187583 0.00031466291)
(-0.038327142 0.10258889 0.00034073486)
(-0.049997907 0.11014411 0.00036537011)
(-0.062227175 0.11518029 0.00039000079)
(-0.074798377 0.11797041 0.00041553423)
(-0.087534986 0.11872688 0.00044239366)
(-0.10028943 0.1176024 0.00047059127)
(-0.11293384 0.11469626 0.00049977336)
(-0.12535201 0.11006437 0.00052926074)
(-0.13743238 0.10373134 0.00055808847)
(-0.14906222 0.095703558 0.00058504638)
(-0.16012256 0.085982134 0.00060872431)
(-0.17048401 0.074575391 0.00062756646)
(-0.18000318 0.061510771 0.00063993874)
(-0.18851998 0.046846245 0.00064421249)
(-0.1958559 0.030681471 0.00063886653)
(-0.20181367 0.013168876 0.00062260795)
(-0.20617869 -0.0054753268 0.00059450995)
(-0.20872304 -0.024960496 0.00055416005)
(-0.20921256 -0.044912124 0.00050180916)
(-0.2074181 -0.064864813 0.00043850809)
(-0.20313133 -0.084259604 0.00036620969)
(-0.196186 -0.10244824 0.00028781219)
(-0.18648424 -0.11870738 0.00020711559)
(-0.17402707 -0.13226597 0.00012866429)
(-0.15894663 -0.14234847 5.7458979e-05)
(-0.1415358 -0.14823503 -1.4607827e-06)
(-0.12226909 -0.1493366 -4.3534557e-05)
(-0.10180727 -0.14527863 -6.5240731e-05)
(-0.080978702 -0.13598176 -6.4597678e-05)
(-0.060733888 -0.12172367 -4.146068e-05)
(-0.042074303 -0.10316586 2.4026589e-06)
(-0.025950471 -0.081333213 6.3049387e-05)
(-0.013148238 -0.057540518 0.00013496244)
(-0.0043785963 -0.033279393 0.00021875465)
(-0.00054808324 -0.010149839 0.00029870033)
(-0.00056512235 0.016704125 0.00020792009)
(-0.0035848202 0.045047785 0.00029375646)
(-0.0097399784 0.068546057 0.00034070252)
(-0.018014589 0.087565847 0.00037562181)
(-0.027835505 0.10254736 0.00040615872)
(-0.038824712 0.11394783 0.00043421286)
(-0.050653046 0.1222018 0.0004614774)
(-0.063048393 0.12769423 0.00048946365)
(-0.075794246 0.13074472 0.00051912705)
(-0.088717209 0.13160148 0.0005509107)
(-0.10167576 0.13044295 0.00058482057)
(-0.11455067 0.1273852 0.00062047055)
(-0.12723641 0.12249307 0.00065712021)
(-0.13963362 0.11579337 0.00069370977)
(-0.15164247 0.10728884 0.00072889405)
(-0.16315696 0.096971865 0.0007610805)
(-0.17405972 0.084837705 0.00078847663)
(-0.18421758 0.070897068 0.00080915197)
(-0.19347772 0.055188366 0.00082111947)
(-0.20166465 0.037789983 0.00082243976)
(-0.20857836 0.018832884 0.0008113507)
(-0.21399408 -0.0014862689 0.00078642236)
(-0.2176644 -0.022891633 0.00074673507)
(-0.21932455 -0.045014996 0.00069206679)
(-0.21870189 -0.06738411 0.00062308416)
(-0.21553091 -0.08941446 0.00054150767)
(-0.20957467 -0.11040747 0.00045022439)
(-0.20065353 -0.12955889 0.00035331151)
(-0.18868076 -0.14598182 0.0002559303)
(-0.17370322 -0.15874892 0.00016405563)
(-0.15594309 -0.16695705 8.4023637e-05)
(-0.13583337 -0.16981453 2.1911861e-05)
(-0.11403765 -0.16674572 -1.7190585e-05)
(-0.091443284 -0.15750008 -2.990255e-05)
(-0.069120462 -0.1422456 -1.5066934e-05)
(-0.048244326 -0.12162256 2.599673e-05)
(-0.029971795 -0.096736541 8.9072344e-05)
(-0.015296617 -0.069077548 0.00016774782)
(-0.0051401262 -0.040378977 0.00026257916)
(-0.00065685496 -0.012518066 0.00035457255)
(-0.00056338803 0.018564524 0.00030215809)
(-0.0035843169 0.049906068 0.00039520459)
(-0.0097519555 0.075776003 0.00044261801)
(-0.018051157 0.096630772 0.00047838668)
(-0.027905929 0.11299467 0.00051028343)
(-0.038934085 0.1254035 0.0005403276)
(-0.050802736 0.13436212 0.00057031466)
(-0.063237874 0.14031579 0.00060183534)
(-0.076023768 0.14363366 0.0006359004)
(-0.088990846 0.14460273 0.0006729849)
(-0.10200448 0.14343002 0.0007131035)
(-0.11495515 0.14025084 0.00075585378)
(-0.12774951 0.13514096 0.00080045019)
(-0.14030229 0.12813076 0.00084575271)
(-0.1525291 0.11922 0.00089029281)
(-0.16434004 0.10839228 0.00093230218)