/*--------------------------------*- C++ -*----------------------------------*\
  =========                 |
  \\      /  F ield         | OpenFOAM: The Open Source CFD Toolbox
   \\    /   O peration     | Website:  https://openfoam.org
    \\  /    A nd           | Version:  7
     \\/     M anipulation  |
\*---------------------------------------------------------------------------*/
FoamFile
{
    version     2.0;
    format      ascii;
    class       volScalarField;
    location    "7.2";
    object      p;
}
// * * * * * * * * * * * * * * * * * * * * * * * * * * * * * * * * * * * * * //

dimensions      [1 -1 -2 0 0 0 0];

internalField   nonuniform List<scalar> 
19968
(
1
1
1
1
1
1
1
1
1
1
1
1
1
1
1
1
1
1
1
1
1
1
1
1
1
1
1
1
1
1
1
1
1
1
1
1
1
1
1
1
1
1
1
1
1
1
1
1
1.56231
8.05588
10.4112
10.456
10.5165
10.5744
10.6364
10.699
10.7585
10.8118
10.8583
10.902
10.9486
11.0015
11.0596
11.1172
11.1705
11.2207
11.269
11.3144
11.3564
11.3955
11.4329
11.4698
11.5073
11.5453
11.583
11.6197
11.6557
11.6911
11.7259
11.7595
11.7912
11.8202
11.8463
11.8695
11.8904
11.9099
11.9291
11.9486
11.9685
11.988
12.0056
12.0194
12.0283
12.0324
12.0334
12.0335
1
1
1
1
1
1
1
1
1
1
1
1
1
1
1
1
1
1
1
1
1
1
1
1
1
1
1
1
1
1
1
1
1
1
1
1
1
1
1
1
1
1
1
1
1
1
1
1
1.53168
7.99127
10.3999
10.4531
10.5171
10.5746
10.6359
10.6976
10.756
10.8089
10.8558
10.9001
10.9474
11.0001
11.0576
11.1142
11.1673
11.2175
11.2658
11.3112
11.3531
11.3919
11.4289
11.4656
11.503
11.541
11.5786
11.6154
11.6513
11.6866
11.7213
11.7549
11.7866
11.8158
11.8419
11.8652
11.886
11.9054
11.9242
11.9432
11.9624
11.9814
11.9986
12.0123
12.0212
12.0254
12.0265
12.0268
1
1
1
1
1
1
1
1
1
1
1
1
1
1
1
1
1
1
1
1
1
1
1
1
1
1
1
1
1
1
1
1
1
1
1
1
1
1
1
1
1
1
1
1
1
1
1
1
1.46175
7.84549
10.3929
10.4437
10.5106
10.5679
10.6288
10.6897
10.7475
10.8005
10.848
10.8931
10.9418
10.9944
11.0515
11.1072
11.1603
11.2104
11.2587
11.3041
11.3459
11.3845
11.4211
11.4575
11.4948
11.5328
11.5706
11.6073
11.6431
11.6781
11.7124
11.7459
11.7776
11.807
11.8334
11.8569
11.878
11.8973
11.9159
11.9343
11.9529
11.9711
11.9879
12.0016
12.0107
12.0153
12.0166
12.0172
1
1
1
1
1
1
1
1
1
1
1
1
1
1
1
1
1
1
1
1
1
1
1
1
1
1
1
1
1
1
1
1
1
1
1
1
1
1
1
1
1
1
1
1
1
1
1
1
1.3622
7.60613
10.3839
10.4362
10.5018
10.5589
10.6196
10.68
10.7371
10.7898
10.8378
10.8836
10.9333
10.9859
11.0426
11.0974
11.1502
11.2002
11.2486
11.294
11.3357
11.374
11.4101
11.446
11.483
11.5209
11.5587
11.5955
11.6311
11.6656
11.6996
11.7327
11.7643
11.7937
11.8203
11.8438
11.8647
11.8836
11.9013
11.9187
11.9361
11.9535
11.97
11.9838
11.9937
11.9991
12.0012
12.0024
1
1
1
1
1
1
1
1
1
1
1
1
1
1
1
1
1
1
1
1
1
1
1
1
1
1
1
1
1
1
1
1
1
1
1
1
1
1
1
1
1
1
1
1
1
1
1
1
1.23732
7.28417
10.3864
10.4293
10.4913
10.547
10.6064
10.6657
10.7223
10.7749
10.8237
10.8708
10.9217
10.9747
11.0312
11.0852
11.1377
11.1875
11.2356
11.2808
11.3224
11.3605
11.3962
11.4315
11.4681
11.5059
11.5439
11.581
11.6165
11.6508
11.6843
11.7171
11.7487
11.7784
11.8053
11.829
11.8498
11.8681
11.8847
11.9003
11.9157
11.9312
11.9461
11.9591
11.9685
11.9741
11.9763
11.9779
1
1
1
1
1
1
1
1
1
1
1
1
1
1
1
1
1
1
1
1
1
1
1
1
1
1
1
1
1
1
1
1
1
1
1
1
1
1
1
1
1
1
1
1
1
1
1
1
1.02664
6.75958
10.4001
10.428
10.4853
10.5425
10.6009
10.6585
10.7133
10.7644
10.8125
10.8602
10.9116
10.9645
11.0198
11.0722
11.1232
11.172
11.2191
11.2636
11.3046
11.3418
11.3763
11.4103
11.4455
11.4825
11.5202
11.5571
11.5924
11.626
11.6585
11.6904
11.7214
11.7508
11.7779
11.8021
11.8231
11.8414
11.8576
11.8725
11.887
11.9017
11.9162
11.9291
11.939
11.9451
11.9478
11.9499
1
1
1
1
1
1
1
1
1
1
1
1
1
1
1
1
1
1
1
1
1
1
1
1
1
1
1
1
1
1
1
1
1
1
1
1
1
1
1
1
1
1
1
1
1
1
1
1
1.0002
6.02828
10.3227
10.3857
10.4416
10.5011
10.5596
10.6173
10.6727
10.7248
10.7736
10.8219
10.8733
10.9259
10.9807
11.0329
11.0842
11.134
11.1817
11.2265
11.2676
11.3046
11.3387
11.3719
11.4067
11.4436
11.4817
11.5192
11.5549
11.5885
11.6204
11.6514
11.6817
11.711
11.7383
11.763
11.7846
11.8032
11.8191
11.8334
11.8472
11.8611
11.8749
11.8875
11.8973
11.9039
11.9069
11.9094
1
1
1
1
1
1
1
1
1
1
1
1
1
1
1
1
1
1
1
1
1
1
1
1
1
1
1
1
1
1
1
1
1
1
1
1
1
1
1
1
1
1
1
1
1
1
1
1
1
5.08635
10.1765
10.3565
10.4159
10.4779
10.5364
10.593
10.6475
10.6992
10.7477
10.7959
10.8457
10.8964
10.9492
10.9995
11.0495
11.0988
11.1464
11.1912
11.232
11.2685
11.3015
11.3334
11.3669
11.403
11.4407
11.4783
11.5141
11.5472
11.5782
11.6078
11.6368
11.665
11.692
11.7168
11.7387
11.7572
11.7728
11.7864
11.7992
11.8119
11.8248
11.8367
11.8462
11.8529
11.8561
11.8588
1
1
1
1
1
1
1
1
1
1
1
1
1
1
1
1
1
1
1
1
1
1
1
1
1
1
1
1
1
1
1
1
1
1
1
1
1
1
1
1
1
1
1
1
1
1
1
1
1
4.00438
9.88613
10.3205
10.381
10.4459
10.5065
10.5643
10.6184
10.6696
10.7176
10.7648
10.8128
10.8614
10.9115
10.9595
11.0069
11.0547
11.1011
11.145
11.185
11.2205
11.252
11.2823
11.314
11.3484
11.385
11.4221
11.4576
11.4904
11.5204
11.5485
11.5756
11.6022
11.6281
11.6527
11.6748
11.6937
11.7093
11.7225
11.7347
11.7467
11.7588
11.7702
11.7796
11.7865
11.7899
11.7929
1
1
1
1
1
1
1
1
1
1
1
1
1
1
1
1
1
1
1
1
1
1
1
1
1
1
1
1
1
1
1
1
1
1
1
1
1
1
1
1
1
1
1
1
1
1
1
1
1
2.88593
9.33912
10.3012
10.3623
10.4273
10.4879
10.5449
10.5965
10.6453
10.6916
10.7365
10.7819
10.828
10.8749
10.9202
10.9643
11.0092
11.0536
11.0961
11.1354
11.1699
11.1998
11.2274
11.2558
11.2867
11.3201
11.3547
11.3886
11.42
11.4484
11.4744
11.4991
11.5236
11.5482
11.5725
11.5951
11.6144
11.6301
11.6427
11.6535
11.6637
11.6741
11.6841
11.6925
11.6989
11.702
11.7049
1
1
1
1
1
1
1
1
1
1
1
1
1
1
1
1
1
1
1
1
1
1
1
1
1
1
1
1
1
1
1
1
1
1
1
1
1
1
1
1
1
1
1
1
1
1
1
1
1
1.85456
8.40224
10.3192
10.3255
10.394
10.4463
10.5022
10.5533
10.6024
10.65
10.6958
10.7416
10.7872
10.8321
10.8751
10.9159
10.9579
11.0004
11.042
11.0809
11.1154
11.1442
11.1697
11.1947
11.2219
11.2517
11.2833
11.3148
11.3438
11.3692
11.3913
11.4114
11.4309
11.4511
11.4717
11.4915
11.5088
11.5227
11.5337
11.5431
11.5523
11.5621
11.5719
11.5804
11.5869
11.59
11.5931
1
1
1
1
1
1
1
1
1
1
1
1
1
1
1
1
1
1
1
1
1
1
1
1
1
1
1
1
1
1
1
1
1
1
1
1
1
1
1
1
1
1
1
1
1
1
1
1
1
1.03382
6.72992
10.3457
10.3656
10.398
10.4377
10.4866
10.5339
10.579
10.6217
10.6619
10.7025
10.744
10.7846
10.8236
10.8599
10.896
10.9331
10.9707
11.007
11.0402
11.0673
11.0899
11.1111
11.134
11.1599
11.1882
11.2171
11.2439
11.267
11.2863
11.3029
11.3187
11.335
11.3525
11.3701
11.3858
11.3982
11.4069
11.4131
11.4179
11.4224
11.4262
11.429
11.4309
11.4307
11.4316
1
1
1
1
1
1
1
1
1
1
1
1
1
1
1
1
1
1
1
1
1
1
1
1
1
1
1
1
1
1
1
1
1
1
1
1
1
1
1
1
1
1
1
1
1
1
1
1
1
1.00006
4.63303
9.91038
10.1972
10.2585
10.321
10.3777
10.4302
10.4781
10.5222
10.5631
10.6034
10.6444
10.6851
10.7233
10.7584
10.7918
10.8256
10.8613
10.8973
10.9307
10.9584
10.9801
10.9993
11.019
11.0414
11.0663
11.0921
11.1163
11.1365
11.1523
11.1649
11.1757
11.1859
11.1962
11.206
11.2133
11.2173
11.2184
11.2178
11.2171
11.2184
11.2216
11.2245
11.2268
11.2262
11.2267
1
1
1
1
1
1
1
1
1
1
1
1
1
1
1
1
1
1
1
1
1
1
1
1
1
1
1
1
1
1
1
1
1
1
1
1
1
1
1
1
1
1
1
1
1
1
1
1
1
1
2.40534
8.77854
10.1545
10.1947
10.2676
10.3254
10.3774
10.4239
10.466
10.5043
10.5411
10.5781
10.6158
10.6511
10.6827
10.7114
10.7392
10.7691
10.8014
10.8321
10.858
10.8767
10.8914
10.9053
10.9209
10.9384
10.9571
10.9744
10.9881
10.9975
11.0039
11.0084
11.0114
11.0135
11.0143
11.0128
11.0096
11.0042
10.9972
10.9906
10.9828
10.9723
10.9543
10.9302
10.9031
10.8794
1
1
1
1
1
1
1
1
1
1
1
1
1
1
1
1
1
1
1
1
1
1
1
1
1
1
1
1
1
1
1
1
1
1
1
1
1
1
1
1
1
1
1
1
1
1
1
1
1
1
1.06002
6.37695
10.2244
10.2422
10.2599
10.29
10.3229
10.3585
10.3929
10.4249
10.455
10.4851
10.5165
10.5476
10.5758
10.6008
10.6234
10.6462
10.6726
10.7002
10.7244
10.7415
10.7523
10.7605
10.7687
10.7776
10.7871
10.7953
10.8005
10.8011
10.7984
10.7939
10.7879
10.7795
10.7662
10.7465
10.72
10.6878
10.6511
10.6108
10.5669
10.5199
10.4776
10.4386
10.418
10.4061
1
1
1
1
1
1
1
1
1
1
1
1
1
1
1
1
1
1
1
1
1
1
1
1
1
1
1
1
1
1
1
1
1
1
1
1
1
1
1
1
1
1
1
1
1
1
1
1
1
1
1.00009
3.28844
9.30978
10.083
10.1118
10.1479
10.185
10.227
10.2696
10.3095
10.3445
10.3751
10.4032
10.4301
10.4545
10.4751
10.4929
10.5101
10.5303
10.5539
10.576
10.592
10.6001
10.6029
10.6022
10.6001
10.5981
10.5951
10.5881
10.5747
10.5566
10.5366
10.5161
10.493
10.4623
10.4207
10.3676
10.3062
10.2404
10.173
10.1037
10.0326
9.94877
9.86785
9.75612
9.8479
1
1
1
1
1
1
1
1
1
1
1
1
1
1
1
1
1
1
1
1
1
1
1
1
1
1
1
1
1
1
1
1
1
1
1
1
1
1
1
1
1
1
1
1
1
1
1
1
1
1
1
1.2471
7.35331
10.088
10.0728
10.0817
10.1077
10.1426
10.1832
10.2236
10.259
10.2875
10.3098
10.3287
10.3463
10.3616
10.3749
10.3875
10.4004
10.4168
10.4341
10.4477
10.4543
10.451
10.4412
10.4288
10.4159
10.4025
10.3844
10.3578
10.3235
10.2854
10.2466
10.2053
10.1551
10.0895
10.0044
9.90047
9.77634
9.63037
9.44175
9.19327
8.82275
8.27526
7.35785
5.49555
1
1
1
1
1
1
1
1
1
1
1
1
1
1
1
1
1
1
1
1
1
1
1
1
1
1
1
1
1
1
1
1
1
1
1
1
1
1
1
1
1
1
1
1
1
1
1
1
1
1
1
1.00205
4.69908
9.67291
9.90374
9.95057
9.99527
10.0331
10.0718
10.1123
10.1511
10.1836
10.2076
10.2245
10.2385
10.2512
10.2619
10.2712
10.2789
10.288
10.3002
10.3113
10.3165
10.3109
10.2958
10.2748
10.252
10.2292
10.2025
10.1672
10.1211
10.0671
10.0089
9.94719
9.87566
9.7872
9.67252
9.53034
9.35095
9.13591
8.85275
8.49468
7.98455
7.34826
6.11718
4.51226
1
1
1
1
1
1
1
1
1
1
1
1
1
1
1
1
1
1
1
1
1
1
1
1
1
1
1
1
1
1
1
1
1
1
1
1
1
1
1
1
1
1
1
1
1
1
1
1
1
1
1
0.999996
1.99602
8.28007
9.85506
9.88504
9.93162
9.96131
9.99671
10.0362
10.0728
10.1019
10.1237
10.137
10.1461
10.1551
10.1641
10.1703
10.1724
10.1723
10.1743
10.1782
10.179
10.1708
10.1514
10.1224
10.0887
10.0537
10.0158
9.97073
9.91431
9.84657
9.76929
9.68607
9.59086
9.47911
9.33798
9.16458
8.94609
8.67967
8.34695
7.92531
7.39548
6.64093
5.62042
4.52742
1
1
1
1
1
1
1
1
1
1
1
1
1
1
1
1
1
1
1
1
1
1
1
1
1
1
1
1
1
1
1
1
1
1
1
1
1
1
1
1
1
1
1
1
1
1
1
1
1
1
1
0.999999
1.03586
5.4298
9.66331
9.82684
9.86689
9.90127
9.93804
9.97255
9.99524
10.0077
10.0214
10.0314
10.0382
10.0451
10.0541
10.0603
10.0601
10.0534
10.0446
10.0369
10.0293
10.0167
9.99503
9.96285
9.92192
9.87584
9.82536
9.76886
9.70205
9.62372
9.5319
9.43091
9.31529
9.18234
9.02017
8.82371
8.58344
8.29184
7.94202
7.5051
6.98274
6.30367
5.54299
4.71121
1
1
1
1
1
1
1
1
1
1
1
1
1
1
1
1
1
1
1
1
1
1
1
1
1
1
1
1
1
1
1
1
1
1
1
1
1
1
1
1
1
1
1
1
1
1
1
1
1
1
1
1
1.00001
2.21689
8.40029
9.79224
9.78523
9.82933
9.86411
9.89721
9.91803
9.92718
9.93461
9.93956
9.93946
9.94042
9.94551
9.95033
9.94882
9.93797
9.92048
9.90041
9.88055
9.85959
9.83404
9.80012
9.75544
9.70202
9.64077
9.57243
9.4941
9.40556
9.30315
9.18906
9.05904
8.90986
8.73288
8.52273
8.27332
7.97817
7.63367
7.21407
6.7411
6.17957
5.575
4.93484
1
1
1
1
1
1
1
1
1
1
1
1
1
1
1
1
1
1
1
1
1
1
1
1
1
1
1
1
1
1
1
1
1
1
1
1
1
1
1
1
1
1
1
1
1
1
1
1
1
1
1
1
0.999999
1.04878
5.48163
9.65889
9.74117
9.76583
9.78675
9.80738
9.82456
9.83483
9.8434
9.84899
9.84609
9.84099
9.83904
9.83936
9.83601
9.82367
9.80209
9.77325
9.74039
9.70683
9.67192
9.6333
9.58621
9.52968
9.46212
9.38437
9.29503
9.19628
9.08573
8.96317
8.82499
8.66689
8.48234
8.26653
8.01752
7.7278
7.40113
7.01913
6.60463
6.14353
5.64038
5.1247
1
1
1
1
1
1
1
1
1
1
1
1
1
1
1
1
1
1
1
1
1
1
1
1
1
1
1
1
1
1
1
1
1
1
1
1
1
1
1
1
1
1
1
1
1
1
1
1
1
1
1
1
1
1.00005
2.03536
8.18788
9.74625
9.70447
9.71693
9.72927
9.73605
9.7407
9.74753
9.75178
9.74898
9.73863
9.72925
9.72298
9.71378
9.69889
9.67624
9.64482
9.60561
9.5627
9.51701
9.46992
9.41816
9.3588
9.28747
9.20365
9.10661
9.00064
8.88508
8.75796
8.61575
8.45411
8.26816
8.05361
7.81354
7.53161
7.23061
6.88438
6.52601
6.12991
5.71325
5.27938
1
1
1
1
1
1
1
1
1
1
1
1
1
1
1
1
1
1
1
1
1
1
1
1
1
1
1
1
1
1
1
1
1
1
1
1
1
1
1
1
1
1
1
1
1
1
1
1
1
1
1
1
1
1
1.03343
4.85118
9.39146
9.63308
9.62703
9.63821
9.65284
9.66157
9.66946
9.6724
9.67024
9.65562
9.63967
9.62467
9.60449
9.5823
9.55653
9.52426
9.48254
9.43444
9.37919
9.32062
9.2599
9.19515
9.12024
9.03256
8.93115
8.82071
8.70176
8.57245
8.4293
8.26824
8.08613
7.87825
7.64968
7.38316
7.10593
6.7948
6.47646
6.1307
5.78128
5.40501
1
1
1
1
1
1
1
1
1
1
1
1
1
1
1
1
1
1
1
1
1
1
1
1
1
1
1
1
1
1
1
1
1
1
1
1
1
1
1
1
1
1
1
1
1
1
1
1
1
1
1
1
1
1
1.00003
1.5193
7.55898
9.65048
9.60194
9.59186
9.57908
9.5749
9.57294
9.57029
9.56586
9.55126
9.53328
9.51317
9.48482
9.45369
9.42414
9.39249
9.35191
9.30527
9.24758
9.18212
9.11271
9.04032
8.95999
8.86962
8.76778
8.65656
8.5369
8.40762
8.26546
8.10663
7.93025
7.73025
7.51348
7.26965
7.01314
6.7343
6.45036
6.14278
5.83767
5.50693
1
1
1
1
1
1
1
1
1
1
1
1
1
1
1
1
1
1
1
1
1
1
1
1
1
1
1
1
1
1
1
1
1
1
1
1
1
1
1
1
1
1
1
1
1
1
1
1
1
1
1
1
1
1
1
1.00804
3.83491
8.95436
9.42764
9.4667
9.47649
9.47118
9.46532
9.45918
9.45124
9.436
9.41908
9.39988
9.3688
9.33147
9.29637
9.26323
9.22248
9.17815
9.12156
9.05418
8.97901
8.89897
8.81134
8.71759
8.61713
8.50739
8.38898
8.2606
8.12071
7.96464
7.79606
7.60351
7.40004
7.17773
6.94141
6.6934
6.43947
6.16134
5.88968
5.5958
1
1
1
1
1
1
1
1
1
1
1
1
1
1
1
1
1
1
1
1
1
1
1
1
1
1
1
1
1
1
1
1
1
1
1
1
1
1
1
1
1
1
1
1
1
1
1
1
1
1
1
1
1
1
1
1
1.21475
6.22839
9.39977
9.4123
9.39322
9.37913
9.37191
9.36311
9.35294
9.33832
9.32108
9.30301
9.2685
9.22544
9.18265
9.14289
9.0976
9.05172
8.9964
8.93202
8.85695
8.77236
8.67953
8.58197
8.48237
8.37488
8.25923
8.13223
7.99503
7.84133
7.68023
7.49419
7.30388
7.10011
6.88349
6.66074
6.43147
6.17824
5.93566
5.67482
1
1
1
1
1
1
1
1
1
1
1
1
1
1
1
1
1
1
1
1
1
1
1
1
1
1
1
1
1
1
1
1
1
1
1
1
1
1
1
1
1
1
1
1
1
1
1
1
1
1
1
1
1
1
1
1
1.0014
2.18992
8.04676
9.30358
9.25762
9.26289
9.26167
9.25621
9.24819
9.23486
9.21632
9.19892
9.16794
9.12383
9.07647
9.02913
8.97739
8.92649
8.87062
8.81052
8.7386
8.65283
8.56055
8.45895
8.36104
8.25453
8.14071
8.01629
7.88381
7.73341
7.57912
7.40227
7.22337
7.03666
6.83752
6.63346
6.42197
6.19535
5.97754
5.74354
1
1
1
1
1
1
1
1
1
1
1
1
1
1
1
1
1
1
1
1
1
1
1
1
1
1
1
1
1
1
1
1
1
1
1
1
1
1
1
1
1
1
1
1
1
1
1
1
1
1
1
1
1
1
1
1
1
1.04041
4.18701
8.89434
9.16665
9.18168
9.18076
9.17215
9.15999
9.14212
9.11879
9.09683
9.06889
9.02574
8.97767
8.92746
8.87172
8.81592
8.75764
8.69617
8.62767
8.54365
8.45239
8.3546
8.25152
8.14833
8.03775
7.91717
7.78813
7.64152
7.4926
7.32823
7.15859
6.98651
6.80119
6.61145
6.41565
6.21263
6.01055
5.79961
1
1
1
1
1
1
1
1
1
1
1
1
1
1
1
1
1
1
1
1
1
1
1
1
1
1
1
1
1
1
1
1
1
1
1
1
1
1
1
1
1
1
1
1
1
1
1
1
1
1
1
1
1
1
1
1
1
1.00008
1.25984
5.74553
9.01978
9.15425
9.12761
9.11606
9.09845
9.07056
9.03882
9.00845
8.97702
8.93383
8.88465
8.83377
8.77768
8.71953
8.65793
8.59141
8.52374
8.44185
8.35353
8.25879
8.15582
8.05097
7.94345
7.82542
7.69832
7.5597
7.4173
7.26569
7.10569
6.94623
6.77256
6.59542
6.41503
6.22946
6.03931
5.8476
1
1
1
1
1
1
1
1
1
1
1
1
1
1
1
1
1
1
1
1
1
1
1
1
1
1
1
1
1
1
1
1
1
1
1
1
1
1
1
1
1
1
1
1
1
1
1
1
1
1
1
1
1
1
1
1
1
1
1.00212
1.63195
7.26214
9.17011
9.11637
9.06814
9.02278
8.9819
8.94215
8.90686
8.87342
8.83302
8.78646
8.73655
8.68518
8.62849
8.56668
8.49693
8.42464
8.34484
8.25688
8.16519
8.0667
7.96473
7.85854
7.74249
7.62063
7.49032
7.35573
7.21436
7.06482
6.91419
6.75142
6.58571
6.41839
6.24472
6.0665
5.8896
1
1
1
1
1
1
1
1
1
1
1
1
1
1
1
1
1
1
1
1
1
1
1
1
1
1
1
1
1
1
1
1
1
1
1
1
1
1
1
1
1
1
1
1
1
1
1
1
1
1
1
1
1
1
1
1
1
1
1
1.0115
3.04202
8.32711
8.95726
8.89835
8.86876
8.84029
8.81475
8.78875
8.76138
8.72863
8.68956
8.64492
8.59512
8.54248
8.48124
8.41042
8.33547
8.25588
8.16875
8.07841
7.98338
7.88523
7.78098
7.66873
7.5525
7.4289
7.30137
7.1676
7.02768
6.88389
6.73143
6.57613
6.42044
6.25655
6.09085
5.92584
1
1
1
1
1
1
1
1
1
1
1
1
1
1
1
1
1
1
1
1
1
1
1
1
1
1
1
1
1
1
1
1
1
1
1
1
1
1
1
1
1
1
1
1
1
1
1
1
1
1
1
1
1
1
1
1
1
1
1
1.00002
1.10839
4.36921
8.60307
8.79574
8.77192
8.77004
8.75385
8.72992
8.69824
8.66044
8.61794
8.57241
8.52189
8.4676
8.41012
8.33776
8.26176
8.18116
8.09395
8.00348
7.90979
7.81379
7.71307
7.60498
7.49449
7.37838
7.25765
7.13023
6.99777
6.85964
6.71547
6.56865
6.42152
6.26664
6.11225
5.95666
1
1
1
1
1
1
1
1
1
1
1
1
1
1
1
1
1
1
1
1
1
1
1
1
1
1
1
1
1
1
1
1
1
1
1
1
1
1
1
1
1
1
1
1
1
1
1
1
1
1
1
1
1
1
1
1
1
1
1
1
1.00051
1.29411
5.18883
8.58177
8.71647
8.71844
8.70663
8.67888
8.64299
8.60184
8.55587
8.50637
8.45267
8.39428
8.33509
8.26475
8.19045
8.111
8.02593
7.93697
7.84467
7.74979
7.65099
7.54683
7.4401
7.33085
7.21686
7.09563
6.96892
6.83662
6.70022
6.56118
6.42075
6.27486
6.13012
5.98285
1
1
1
1
1
1
1
1
1
1
1
1
1
1
1
1
1
1
1
1
1
1
1
1
1
1
1
1
1
1
1
1
1
1
1
1
1
1
1
1
1
1
1
1
1
1
1
1
1
1
1
1
1
1
1
1
1
1
1
1
1
1.00282
1.49032
5.8659
8.5827
8.69121
8.66432
8.63064
8.59136
8.54685
8.49862
8.44682
8.39029
8.32901
8.26695
8.19889
8.127
8.04992
7.96775
7.88136
7.79129
7.69811
7.60098
7.49967
7.39535
7.28963
7.18001
7.06385
6.94218
6.81537
6.68571
6.55396
6.41973
6.28263
6.14648
6.00691
1
1
1
1
1
1
1
1
1
1
1
1
1
1
1
1
1
1
1
1
1
1
1
1
1
1
1
1
1
1
1
1
1
1
1
1
1
1
1
1
1
1
1
1
1
1
1
1
1
1
1
1
1
1
1
1
1
1
1
1
1
1
1.0072
1.7183
6.45041
8.56511
8.61249
8.58269
8.53927
8.49368
8.44305
8.38886
8.32916
8.26704
8.20344
8.13554
8.0641
7.98869
7.90967
7.82696
7.74036
7.65011
7.55579
7.45717
7.35506
7.25109
7.14409
7.03113
6.91328
6.79174
6.66948
6.54572
6.41828
6.28974
6.1617
6.02896
1
1
1
1
1
1
1
1
1
1
1
1
1
1
1
1
1
1
1
1
1
1
1
1
1
1
1
1
1
1
1
1
1
1
1
1
1
1
1
1
1
1
1
1
1
1
1
1
1
1
1
1
1
1
1
1
1
1
1
1
1
1
1.00001
1.0146
1.98124
6.89597
8.53591
8.54243
8.5041
8.45116
8.39762
8.33976
8.27567
8.21132
8.14585
8.07739
8.00641
7.93261
7.8562
7.77682
7.6937
7.60672
7.51566
7.41987
7.31989
7.21678
7.11146
7.00148
6.88785
6.77251
6.65793
6.54133
6.41936
6.29725
6.17556
6.04776
1
1
1
1
1
1
1
1
1
1
1
1
1
1
1
1
1
1
1
1
1
1
1
1
1
1
1
1
1
1
1
1
1
1
1
1
1
1
1
1
1
1
1
1
1
1
1
1
1
1
1
1
1
1
1
1
1
1
1
1
1
1
1
1.00003
1.02636
2.24329
7.2865
8.49867
8.45814
8.40897
8.34624
8.28437
8.22039
8.15597
8.08898
8.02092
7.95097
7.87884
7.80453
7.72754
7.64687
7.56226
7.47361
7.38078
7.28422
7.18401
7.08188
6.97655
6.86862
6.75901
6.64962
6.53756
6.41914
6.30093
6.18398
6.0596
1
1
1
1
1
1
1
1
1
1
1
1
1
1
1
1
1
1
1
1
1
1
1
1
1
1
1
1
1
1
1
1
1
1
1
1
1
1
1
1
1
1
1
1
1
1
1
1
1
1
1
1
1
1
1
1
1
1
1
1
1
1
1
1
1.00008
1.04164
2.64117
7.52129
8.38763
8.3347
8.29096
8.2296
8.16529
8.10166
8.03804
7.97375
7.90655
7.83604
7.76252
7.68592
7.60571
7.52179
7.43427
7.34378
7.25095
7.15517
7.05727
6.95681
6.85362
6.74799
6.64113
6.5318
6.41618
6.30009
6.1869
6.06817
1
1
1
1
1
1
1
1
1
1
1
1
1
1
1
1
1
1
1
1
1
1
1
1
1
1
1
1
1
1
1
1
1
1
1
1
1
1
1
1
1
1
1
1
1
1
1
1
1
1
1
1
1
1
1
1
1
1
1
1
1
1
1
1
1
1.00015
1.07122
2.92712
7.57062
8.27406
8.221
8.16468
8.11049
8.05316
7.99453
7.93267
7.86694
7.79763
7.72484
7.64872
7.56924
7.48655
7.40106
7.3133
7.22356
7.13135
7.03665
6.93974
6.83949
6.73663
6.63043
6.52269
6.41006
6.29929
6.19287
6.08389
1
1
1
1
1
1
1
1
1
1
1
1
1
1
1
1
1
1
1
1
1
1
1
1
1
1
1
1
1
1
1
1
1
1
1
1
1
1
1
1
1
1
1
1
1
1
1
1
1
1
1
1
1
1
1
1
1
1
1
1
1
1
1
1
1
1
1.00033
1.09906
3.02212
7.49673
8.16366
8.11407
8.06502
8.01408
7.95959
7.90021
7.83563
7.76578
7.692
7.61571
7.53667
7.45531
7.37181
7.28618
7.19842
7.10789
7.01471
6.91917
6.81948
6.71753
6.61326
6.51128
6.40859
6.31
6.23652
6.16928
1
1
1
1
1
1
1
1
1
1
1
1
1
1
1
1
1
1
1
1
1
1
1
1
1
1
1
1
1
1
1
1
1
1
1
1
1
1
1
1
1
1
1
1
1
1
1
1
1
1
1
1
1
1
1
1
1
1
1
1
1
1
1
1
1
1
1
1.00057
1.1113
2.9615
7.36727
8.07905
8.03517
7.98619
7.92957
7.86836
7.80344
7.73392
7.66083
7.58514
7.50721
7.42786
7.34617
7.2619
7.17506
7.08462
6.99057
6.89469
6.79777
6.70207
6.60686
6.52577
6.46217
6.42832
6.43596
6.49706
1
1
1
1
1
1
1
1
1
1
1
1
1
1
1
1
1
1
1
1
1
1
1
1
1
1
1
1
1
1
1
1
1
1
1
1
1
1
1
1
1
1
1
1
1
1
1
1
1
1
1
1
1
1
1
1
1
1
1
1
1
1
1
1
1
1
1
1
1.0007
1.10647
2.88092
7.18713
7.98622
7.95172
7.8931
7.83266
7.76564
7.69779
7.6281
7.55492
7.47967
7.40253
7.32183
7.23795
7.14919
7.05789
6.96685
6.87603
6.78858
6.71983
6.67532
6.67677
6.72579
6.84971
7.00197
7.16912
1
1
1
1
1
1
1
1
1
1
1
1
1
1
1
1
1
1
1
1
1
1
1
1
1
1
1
1
1
1
1
1
1
1
1
1
1
1
1
1
1
1
1
1
1
1
1
1
1
1
1
1
1
1
1
1
1
1
1
1
1
1
1
1
1
1
1
1
1
1.00066
1.09824
2.74868
6.93998
7.88599
7.86088
7.79637
7.73283
7.6642
7.59594
7.52507
7.45179
7.3754
7.2931
7.20919
7.12242
7.03492
6.95321
6.89736
6.87668
6.90703
7.01879
7.20416
7.39224
7.58934
7.68932
7.73593
1
1
1
1
1
1
1
1
1
1
1
1
1
1
1
1
1
1
1
1
1
1
1
1
1
1
1
1
1
1
1
1
1
1
1
1
1
1
1
1
1
1
1
1
1
1
1
1
1
1
1
1
1
1
1
1
1
1
1
1
1
1
1
1
1
1
1
1
1
1
1.00059
1.08504
2.5599
6.61605
7.76832
7.76371
7.69701
7.63472
7.56658
7.49685
7.42384
7.34633
7.26561
7.18212
7.10626
7.05655
7.05606
7.11662
7.28795
7.53441
7.79798
7.99321
8.10014
8.16332
8.10143
8.0186
1
1
1
1
1
1
1
1
1
1
1
1
1
1
1
1
1
1
1
1
1
1
1
1
1
1
1
1
1
1
1
1
1
1
1
1
1
1
1
1
1
1
1
1
1
1
1
1
1
1
1
1
1
1
1
1
1
1
1
1
1
1
1
1
1
1
1
1
1
1
1
1.00048
1.06787
2.33086
6.17576
7.63947
7.6757
7.60451
7.54007
7.46517
7.39172
7.31202
7.24241
7.19918
7.20492
7.31134
7.54079
7.84809
8.18561
8.38481
8.45031
8.49361
8.46319
8.37152
8.24432
8.14987
1
1
1
1
1
1
1
1
1
1
1
1
1
1
1
1
1
1
1
1
1
1
1
1
1
1
1
1
1
1
1
1
1
1
1
1
1
1
1
1
1
1
1
1
1
1
1
1
1
1
1
1
1
1
1
1
1
1
1
1
1
1
1
1
1
1
1
1
1
1
1
1
1.00035
1.04985
2.06979
5.60671
7.48512
7.60016
7.49882
7.43105
7.36058
7.30915
7.32723
7.46937
7.75918
8.15304
8.52164
8.78242
8.87305
8.8294
8.76553
8.70682
8.61052
8.47622
8.34739
8.2655
1
1
1
1
1
1
1
1
1
1
1
1
1
1
1
1
1
1
1
1
1
1
1
1
1
1
1
1
1
1
1
1
1
1
1
1
1
1
1
1
1
1
1
1
1
1
1
1
1
1
1
1
1
1
1
1
1
1
1
1
1
1
1
1
1
1
1
1
1
1
1
1
1
1.00022
1.03299
1.79883
4.87811
7.30461
7.47559
7.37841
7.38529
7.60648
7.97672
8.46109
8.87062
9.11667
9.2356
9.21149
9.10221
8.99974
8.90988
8.81947
8.70229
8.57691
8.48768
8.42301
1
1
1
1
1
1
1
1
1
1
1
1
1
1
1
1
1
1
1
1
1
1
1
1
1
1
1
1
1
1
1
1
1
1
1
1
1
1
1
1
1
1
1
1
1
1
1
1
1
1
1
1
1
1
1
1
1
1
1
1
1
1
1
1
1
1
1
1
1
1
1
1
1
1
1.00012
1.01941
1.53536
4.11121
6.95602
7.55195
8.07426
8.7494
9.26633
9.52548
9.59633
9.56082
9.47727
9.34678
9.18925
9.09017
9.00604
8.90948
8.79099
8.69692
8.64675
8.58941
1
1
1
1
1
1
1
1
1
1
1
1
1
1
1
1
1
1
1
1
1
1
1
1
1
1
1
1
1
1
1
1
1
1
1
1
1
1
1
1
1
1
1
1
1
1
1
1
1
1
1
1
1
1
1
1
1
1
1
1
1
1
1
1
1
1
1
1
1
1
1
1
1
1
1
1.00006
1.00977
1.32768
3.2482
7.95244
9.66225
9.91292
9.97941
9.89499
9.78786
9.68249
9.5658
9.42585
9.28994
9.20402
9.13586
9.04592
8.93828
8.86987
8.83119
8.76108
1
1
1
1
1
1
1
1
1
1
1
1
1
1
1
1
1
1
1
1
1
1
1
1
1
1
1
1
1
1
1
1
1
1
1
1
1
1
1
1
1
1
1
1
1
1
1
1
1
1
1
1
1
1
1
1
1
1
1
1
1
1
1
1
1
1
1
1
1
1
1
1
1
1
1
1
1.00002
1.0047
1.16013
6.96305
10.7834
10.4029
10.241
10.0716
9.92633
9.79181
9.6495
9.48581
9.36124
9.29217
9.2411
9.16531
9.08147
9.03164
8.99204
8.91379
1
1
1
1
1
1
1
1
1
1
1
1
1
1
1
1
1
1
1
1
1
1
1
1
1
1
1
1
1
1
1
1
1
1
1
1
1
1
1
1
1
1
1
1
1
1
1
1
1
1
1
1
1
1
1
1
1
1
1
1
1
1
1
1
1
1
1
1
1
1
1
1
1
1
1
1
1
1.00001
1.00092
5.15053
10.2121
10.0987
9.99451
9.88582
9.78596
9.69237
9.6066
9.53193
9.48345
9.45492
9.41806
9.34805
9.26732
9.20439
9.14666
9.05301
1
1
1
1
1
1
1
1
1
1
1
1
1
1
1
1
1
1
1
1
1
1
1
1
1
1
1
1
1
1
1
1
1
1
1
1
1
1
1
1
1
1
1
1
1
1
1
1
1
1
1
1
1
1
1
1
1
1
1
1
1
1
1
1
1
1
1
1
1
1
1
1
1
1
1
1
1
1
1
2.7047
9.00081
10.1021
10.0063
9.97958
9.93399
9.88698
9.83135
9.78096
9.72867
9.66889
9.60046
9.52344
9.44089
9.36265
9.28044
9.18317
1
1
1
1
1
1
1
1
1
1
1
1
1
1
1
1
1
1
1
1
1
1
1
1
1
1
1
1
1
1
1
1
1
1
1
1
1
1
1
1
1
1
1
1
1
1
1
1
1
1
1
1
1
1
1
1
1
1
1
1
1
1
1
1
1
1
1
1
1
1
1
1
1
1
1
1
1
1
1
1.17008
7.28356
10.1515
10.1028
10.0668
10.0076
9.95023
9.8896
9.83008
9.7604
9.68844
9.60999
9.53257
9.45802
9.38744
9.3136
9.24173
1
1
1
1
1
1
1
1
1
1
1
1
1
1
1
1
1
1
1
1
1
1
1
1
1
1
1
1
1
1
1
1
1
1
1
1
1
1
1
1
1
1
1
1
1
1
1
1
1
1
1
1
1
1
1
1
1
1
1
1
1
1
1
1
1
1
1
1
1
1
1
1
1
1
1
1
1
1
1
1.00093
4.89903
9.76262
10.0144
9.9965
9.97655
9.94416
9.90105
9.85528
9.80527
9.75349
9.70207
9.64805
9.59218
9.53476
9.47295
9.41292
1
1
1
1
1
1
1
1
1
1
1
1
1
1
1
1
1
1
1
1
1
1
1
1
1
1
1
1
1
1
1
1
1
1
1
1
1
1
1
1
1
1
1
1
1
1
1
1
1
1
1
1
1
1
1
1
1
1
1
1
1
1
1
1
1
1
1
1
1
1
1
1
1
1
1
1
1
1
1
0.999999
2.60119
8.82874
10.1335
10.0671
10.0223
9.98041
9.94055
9.89729
9.85048
9.80099
9.74967
9.70001
9.6493
9.59634
9.53999
9.48283
1
1
1
1
1
1
1
1
1
1
1
1
1
1
1
1
1
1
1
1
1
1
1
1
1
1
1
1
1
1
1
1
1
1
1
1
1
1
1
1
1
1
1
1
1
1
1
1
1
1
1
1
1
1
1
1
1
1
1
1
1
1
1
1
1
1
1
1
1
1
1
1
1
1
1
1
1
1
1
1
1.14271
7.22213
10.2137
10.1267
10.0514
9.99429
9.9535
9.92102
9.88501
9.84556
9.80029
9.75082
9.69924
9.64723
9.59308
9.53595
1
1
1
1
1
1
1
1
1
1
1
1
1
1
1
1
1
1
1
1
1
1
1
1
1
1
1
1
1
1
1
1
1
1
1
1
1
1
1
1
1
1
1
1
1
1
1
1
1
1
1
1
1
1
1
1
1
1
1
1
1
1
1
1
1
1
1
1
1
1
1
1
1
1
1
1
1
1
1
1
1.00065
5.13132
9.86618
10.0683
10.0414
10.0195
9.9889
9.95217
9.90971
9.86425
9.81688
9.76832
9.71745
9.66692
9.61695
9.56516
1
1
1
1
1
1
1
1
1
1
1
1
1
1
1
1
1
1
1
1
1
1
1
1
1
1
1
1
1
1
1
1
1
1
1
1
1
1
1
1
1
1
1
1
1
1
1
1
1
1
1
1
1
1
1
1
1
1
1
1
1
1
1
1
1
1
1
1
1
1
1
1
1
1
1
1
1
1
1
1
0.999999
3.05304
9.19425
10.1807
10.1189
10.0841
10.0397
9.99477
9.94917
9.90339
9.85831
9.81256
9.76626
9.71969
9.67262
9.62468
1
1
1
1
1
1
1
1
1
1
1
1
1
1
1
1
1
1
1
1
1
1
1
1
1
1
1
1
1
1
1
1
1
1
1
1
1
1
1
1
1
1
1
1
1
1
1
1
1
1
1
1
1
1
1
1
1
1
1
1
1
1
1
1
1
1
1
1
1
1
1
1
1
1
1
1
1
1
1
1
1
1.56392
7.99788
10.2561
10.1581
10.1133
10.0695
10.0249
9.97937
9.93381
9.88973
9.84439
9.79879
9.75264
9.70554
9.65853
1
1
1
1
1
1
1
1
1
1
1
1
1
1
1
1
1
1
1
1
1
1
1
1
1
1
1
1
1
1
1
1
1
1
1
1
1
1
1
1
1
1
1
1
1
1
1
1
1
1
1
1
1
1
1
1
1
1
1
1
1
1
1
1
1
1
1
1
1
1
1
1
1
1
1
1
1
1
1
1
1
1.0134
6.37647
10.204
10.2093
10.1511
10.1077
10.061
10.015
9.969
9.92443
9.87855
9.83249
9.78619
9.73875
9.69204
1
1
1
1
1
1
1
1
1
1
1
1
1
1
1
1
1
1
1
1
1
1
1
1
1
1
1
1
1
1
1
1
1
1
1
1
1
1
1
1
1
1
1
1
1
1
1
1
1
1
1
1
1
1
1
1
1
1
1
1
1
1
1
1
1
1
1
1
1
1
1
1
1
1
1
1
1
1
1
1
1
1
4.56798
9.8494
10.1877
10.1426
10.1155
10.0788
10.0415
9.99999
9.95709
9.91216
9.86655
9.82045
9.77317
9.72657
1
1
1
1
1
1
1
1
1
1
1
1
1
1
1
1
1
1
1
1
1
1
1
1
1
1
1
1
1
1
1
1
1
1
1
1
1
1
1
1
1
1
1
1
1
1
1
1
1
1
1
1
1
1
1
1
1
1
1
1
1
1
1
1
1
1
1
1
1
1
1
1
1
1
1
1
1
1
1
1
1
1
2.99648
9.22193
10.2607
10.1878
10.1539
10.1121
10.0716
10.0287
9.98484
9.94045
9.89558
9.85003
9.80361
9.75786
1
1
1
1
1
1
1
1
1
1
1
1
1
1
1
1
1
1
1
1
1
1
1
1
1
1
1
1
1
1
1
1
1
1
1
1
1
1
1
1
1
1
1
1
1
1
1
1
1
1
1
1
1
1
1
1
1
1
1
1
1
1
1
1
1
1
1
1
1
1
1
1
1
1
1
1
1
1
1
1
1
1
1.79551
8.33643
10.3399
10.2463
10.1981
10.149
10.1028
10.0576
10.0131
9.9694
9.92557
9.88089
9.83502
9.78911
1
1
1
1
1
1
1
1
1
1
1
1
1
1
1
1
1
1
1
1
1
1
1
1
1
1
1
1
1
1
1
1
1
1
1
1
1
1
1
1
1
1
1
1
1
1
1
1
1
1
1
1
1
1
1
1
1
1
1
1
1
1
1
1
1
1
1
1
1
1
1
1
1
1
1
1
1
1
1
1
1
1
1.10512
7.11332
10.3624
10.2839
10.2185
10.1651
10.1162
10.0713
10.0279
9.98584
9.94374
9.9008
9.85647
9.81142
1
1
1
1
1
1
1
1
1
1
1
1
1
1
1
1
1
1
1
1
1
1
1
1
1
1
1
1
1
1
1
1
1
1
1
1
1
1
1
1
1
1
1
1
1
1
1
1
1
1
1
1
1
1
1
1
1
1
1
1
1
1
1
1
1
1
1
1
1
1
1
1
1
1
1
1
1
1
1
1
1
1
1.00066
5.79077
10.1779
10.2507
10.2007
10.1664
10.1261
10.0865
10.0463
10.0055
9.96431
9.92222
9.87874
9.83418
1
1
1
1
1
1
1
1
1
1
1
1
1
1
1
1
1
1
1
1
1
1
1
1
1
1
1
1
1
1
1
1
1
1
1
1
1
1
1
1
1
1
1
1
1
1
1
1
1
1
1
1
1
1
1
1
1
1
1
1
1
1
1
1
1
1
1
1
1
1
1
1
1
1
1
1
1
1
1
1
1
1
1
4.52422
9.89576
10.2583
10.2063
10.1797
10.1429
10.1067
10.0688
10.0288
9.98798
9.94587
9.90258
9.85846
1
1
1
1
1
1
1
1
1
1
1
1
1
1
1
1
1
1
1
1
1
1
1
1
1
1
1
1
1
1
1
1
1
1
1
1
1
1
1
1
1
1
1
1
1
1
1
1
1
1
1
1
1
1
1
1
1
1
1
1
1
1
1
1
1
1
1
1
1
1
1
1
1
1
1
1
1
1
1
1
1
1
1
3.39626
9.51368
10.3015
10.2348
10.2051
10.1653
10.1265
10.0861
10.0444
10.0022
9.9592
9.91548
9.87142
1
1
1
1
1
1
1
1
1
1
1
1
1
1
1
1
1
1
1
1
1
1
1
1
1
1
1
1
1
1
1
1
1
1
1
1
1
1
1
1
1
1
1
1
1
1
1
1
1
1
1
1
1
1
1
1
1
1
1
1
1
1
1
1
1
1
1
1
1
1
1
1
1
1
1
1
1
1
1
1
1
1
1
2.45676
9.03568
10.3372
10.2602
10.2272
10.1878
10.1498
10.1103
10.0698
10.0285
9.98616
9.94303
9.89941
1
1
1
1
1
1
1
1
1
1
1
1
1
1
1
1
1
1
1
1
1
1
1
1
1
1
1
1
1
1
1
1
1
1
1
1
1
1
1
1
1
1
1
1
1
1
1
1
1
1
1
1
1
1
1
1
1
1
1
1
1
1
1
1
1
1
1
1
1
1
1
1
1
1
1
1
1
1
1
1
1
1
1
1.7719
8.36419
10.372
10.2901
10.2486
10.2066
10.1665
10.1265
10.086
10.0448
10.003
9.96042
9.91717
1
1
1
1
1
1
1
1
1
1
1
1
1
1
1
1
1
1
1
1
1
1
1
1
1
1
1
1
1
1
1
1
1
1
1
1
1
1
1
1
1
1
1
1
1
1
1
1
1
1
1
1
1
1
1
1
1
1
1
1
1
1
1
1
1
1
1
1
1
1
1
1
1
1
1
1
1
1
1
1
1
1
1
1.37298
7.6642
10.3873
10.3203
10.272
10.2292
10.1876
10.1464
10.1051
10.063
10.0207
9.978
9.93462
1
1
1
1
1
1
1
1
1
1
1
1
1
1
1
1
1
1
1
1
1
1
1
1
1
1
1
1
1
1
1
1
1
1
1
1
1
1
1
1
1
1
1
1
1
1
1
1
1
1
1
1
1
1
1
1
1
1
1
1
1
1
1
1
1
1
1
1
1
1
1
1
1
1
1
1
1
1
1
1
1
1
1
1.06479
6.89457
10.3485
10.3384
10.28
10.2427
10.2024
10.1626
10.122
10.0801
10.0379
9.9953
9.95207
1
1
1
1
1
1
1
1
1
1
1
1
1
1
1
1
1
1
1
1
1
1
1
1
1
1
1
1
1
1
1
1
1
1
1
1
1
1
1
1
1
1
1
1
1
1
1
1
1
1
1
1
1
1
1
1
1
1
1
1
1
1
1
1
1
1
1
1
1
1
1
1
1
1
1
1
1
1
1
1
1
1
1
1.00054
6.17828
10.2799
10.3376
10.2786
10.2449
10.205
10.1658
10.126
10.0848
10.0436
10.0019
9.95964
1
1
1
1
1
1
1
1
1
1
1
1
1
1
1
1
1
1
1
1
1
1
1
1
1
1
1
1
1
1
1
1
1
1
1
1
1
1
1
1
1
1
1
1
1
1
1
1
1
1
1
1
1
1
1
1
1
1
1
1
1
1
1
1
1
1
1
1
1
1
1
1
1
1
1
1
1
1
1
1
1
1
1
1
5.47197
10.1959
10.3476
10.2903
10.2595
10.2215
10.1838
10.1445
10.104
10.0631
10.0216
9.97955
1
1
1
1
1
1
1
1
1
1
1
1
1
1
1
1
1
1
1
1
1
1
1
1
1
1
1
1
1
1
1
1
1
1
1
1
1
1
1
1
1
1
1
1
1
1
1
1
1
1
1
1
1
1
1
1
1
1
1
1
1
1
1
1
1
1
1
1
1
1
1
1
1
1
1
1
1
1
1
1
1
1
1
1
4.87882
10.097
10.3629
10.3009
10.2687
10.2301
10.1923
10.1529
10.1124
10.0716
10.0301
9.98798
1
1
1
1
1
1
1
1
1
1
1
1
1
1
1
1
1
1
1
1
1
1
1
1
1
1
1
1
1
1
1
1
1
1
1
1
1
1
1
1
1
1
1
1
1
1
1
1
1
1
1
1
1
1
1
1
1
1
1
1
1
1
1
1
1
1
1
1
1
1
1
1
1
1
1
1
1
1
1
1
1
1
1
1
4.41151
9.98349
10.3765
10.3101
10.2769
10.2375
10.1994
10.1596
10.1189
10.0778
10.0362
9.99411
1
1
1
1
1
1
1
1
1
1
1
1
1
1
1
1
1
1
1
1
1
1
1
1
1
1
1
1
1
1
1
1
1
1
1
1
1
1
1
1
1
1
1
1
1
1
1
1
1
1
1
1
1
1
1
1
1
1
1
1
1
1
1
1
1
1
1
1
1
1
1
1
1
1
1
1
1
1
1
1
1
1
1
1
4.05838
9.87106
10.3885
10.3178
10.2837
10.2433
10.2045
10.1643
10.1236
10.0825
10.0407
9.99853
1
1
1
1
1
1
1
1
1
1
1
1
1
1
1
1
1
1
1
1
1
1
1
1
1
1
1
1
1
1
1
1
1
1
1
1
1
1
1
1
1
1
1
1
1
1
1
1
1
1
1
1
1
1
1
1
1
1
1
1
1
1
1
1
1
1
1
1
1
1
1
1
1
1
1
1
1
1
1
1
1
1
1
1
3.79595
9.77526
10.4011
10.3249
10.2895
10.2483
10.2088
10.1682
10.1276
10.0867
10.0449
10.0026
1
1
1
1
1
1
1
1
1
1
1
1
1
1
1
1
1
1
1
1
1
1
1
1
1
1
1
1
1
1
1
1
1
1
1
1
1
1
1
1
1
1
1
1
1
1
1
1
1
1
1
1
1
1
1
1
1
1
1
1
1
1
1
1
1
1
1
1
1
1
1
1
1
1
1
1
1
1
1
1
1
1
1
1
3.6157
9.70322
10.41
10.3294
10.2922
10.2511
10.2112
10.1703
10.1298
10.089
10.0469
10.0041
1
1
1
1
1
1
1
1
1
1
1
1
1
1
1
1
1
1
1
1
1
1
1
1
1
1
1
1
1
1
1
1
1
1
1
1
1
1
1
1
1
1
1
1
1
1
1
1
1
1
1
1
1
1
1
1
1
1
1
1
1
1
1
1
1
1
1
1
1
1
1
1
1
1
1
1
1