/*--------------------------------*- C++ -*----------------------------------*\
  =========                 |
  \\      /  F ield         | OpenFOAM: The Open Source CFD Toolbox
   \\    /   O peration     | Website:  https://openfoam.org
    \\  /    A nd           | Version:  7
     \\/     M anipulation  |
\*---------------------------------------------------------------------------*/
FoamFile
{
    version     2.0;
    format      ascii;
    class       volScalarField;
    location    "38";
    object      p;
}
// * * * * * * * * * * * * * * * * * * * * * * * * * * * * * * * * * * * * * //

dimensions      [0 2 -2 0 0 0 0];

internalField   nonuniform List<scalar> 
16000
(
8.4483476e-06
-0.00013191346
-0.00044342131
-0.00084578469
-0.0012639986
-0.0016526701
-0.0019809276
-0.0022299319
-0.0023890456
-0.0024525626
-0.0024175424
-0.0022825285
-0.0020469517
-0.0017110555
-0.0012761972
-0.00074538511
-0.00012392969
0.00057990201
0.0013543312
0.0021837021
0.0030483874
0.0039250312
0.004787155
0.0056061682
0.00635274
0.0069984833
0.0075178414
0.0078900305
0.0081008667
0.008144311
0.0080235855
0.0077517728
0.0073518697
0.0068563431
0.0063060749
0.0057485727
0.0052388363
0.0048331271
0.0045931766
0.0045543781
0.00015298221
8.0618448e-06
-0.00024202693
-0.00055090934
-0.0008731072
-0.0011743096
-0.0014302707
-0.0016248114
-0.0017475728
-0.0017921125
-0.0017544892
-0.0016323385
-0.0014244064
-0.0011304616
-0.00075149583
-0.00029011522
0.00024897157
0.00085845582
0.0015280048
0.0022439827
0.0029893846
0.0037441797
0.0044856637
0.0051894891
0.0058308098
0.0063857246
0.0068328959
0.0071552121
0.0073413438
0.00738703
0.0072959535
0.0070801203
0.0067597189
0.0063624972
0.0059226857
0.0054793291
0.0050736017
0.004748882
0.0045502974
0.0045147936
0.00047162664
0.00025374317
-2.0933177e-06
-0.00028114044
-0.00056138546
-0.00081832472
-0.0010341682
-0.0011968571
-0.001298186
-0.001332636
-0.0012964886
-0.0011872107
-0.0010031611
-0.00074358466
-0.0004088277
-7.078769e-07
0.00047703641
0.0010182891
0.0016141605
0.0022527223
0.0029189703
0.0035949461
0.0042602831
0.0048929839
0.0054705161
0.0059711576
0.0063755
0.006667996
0.0068384089
0.0068830063
0.0068053438
0.0066165251
0.0063349012
0.0059852518
0.0055975409
0.0052052328
0.004842974
0.0045450247
0.0043476662
0.0042803454
0.00089324156
0.00056198271
0.00026128999
-2.4494284e-05
-0.00029509603
-0.00053424546
-0.00073037786
-0.0008762775
-0.00096687205
-0.00099846704
-0.00096825027
-0.00087393545
-0.00071365059
-0.00048605655
-0.00019064378
0.00017184638
0.00059893375
0.0010859067
0.0016253891
0.0022070352
0.0028174197
0.0034400957
0.0040560965
0.0046446262
0.0051841191
0.005653565
0.0060340061
0.0063100835
0.0064714834
0.0065141273
0.0064409473
0.0062621124
0.0059946328
0.0056613708
0.0052895745
0.0049091032
0.0045506467
0.0042441904
0.0040162921
0.0038807219
0.0013440393
0.00088437218
0.00052121735
0.00021090283
-6.6804673e-05
-0.00030286214
-0.00049159511
-0.0006307412
-0.00071864233
-0.00075373259
-0.00073434995
-0.00065859358
-0.0005243809
-0.00032970197
-7.3022961e-05
0.00024620556
0.00062698218
0.0010661837
0.0015580503
0.0020937936
0.0026613908
0.003245617
0.0038283988
0.0043894889
0.0049074931
0.0053612044
0.0057311526
0.0060012279
0.0061602049
0.0062029913
0.0061314385
0.0059545802
0.0056882121
0.0053538
0.0049767983
0.0045847095
0.0042057675
0.0038671737
0.0035845009
0.0033609004
0.0017708861
0.0011777597
0.00074309783
0.00039704955
0.00010048807
-0.00014380117
-0.00033551122
-0.00047709563
-0.00057024446
-0.00061553235
-0.00061246939
-0.00055953012
-0.00045435889
-0.00029415761
-7.6207327e-05
0.00020151641
0.00053967387
0.00093688407
0.001389098
0.0018890893
0.0024261343
0.0029859593
0.0035509929
0.0041010043
0.004614106
0.0050681123
0.0054421686
0.0057185058
0.0058841243
0.0059321883
0.0058629388
0.0056839849
0.0054099028
0.0050611149
0.0046620643
0.0042391069
0.0038196134
0.003430069
0.0030774958
0.0027502031
0.0021285784
0.0014036023
0.00089401695
0.00050578677
0.00018251623
-7.8462777e-05
-0.0002816661
-0.00043387557
-0.00053987462
-0.0006022074
-0.00062142391
-0.00059624969
-0.00052392037
-0.0004006934
-0.00022248867
1.4379351e-05
0.00031241431
0.00067213843
0.0010913351
0.0015644008
0.0020818859
0.0026303242
0.0031923723
0.0037474008
0.0042724752
0.004743748
0.005138178
0.0054354416
0.0056198338
0.0056819068
0.0056195969
0.0054386555
0.0051523128
0.0047801674
0.0043462792
0.0038769491
0.0034002288
0.0029437384
0.0025074903
0.0020659338
0.002378553
0.0015271478
0.00094307557
0.00050990203
0.00015531665
-0.00012823929
-0.00034963353
-0.00051955209
-0.00064552782
-0.00073179683
-0.00077971638
-0.00078805777
-0.00075345507
-0.00067102869
-0.00053513726
-0.00034022582
-8.1736722e-05
0.00024295877
0.00063366088
0.0010865396
0.0015935143
0.0021419413
0.0027145949
0.0032901882
0.0038443108
0.0043508549
0.0047838365
0.0051194805
0.0053383741
0.0054274265
0.0053813382
0.0052033194
0.0049049282
0.0045050148
0.00402775
0.0035003259
0.0029528968
0.0024160026
0.0018845979
0.0013220649
0.0024870017
0.001516705
0.00086097398
0.00038251429
-5.7887096e-06
-0.00031601206
-0.00056099382
-0.00075492026
-0.00090770923
-0.0010249697
-0.0011085863
-0.0011571274
-0.0011663977
-0.0011301616
-0.0010409925
-0.00089122726
-0.00067399683
-0.00038429377
-2.0023342e-05
0.00041702562
0.00092037816
0.0014784
0.0020740576
0.0026853331
0.00328606
0.003847356
0.004339548
0.0047344577
0.0050078492
0.0051417749
0.0051265013
0.0049616851
0.0046565707
0.0042291087
0.0037039362
0.0031099709
0.0024807825
0.0018515397
0.0012136275
0.00052013956
0.0024234512
0.0013431937
0.00062014912
9.7579529e-05
-0.00032545501
-0.00066530156
-0.00093846256
-0.001162262
-0.0013486573
-0.0015043151
-0.0016313623
-0.0017279065
-0.0017886834
-0.0018058669
-0.0017700023
-0.0016710485
-0.0014995156
-0.0012476632
-0.00091070884
-0.00048798822
1.6032543e-05
0.00059113776
0.0012207367
0.0018822229
0.0025475863
0.0031847849
0.0037597404
0.0042388386
0.0045917313
0.0047941586
0.0048304475
0.0046953142
0.0043946378
0.0039449593
0.003371506
0.0027056396
0.0019856025
0.0012528573
0.00049636377
-0.00034077141
0.0021601247
0.00097997782
0.00019500234
-0.00036955228
-0.00082749804
-0.0011992738
-0.0015047954
-0.0017642059
-0.0019911948
-0.0021932031
-0.002372341
-0.0025260165
-0.0026476681
-0.0027276468
-0.002754214
-0.0027146534
-0.0025964948
-0.0023888285
-0.0020836698
-0.0016773226
-0.0011716419
-0.00057474692
9.7662939e-05
0.00082279004
0.0015709285
0.0023066841
0.0029909576
0.0035836281
0.0040467546
0.0043479913
0.0044638221
0.0043821815
0.00410404
0.0036435374
0.0030262414
0.0022864752
0.0014683786
0.00062140346
-0.00026709938
-0.0012642668
0.0016718274
0.00040293918
-0.00043782004
-0.0010416561
-0.0015342392
-0.0019399498
-0.0022819011
-0.0025827766
-0.0028577367
-0.0031147613
-0.0033557317
-0.0035771611
-0.0037709974
-0.003925557
-0.0040265657
-0.0040583162
-0.0040049543
-0.0038518899
-0.0035873046
-0.0032036907
-0.0026993426
-0.0020798791
-0.001358827
-0.00055859444
0.00028982557
0.0011477503
0.0019706312
0.0027108257
0.0033211864
0.0037591692
0.0039910083
0.0039954223
0.0037663028
0.0033137874
0.0026630099
0.0018514391
0.00093026092
-4.1286482e-05
-0.0010768932
-0.0022547371
0.00093616087
-0.0004092573
-0.0012990506
-0.0019391196
-0.0024658569
-0.0029074294
-0.0032899521
-0.0036384057
-0.0039692111
-0.0042907109
-0.004604407
-0.0049057823
-0.0051851563
-0.0054286444
-0.0056192113
-0.0057378447
-0.0057648759
-0.0056814607
-0.0054712118
-0.0051219276
-0.0046273642
-0.0039891643
-0.0032178293
-0.002334241
-0.0013698429
-0.00036618653
0.00062659113
0.0015524852
0.0023535112
0.0029745384
0.0033686003
0.00350202
0.0033586097
0.0029420921
0.0022756913
0.0013997126
0.00037336816
-0.0007323931
-0.0019318678
-0.0033154949
-6.6052508e-05
-0.0014747675
-0.0024063514
-0.0030793949
-0.0036397181
-0.0041190954
-0.0045464555
-0.0049488673
-0.0053438568
-0.0057400219
-0.0061384086
-0.0065334087
-0.006913647
-0.0072629368
-0.0075613103
-0.0077861689
-0.0079136013
-0.0079199022
-0.0077833026
-0.0074858878
-0.007015664
-0.006368749
-0.0055512025
-0.0045808452
-0.0034882531
-0.0023169354
-0.0011223162
3.0722598e-05
0.0010718667
0.0019308696
0.0025441204
0.002861534
0.0028527876
0.0025116779
0.0018570693
0.00093108662
-0.00019835716
-0.0014465727
-0.0028280678
-0.0044470434
-0.0013502315
-0.0028081072
-0.0037738391
-0.0044764485
-0.0050697202
-0.0055888208
-0.0060653102
-0.0065281704
-0.0069959371
-0.0074774333
-0.0079732587
-0.0084767418
-0.0089748329
-0.0094490255
-0.0098763253
-0.010230333
-0.010482512
-0.010603702
-0.010565912
-0.010344398
-0.0099200082
-0.0092817418
-0.0084292784
-0.0073754201
-0.0061479937
-0.0047909094
-0.0033639371
-0.0019408007
-0.00060527668
0.00055480512
0.0014553978
0.0020251797
0.0022144145
0.0020020342
0.0013987327
0.00044639217
-0.00077822317
-0.002174623
-0.0037571064
-0.0056452797
-0.0029274698
-0.0044196925
-0.0054116377
-0.0061402585
-0.0067656835
-0.0073262215
-0.0078558896
-0.0083854486
-0.0089344165
-0.0095118956
-0.010118146
-0.010745559
-0.011379535
-0.011999328
-0.012578921
-0.013087997
-0.0134931
-0.013759094
-0.013850963
-0.013736008
-0.013386437
-0.012782325
-0.011914796
-0.010789236
-0.0094282383
-0.0078738023
-0.006188252
-0.0044532832
-0.0027665842
-0.0012356614
3.1122211e-05
0.00093570316
0.0014023723
0.0013885362
0.00089107733
-5.196406e-05
-0.0013557163
-0.0029019668
-0.0047043374
-0.0068994894
-0.0048040227
-0.0063154534
-0.0073255205
-0.0080764111
-0.0087328479
-0.0093360048
-0.0099222042
-0.010523908
-0.011161669
-0.011845018
-0.012574082
-0.013340559
-0.014128526
-0.014915198
-0.015671655
-0.01636366
-0.016952675
-0.017397191
-0.017654482
-0.01768285
-0.017444416
-0.016908442
-0.016055159
-0.014879786
-0.013396644
-0.011642726
-0.0096801162
-0.0075964851
-0.0055027968
-0.0035274965
-0.0018068054
-0.00047139902
0.00036929946
0.00064259415
0.00032360296
-0.00055924784
-0.0019151914
-0.0036068492
-0.0056467053
-0.0081900008
-0.0069809238
-0.0084965928
-0.0095167088
-0.01028586
-0.010971533
-0.011617477
-0.012262213
-0.012939908
-0.013672305
-0.014469621
-0.015332171
-0.016251305
-0.017210131
-0.018184134
-0.019141741
-0.020044935
-0.020850077
-0.021509066
-0.021970964
-0.02218422
-0.022099576
-0.021673694
-0.020873511
-0.019681171
-0.018099256
-0.016155935
-0.013909212
-0.011449396
-0.0088985911
-0.0064060472
-0.0041384151
-0.0022646572
-0.00093649363
-0.00026722651
-0.00031418714
-0.0010672383
-0.0024341959
-0.0042581318
-0.0065501411
-0.009485346
-0.0094538029
-0.010959566
-0.011981901
-0.01276492
-0.013477029
-0.014164275
-0.014867353
-0.015622263
-0.016452223
-0.017368527
-0.01837212
-0.019454464
-0.020598154
-0.021777375
-0.022958265
-0.024099309
-0.025151919
-0.026061376
-0.026768269
-0.027210613
-0.027326771
-0.02705926
-0.026359543
-0.025193809
-0.023549222
-0.021440795
-0.018917667
-0.016068035
-0.013021207
-0.0099451181
-0.0070376576
-0.0045107011
-0.0025669975
-0.001372582
-0.0010308864
-0.0015623909
-0.002881249
-0.0048125417
-0.007366367
-0.010738777
-0.012212975
-0.01369635
-0.014713601
-0.015505558
-0.016239778
-0.016964383
-0.017722353
-0.018551826
-0.019477968
-0.020513698
-0.02166117
-0.02291253
-0.024250408
-0.025648205
-0.027070238
-0.028471891
-0.029799938
-0.030993221
-0.031983857
-0.032699176
-0.033064549
-0.033007223
-0.032461358
-0.03137487
-0.029715746
-0.02748134
-0.024706488
-0.021471267
-0.01790634
-0.014193782
-0.010560931
-0.0072650573
-0.0045677092
-0.0027006247
-0.0018298174
-0.0020229943
-0.0032128487
-0.0052112075
-0.0080289583
-0.011883989
-0.015243864
-0.016695074
-0.01770082
-0.018496048
-0.019245901
-0.020000478
-0.020805371
-0.021701429
-0.022716481
-0.023865835
-0.02515358
-0.026573228
-0.028108065
-0.029731272
-0.031405866
-0.033084607
-0.034710054
-0.036214966
-0.037523242
-0.038551609
-0.03921227
-0.039416615
-0.039080245
-0.038131389
-0.036515269
-0.034207409
-0.031222734
-0.027626331
-0.023542667
-0.0191608
-0.014732478
-0.01055952
-0.0069675991
-0.0042666003
-0.0027036901
-0.0024149476
-0.0033694532
-0.0053752924
-0.0084485045
-0.012829907
-0.018527824
-0.01994108
-0.020930207
-0.021722041
-0.022478115
-0.023250626
-0.024088469
-0.025036166
-0.026125264
-0.027374477
-0.028790743
-0.030369717
-0.032096003
-0.033943131
-0.035873326
-0.037837202
-0.039773571
-0.041609575
-0.043261338
-0.044635376
-0.045630982
-0.046143908
-0.046071535
-0.045318098
-0.04380702
-0.041487768
-0.038349951
-0.03443659
-0.029857248
-0.024798494
-0.019527897
-0.014386673
-0.0097658376
-0.0060634065
-0.0036268194
-0.00268577
-0.0032701673
-0.005200529
-0.0085067063
-0.013454411
-0.022043416
-0.023418509
-0.024387702
-0.025168094
-0.025917023
-0.026689317
-0.027538405
-0.028514012
-0.029652931
-0.030978627
-0.032501989
-0.034221678
-0.036124271
-0.038184157
-0.04036319
-0.042610226
-0.04486074
-0.047036718
-0.049047049
-0.050788638
-0.052148493
-0.053007082
-0.05324314
-0.052739804
-0.05139469
-0.049129507
-0.045904578
-0.041734434
-0.036704828
-0.030988819
-0.024858017
-0.018683085
-0.012916024
-0.0080482098
-0.0045446373
-0.0027564906
-0.0028058562
-0.004550453
-0.0080492404
-0.013596868
-0.025768228
-0.027112514
-0.028060782
-0.028819695
-0.029542796
-0.030288767
-0.031117648
-0.032086697
-0.033240097
-0.034607815
-0.036205999
-0.038037221
-0.040090616
-0.042341793
-0.044752469
-0.047269941
-0.049826585
-0.052339571
-0.054711041
-0.056828954
-0.058568867
-0.05979691
-0.060374187
-0.060162873
-0.059035692
-0.056885406
-0.053640509
-0.049282115
-0.043864186
-0.037534993
-0.030556264
-0.023313737
-0.01630962
-0.010126934
-0.005360632
-0.0025112382
-0.0018304431
-0.003248117
-0.0068771966
-0.013049351
-0.029681363
-0.031012305
-0.031941468
-0.032665835
-0.033337175
-0.0340204
-0.034785488
-0.035700672
-0.036820461
-0.038183531
-0.039812775
-0.041715551
-0.043883966
-0.046294957
-0.048910041
-0.051674848
-0.054518598
-0.057353737
-0.060075954
-0.06256481
-0.064685237
-0.066290137
-0.067224366
-0.067330409
-0.066457136
-0.064469228
-0.061262593
-0.056782114
-0.051044029
-0.04416182
-0.036373017
-0.028060998
-0.019761251
-0.012138321
-0.0059214706
-0.0017846321
-0.00015022568
-0.0010660458
-0.0047368159
-0.011546344
-0.033766863
-0.035115328
-0.036030294
-0.036702203
-0.037285743
-0.037856336
-0.038499055
-0.039298025
-0.040321945
-0.041620865
-0.043226001
-0.045150208
-0.047388663
-0.049919338
-0.052703068
-0.055683285
-0.058785598
-0.061917446
-0.064968039
-0.06780881
-0.070294698
-0.072266401
-0.073553997
-0.073982246
-0.073376934
-0.071577493
-0.068448095
-0.063896916
-0.057899343
-0.050526811
-0.041979992
-0.032621705
-0.022999288
-0.013840199
-0.0060018411
-0.00034753651
0.002488825
0.0022858552
-0.0013071014
-0.0087525658
-0.03801858
-0.039433151
-0.040341632
-0.040935114
-0.041380389
-0.041770725
-0.042214046
-0.04281713
-0.043667729
-0.044830256
-0.046345703
-0.048232745
-0.050489203
-0.053093227
-0.056003923
-0.059161458
-0.062486892
-0.065881927
-0.069228841
-0.072390817
-0.075213088
-0.077524851
-0.079142478
-0.079874236
-0.07952665
-0.077914601
-0.074873283
-0.070275939
-0.064056982
-0.056242191
-0.046986273
-0.036615249
-0.025665253
-0.014901297
-0.0052913953
0.0021077036
0.0064155868
0.0071748338
0.0038154596
-0.0042481217
-0.042447509
-0.044000078
-0.044911002
-0.045386367
-0.045621853
-0.045740698
-0.045884944
-0.046192907
-0.046777106
-0.047719275
-0.049071118
-0.050856708
-0.053075278
-0.05570353
-0.058697095
-0.061991199
-0.065500864
-0.069120829
-0.072725562
-0.076169412
-0.079287748
-0.081898516
-0.083805095
-0.084800551
-0.084673637
-0.083217451
-0.080241031
-0.075585688
-0.069147175
-0.060905724
-0.050965594
-0.039604125
-0.027325078
-0.014902321
-0.0033870333
0.0059806203
0.012049724
0.014062893
0.011136448
0.0024907263
-0.047093574
-0.048886283
-0.049805411
-0.050099337
-0.050022255
-0.049746721
-0.049464569
-0.049356621
-0.049566168
-0.050194499
-0.051303793
-0.05292185
-0.055046926
-0.057651644
-0.060685623
-0.064076795
-0.067732109
-0.071537624
-0.075359012
-0.079040271
-0.08240661
-0.085264417
-0.087404183
-0.08860438
-0.088637162
-0.087275535
-0.084305068
-0.079538466
-0.072836425
-0.064136486
-0.053492424
-0.041126606
-0.027494125
-0.013349914
0.00020538948
0.011771602
0.019918107
0.023528443
0.021289882
0.012118838
-0.052045775
-0.054218606
-0.055138337
-0.0551467
-0.054607452
-0.053772116
-0.052902859
-0.052235273
-0.051948474
-0.052163605
-0.052950975
-0.054338527
-0.056319573
-0.058858814
-0.061896633
-0.065350359
-0.069116521
-0.073070275
-0.077068392
-0.080940661
-0.084502705
-0.08754847
-0.089855032
-0.091186115
-0.091298277
-0.08994411
-0.086887705
-0.081915833
-0.074857476
-0.065611305
-0.054183381
-0.040739766
-0.025676745
-0.0097069505
0.0060548341
0.02008181
0.03066964
0.036293296
0.035075868
0.025465235
-0.057478447
-0.060214451
-0.061091684
-0.060640082
-0.059418817
-0.057801375
-0.05614475
-0.054750649
-0.053835818
-0.053537779
-0.053929243
-0.055032053
-0.056828661
-0.05927055
-0.062285579
-0.065775412
-0.069624585
-0.073695387
-0.077830042
-0.081849179
-0.085553895
-0.088725174
-0.091126191
-0.092505392
-0.092601356
-0.091148931
-0.08788974
-0.082585018
-0.075033886
-0.065098801
-0.052740896
-0.038070849
-0.021420578
-0.0034424963
0.014768086
0.031596927
0.045084164
0.053256051
0.053516423
0.043607194
-0.06371928
-0.067238028
-0.067947645
-0.066741303
-0.064513289
-0.061816352
-0.059126606
-0.056817694
-0.055138791
-0.054234001
-0.054167835
-0.054946431
-0.056533412
-0.058860893
-0.06183678
-0.065347291
-0.06925964
-0.073421329
-0.077660162
-0.081783651
-0.0855789
-0.088812904
-0.091233965
-0.092574291
-0.092554237
-0.09088857
-0.087295578
-0.081509938
-0.073299751
-0.062490459
-0.048998008
-0.032876204
-0.014386783
0.0058944841
0.026924067
0.047044481
0.064067206
0.0755309
0.077939107
0.068004999
-0.071381454
-0.075894155
-0.076133029
-0.073672886
-0.069958779
-0.065787943
-0.06176936
-0.058340619
-0.055765595
-0.054175671
-0.053610136
-0.054046036
-0.055417246
-0.057629341
-0.06056585
-0.064092133
-0.068056526
-0.072289913
-0.07660482
-0.080794289
-0.08463118
-0.087867966
-0.090237512
-0.091455088
-0.091222009
-0.089231245
-0.08517556
-0.078760176
-0.069717939
-0.057831882
-0.042965806
-0.025108366
-0.0044393936
0.018569872
0.04296458
0.067104765
0.088610532
0.10448303
0.11010459
0.10076048
-0.081632072
-0.087182293
-0.086270819
-0.081716865
-0.075815177
-0.06965533
-0.06396174
-0.059201028
-0.055614101
-0.053287269
-0.052209926
-0.052311423
-0.053484706
-0.055599988
-0.058511588
-0.062060576
-0.066074832
-0.070367671
-0.074735985
-0.078958359
-0.08279362
-0.085979976
-0.088235087
-0.089257345
-0.088728742
-0.086319419
-0.081694228
-0.074525217
-0.06450335
-0.05135919
-0.034889884
-0.014998032
0.0082484668
0.034515148
0.063013291
0.092225806
0.1196598
0.14172239
0.15240434
0.14512456
-0.096760423
-0.10273874
-0.09919851
-0.091155824
-0.082063079
-0.07326203
-0.065508381
-0.059217562
-0.054540747
-0.051469955
-0.049910753
-0.049723553
-0.050746393
-0.052806564
-0.055725068
-0.059316859
-0.063388931
-0.067737394
-0.072144378
-0.076375167
-0.080175885
-0.08327189
-0.08536706
-0.086144225
-0.085267133
-0.082383323
-0.077128796
-0.069139076
-0.058056141
-0.043545249
-0.025315692
-0.0031512169
0.023041101
0.05314153
0.086633594
0.12228324
0.15778109
0.1889519
0.20809812
0.20632795
-0.12133997
-0.12518762
-0.11587338
-0.10208149
-0.088417607
-0.076198578
-0.066006037
-0.058052508
-0.052291599
-0.04855053
-0.046608689
-0.046233327
-0.04719511
-0.049273035
-0.052253359
-0.055925662
-0.060077891
-0.064491306
-0.068935858
-0.073166217
-0.076918585
-0.079908334
-0.081828497
-0.082349295
-0.081119228
-0.077764927
-0.071896336
-0.063110781
-0.050996595
-0.035142181
-0.015145767
0.0093692099
0.038725655
0.073129928
0.11252003
0.15626284
0.20263113
0.24752339
0.2813012
0.2923568
-0.16445742
-0.15843315
-0.13714865
-0.11415772
-0.094107576
-0.077631473
-0.064738149
-0.055162065
-0.048490192
-0.044291859
-0.04217318
-0.041787766
-0.042832821
-0.045040077
-0.04816518
-0.051977512
-0.056251246
-0.0607578
-0.065259621
-0.069505169
-0.073225004
-0.076128797
-0.077903233
-0.078210985
-0.07669097
-0.072948229
-0.066578132
-0.057141035
-0.044172736
-0.027180719
-0.0056363806
0.021034977
0.053464318
0.092331825
0.13829648
0.19182712
0.25266824
0.31751165
0.3762688
0.41537097
-0.24629428
-0.20631833
-0.16213062
-0.12552926
-0.097144029
-0.075878546
-0.060487929
-0.049752724
-0.042660634
-0.038436602
-0.036490744
-0.036365795
-0.037697771
-0.040185586
-0.043567693
-0.04760468
-0.052066377
-0.056722171
-0.06133362
-0.065648772
-0.069397803
-0.072289738
-0.074010107
-0.074220325
-0.072558992
-0.068606011
-0.061962108
-0.052156283
-0.038683286
-0.020981472
0.0015959071
0.029825493
0.064686685
0.10746523
0.15987147
0.22417826
0.30290591
0.39553265
0.49624388
0.60321276
-0.42543905
-0.26573042
-0.17722165
-0.12463626
-0.089116886
-0.065103017
-0.049324226
-0.039185704
-0.032984099
-0.029674493
-0.028571138
-0.029187189
-0.031157266
-0.034190347
-0.038038066
-0.042473788
-0.047278631
-0.052231661
-0.057102718
-0.061647021
-0.065601063
-0.068679439
-0.070572118
-0.070940999
-0.069408285
-0.065630156
-0.059132704
-0.04945315
-0.036075062
-0.01840348
0.0042716198
0.032847591
0.068543071
0.11314253
0.16943713
0.2420177
0.33806659
0.46591635
0.64305516
0.92086274
-0.793313
-0.32444223
-0.14899748
-0.08772544
-0.055345842
-0.035999539
-0.025091572
-0.019201023
-0.016355555
-0.015619134
-0.016494373
-0.018654191
-0.021853314
-0.025888684
-0.030575703
-0.035734101
-0.041179321
-0.046716571
-0.05213628
-0.057210466
-0.061689789
-0.065301184
-0.067746186
-0.068701216
-0.067824809
-0.064708245
-0.058942056
-0.050072704
-0.037593628
-0.020927377
0.00061049443
0.02788121
0.062058925
0.10491354
0.15945151
0.23152818
0.33385165
0.49409241
0.79001657
1.3837785
1.1893144e-05
-0.00013096905
-0.00044316113
-0.00084572019
-0.0012641247
-0.001652926
-0.0019812688
-0.0022303331
-0.0023894889
-0.0024530339
-0.0024180299
-0.0022830213
-0.0020474391
-0.0017115267
-0.0012766412
-0.00074579062
-0.0001242855
0.00057960714
0.0013541088
0.0021835635
0.0030483422
0.0039250854
0.0047873103
0.0056064221
0.006353087
0.0069989153
0.0075183457
0.0078905867
0.0081014467
0.0081448836
0.0080241239
0.0077522567
0.0073522792
0.0068566502
0.0063062523
0.0057486248
0.005238765
0.0048329303
0.0045928522
0.0045542951
0.00015383017
8.5620938e-06
-0.00024159119
-0.00055044863
-0.00087260712
-0.0011737571
-0.0014296698
-0.0016241758
-0.0017469176
-0.0017914526
-0.0017538389
-0.0016317119
-0.0014238166
-0.0011299214
-0.00075101777
-0.00028971117
0.00024929003
0.00085867697
0.0015281177
0.002243979
0.0029892598
0.003743932
0.0044852966
0.0051890082
0.0058302231
0.0063850454
0.0068321454
0.0071544186
0.0073405368
0.0073862338
0.0072951874
0.0070794064
0.0067590879
0.0063619799
0.0059222947
0.0054790555
0.0050734409
0.0047487605
0.0045501426
0.0045149074
0.00047209819
0.00025400232
-1.7894618e-06
-0.0002808865
-0.00056120038
-0.00081817709
-0.0010340449
-0.0011967542
-0.0012981004
-0.0013325655
-0.0012964321
-0.0011871679
-0.0010031324
-0.00074357045
-0.00040882841
-7.2340306e-07
0.00047700709
0.0010182474
0.0016141076
0.0022526585
0.0029188959
0.0035948629
0.004260195
0.0048928952
0.0054704288
0.00597107
0.0063754097
0.006667904
0.0068383208
0.0068829272
0.0068052702
0.0066164454
0.0063348063
0.0059851467
0.0055974391
0.0052051404
0.0048428853
0.0045449013
0.0043474686
0.0042803147
0.00089372118
0.00056203528
0.00026153038
-2.4276737e-05
-0.00029496962
-0.00053416554
-0.00073032834
-0.00087625526
-0.00096687255
-0.00099848602
-0.00096828455
-0.00087398248
-0.00071370812
-0.0004861226
-0.00019071674
0.00017176798
0.00059885199
0.0010858249
0.0016253111
0.0022069645
0.0028173572
0.0034400424
0.0040560539
0.0046445976
0.0051841084
0.0056535728
0.0060340272
0.0063101092
0.0064715083
0.0065141527
0.0064409758
0.0062621372
0.0059946357
0.0056613362
0.0052895053
0.0049090163
0.0045505476
0.0042440661
0.0040161363
0.0038805797
0.0013445745
0.00088421753
0.00052142722
0.00021115069
-6.6639401e-05
-0.00030272258
-0.00049146741
-0.00063062929
-0.00071854601
-0.00075365087
-0.00073428265
-0.00065854081
-0.00052434261
-0.0003296779
-7.3012896e-05
0.00024620129
0.00062696288
0.0010661492
0.0015580022
0.0020937347
0.0026613236
0.0032455424
0.0038283163
0.0043893989
0.0049073994
0.0053611133
0.0057310681
0.0060011471
0.0061601203
0.006202899
0.0061313443
0.0059544937
0.0056881323
0.0053537124
0.0049766912
0.0045845853
0.0042056284
0.003867056
0.0035844876
0.0033606796
0.0017715137
0.001177418
0.00074327402
0.00039730088
0.00010064572
-0.00014366334
-0.00033537806
-0.00047697497
-0.00057013734
-0.00061543815
-0.00061238851
-0.00055946334
-0.00045430699
-0.00029412098
-7.6185751e-05
0.00020152327
0.0005396657
0.00093685986
0.0013890572
0.0018890332
0.0024260662
0.0029858826
0.0035509092
0.0041009125
0.0046140053
0.005068006
0.0054420641
0.0057184088
0.0058840324
0.0059320921
0.0058628321
0.0056838737
0.0054097986
0.0050610195
0.004661967
0.0042389899
0.0038194543
0.0034299428
0.0030775666
0.0027498934
0.0021293088
0.0014030953
0.00089416706
0.00050603945
0.00018265842
-7.8338711e-05
-0.00028154206
-0.00043376258
-0.00053977454
-0.00060211945
-0.00062134824
-0.00059618688
-0.00052387127
-0.00040065903
-0.00022246949
1.4383862e-05
0.00031240509
0.00067211567
0.0010912979
0.0015643484
0.0020818195
0.0026302475
0.0031922902
0.0037473155
0.0042723853
0.004743651
0.0051380757
0.0054353418
0.0056197435
0.0056818238
0.0056195097
0.0054385554
0.0051522043
0.0047800635
0.0043461861
0.0038768448
0.0034000612
0.0029436075
0.0025076516
0.0020655505
0.0023793861
0.0015264934
0.00094320917
0.00051016338
0.00015545128
-0.00012812089
-0.00034950983
-0.00051943693
-0.00064542422
-0.00073170447
-0.00077963569
-0.00078798919
-0.00075339913
-0.00067098649
-0.00053511026
-0.00034021481
-8.1741098e-05
0.00024294035
0.00063362909
0.0010864937
0.0015934532
0.0021418653
0.0027145083
0.0032900971
0.0038442189
0.0043507606
0.0047837355
0.0051193733
0.0053382684
0.0054273308
0.0053812511
0.0052032284
0.0049048231
0.0045049021
0.0040276476
0.0035002214
0.0029527203
0.0024158755
0.0018848575
0.0013215886
0.0024879348
0.0015159182
0.00086109689
0.00038278812
-5.6575093e-06
-0.0003158962
-0.0005608682
-0.00075480068
-0.00090759943
-0.0010248699
-0.0011084975
-0.0011570506
-0.0011663333
-0.0011301099
-0.0010409549
-0.00089120566
-0.00067399241
-0.00038430605
-2.0050605e-05
0.00041698482
0.00092032369
0.0014783295
0.0020739714
0.0026852354
0.0032859583
0.0038472555
0.0043394474
0.0047343515
0.0050077361
0.0051416626
0.005126399
0.0049615913
0.0046564722
0.0042289987
0.003703829
0.0031098598
0.0024805899
0.0018514167
0.0012139923
0.0005195674
0.0024244797
0.0013422881
0.00062026511
9.7867622e-05
-0.00032532437
-0.00066518619
-0.00093833426
-0.001162138
-0.0013485415
-0.0015042076
-0.0016312648
-0.0017278206
-0.00178861
-0.0018058064
-0.0017699549
-0.0016710156
-0.0014994996
-0.0012476656
-0.00091072958
-0.00048802479
1.5983244e-05
0.00059107393
0.001220657
0.0018821269
0.0025474781
0.003184673
0.0037596316
0.004238732
0.0045916208
0.0047940418
0.0048303317
0.0046952076
0.0043945374
0.0039448554
0.0033714037
0.0027055253
0.0019853884
0.0012527342
0.00049684111
-0.00034144289
0.0021612427
0.00097896764
0.00019511459
-0.00036924903
-0.0008273655
-0.0011991564
-0.0015046624
-0.0017640762
-0.0019910725
-0.0021930877
-0.0023722338
-0.0025259196
-0.0026475836
-0.0027275757
-0.0027541564
-0.0027146096
-0.0025964661
-0.0023888174
-0.0020836787
-0.0016773511
-0.0011716855
-0.00057480703
9.7588949e-05
0.00082270086
0.0015708229
0.0023065659
0.0029908361
0.0035835111
0.0040466421
0.0043478769
0.0044637033
0.0043820642
0.0041039296
0.0036434329
0.0030261466
0.0022863641
0.0014681427
0.00062127713
-0.00026650046
-0.0012650487
0.0016730271
0.00040183899
-0.00043770839
-0.0010413372
-0.001534103
-0.0019398282
-0.0022817613
-0.0025826392
-0.0028576062
-0.0031146371
-0.0033556146
-0.0035770526
-0.0037708996
-0.0039254723
-0.0040264955
-0.0040582607
-0.0040049135
-0.0038518649
-0.0035872981
-0.0032037059
-0.0026993813
-0.0020799359
-0.0013588987
-0.00055867915
0.00028972637
0.0011476351
0.0019705038
0.0027106956
0.0033210624
0.0037590516
0.0039908912
0.003995303
0.0037661845
0.0033136766
0.0026629184
0.0018513329
0.00093000385
-4.1415784e-05
-0.0010761584
-0.0022556466
0.00093743229
-0.00041043275
-0.0012989367
-0.0019387848
-0.0024657155
-0.0029073025
-0.0032898044
-0.003638259
-0.0039690705
-0.0042905762
-0.0046042791
-0.0049056621
-0.0051850451
-0.0054285444
-0.0056191251
-0.0057377744
-0.0057648217
-0.0056814224
-0.0054711901
-0.0051219259
-0.0046273874
-0.0039892099
-0.0032178959
-0.0023343241
-0.0013699391
-0.00036629634
0.00062646651
0.0015523497
0.0023533746
0.0029744095
0.0033684798
0.0035019023
0.0033584905
0.002941977
0.0022756
0.0013996087
0.00037308715
-0.00073252435
-0.0019309764
-0.0033165529
-6.4720473e-05
-0.0014760033
-0.0024062333
-0.0030790441
-0.0036395697
-0.0041189616
-0.0045462992
-0.0049487108
-0.0053437051
-0.0057398751
-0.0061382683
-0.0065332762
-0.0069135228
-0.007262822
-0.0075612072
-0.0077860806
-0.0079135302
-0.0079198489
-0.0077832668
-0.0074858702
-0.0070156677
-0.0063687766
-0.0055512563
-0.0045809225
-0.0034883482
-0.0023170437
-0.0011224371
3.0588946e-05
0.0010717248
0.0019307293
0.0025439901
0.0028614136
0.0028526701
0.002511564
0.001856981
0.00093098371
-0.00019866821
-0.0014467068
-0.0028269939
-0.0044482745
-0.0013488508
-0.0028093875
-0.0037737157
-0.0044760828
-0.0050695633
-0.0055886786
-0.0060651444
-0.0065280037
-0.0069957741
-0.0074772738
-0.0079731047
-0.0084765953
-0.008974695
-0.0094488967
-0.0098762065
-0.010230226
-0.010482421
-0.01060363
-0.01056586
-0.010344366
-0.009919996
-0.0092817515
-0.0084293141
-0.0073754837
-0.0061480827
-0.0047910172
-0.003364058
-0.0019409326
-0.00060541812
0.00055465971
0.0014552581
0.0020250522
0.0022142958
0.0020019239
0.0013986526
0.00044629283
-0.0007785701
-0.0021747621
-0.0037558207
-0.0056467128
-0.0029260534
-0.0044210007
-0.0054115081
-0.00613988
-0.0067655173
-0.0073260696
-0.0078557131
-0.008385271