/*--------------------------------*- C++ -*----------------------------------*\
  =========                 |
  \\      /  F ield         | OpenFOAM: The Open Source CFD Toolbox
   \\    /   O peration     | Website:  https://openfoam.org
    \\  /    A nd           | Version:  7
     \\/     M anipulation  |
\*---------------------------------------------------------------------------*/
FoamFile
{
    version     2.0;
    format      ascii;
    class       surfaceScalarField;
    location    "38";
    object      phi;
}
// * * * * * * * * * * * * * * * * * * * * * * * * * * * * * * * * * * * * * //

dimensions      [0 3 -1 0 0 0 0];

internalField   nonuniform List<scalar> 
45600
(
2.7509991e-07
-2.8230907e-07
-8.0956481e-11
4.0330042e-07
-1.2817463e-07
-2.5497157e-11
1.3254369e-07
2.7076401e-07
-7.0242089e-12
-5.6231695e-07
6.9486205e-07
-1.7415615e-12
-1.6393155e-06
1.0769949e-06
3.4035668e-12
-3.0276247e-06
1.388303e-06
6.9075688e-12
-4.6524663e-06
1.6248337e-06
9.2127877e-12
-6.4450983e-06
1.7926215e-06
1.0830512e-11
-8.3454255e-06
1.9003141e-06
1.1967181e-11
-1.0301446e-05
1.9560065e-06
1.2723717e-11
-1.2267405e-05
1.9659469e-06
1.3160986e-11
-1.4201584e-05
1.9341673e-06
1.3304113e-11
-1.6064241e-05
1.8626451e-06
1.3157887e-11
-1.7816029e-05
1.7517757e-06
1.2720276e-11
-1.9417056e-05
1.6010146e-06
1.1985572e-11
-2.0826661e-05
1.4095933e-06
1.0947978e-11
-2.2003911e-05
1.1772407e-06
9.6062868e-12
-2.2908772e-05
9.0485638e-07
7.9609761e-12
-2.3503869e-05
5.9509514e-07
6.0034578e-12
-2.3756701e-05
2.5282923e-07
3.7406799e-12
-2.364214e-05
-1.1456461e-07
1.2199067e-12
-2.3145012e-05
-4.9713155e-07
-1.4638631e-12
-2.2262581e-05
-8.8242733e-07
-4.1921276e-12
-2.1006624e-05
-1.2559436e-06
-6.85419e-12
-1.9404865e-05
-1.6017392e-06
-9.3666886e-12
-1.7501553e-05
-1.9032977e-06
-1.166213e-11
-1.5356967e-05
-2.1445823e-06
-1.3614327e-11
-1.3045759e-05
-2.3112094e-06
-1.5016604e-11
-1.0654109e-05
-2.3916387e-06
-1.5657654e-11
-8.2758197e-06
-2.3782547e-06
-1.5459038e-11
-6.007559e-06
-2.2682205e-06
-1.4535626e-11
-3.9435161e-06
-2.0640275e-06
-1.3065273e-11
-2.1697779e-06
-1.7737592e-06
-1.1054681e-11
-7.5855097e-07
-1.4112535e-06
-8.2897089e-12
2.3819265e-07
-9.9673031e-07
-4.7893811e-12
7.96546e-07
-5.5829782e-07
-1.4052084e-12
9.2930281e-07
-1.3272052e-07
1.9253543e-12
7.0561359e-07
2.2364171e-07
5.3129788e-12
2.9047758e-07
4.1502664e-07
8.7582507e-12
2.9041852e-07
2.0947677e-12
1.3285542e-07
-4.1514136e-07
-2.2893041e-11
-3.0171467e-07
3.0641045e-07
-1.4508462e-11
-1.6154232e-06
1.5844863e-06
-1.2637429e-11
-3.8747226e-06
2.9541761e-06
-1.3361659e-11
-7.0073527e-06
4.209639e-06
-1.4503642e-11
-1.087976e-05
5.2607249e-06
-1.6023366e-11
-1.5335172e-05
6.0802629e-06
-1.7428705e-11
-2.0216008e-05
6.673478e-06
-1.8434111e-11
-2.5374065e-05
7.0583922e-06
-1.9000888e-11
-3.0673277e-05
7.2552383e-06
-1.9139345e-11
-3.5988545e-05
7.2812322e-06
-1.8859065e-11
-4.1202833e-05
7.1484728e-06
-1.817529e-11
-4.6203976e-05
6.8638063e-06
-1.7106181e-11
-5.0882103e-05
6.4299216e-06
-1.566545e-11
-5.5128234e-05
5.8471631e-06
-1.3864915e-11
-5.883432e-05
5.1156933e-06
-1.1718475e-11
-6.1894805e-05
4.237733e-06
-9.2361303e-12
-6.4209612e-05
3.2196669e-06
-6.4138697e-12
-6.5688362e-05
2.0738481e-06
-3.2755433e-12
-6.625547e-05
8.1994312e-07
1.0812121e-13
-6.5855982e-05
-5.1404761e-07
3.6208538e-12
-6.4460805e-05
-1.8923116e-06
7.1820709e-12
-6.2072475e-05
-3.2707744e-06
1.0647312e-11
-5.8729091e-05
-4.5993541e-06
1.3948162e-11
-5.4507082e-05
-5.8237706e-06
1.7015348e-11
-4.9521908e-05
-6.8884778e-06
1.9698156e-11
-4.3926392e-05
-7.7400974e-06
2.1765268e-11
-3.7906439e-05
-8.3311759e-06
2.3012399e-11
-3.1674138e-05
-8.6239856e-06
2.3405192e-11
-2.5458408e-05
-8.5940424e-06
2.3093463e-11
-1.9493626e-05
-8.2330318e-06
2.2220562e-11
-1.4006722e-05
-7.5509111e-06
2.0704442e-11
-9.2032696e-06
-6.577178e-06
1.8300131e-11
-5.2528796e-06
-5.3616625e-06
1.5002867e-11
-2.2739861e-06
-3.9757057e-06
1.1340284e-11
-3.1731197e-07
-2.5150417e-06
7.9351307e-12
6.5702102e-07
-1.107011e-06
4.6634702e-12
8.0368038e-07
7.7125986e-08
3.5244827e-12
4.1790387e-07
8.0093688e-07
4.4891319e-12
7.082736e-07
-3.0730626e-12
-2.7359765e-07
-1.4153062e-07
-1.273085e-11
-1.6275011e-06
1.6603211e-06
-7.5158668e-12
-4.2894215e-06
4.2464158e-06
-8.8125721e-12
-8.2746912e-06
6.9394547e-06
-7.3649969e-12
-1.3474428e-05
9.4093823e-06
-5.3677944e-12
-1.9708729e-05
1.149503e-05
-4.2815847e-12
-2.6765757e-05
1.3137293e-05
-3.5787103e-12
-3.4426622e-05
1.4334346e-05
-2.9849298e-12
-4.2478635e-05
1.5110409e-05
-2.4822956e-12
-5.0720453e-05
1.549706e-05
-2.0459145e-12
-5.8962297e-05
1.5523079e-05
-1.6398644e-12
-6.7023692e-05
1.5209869e-05
-1.2393792e-12
-7.4730534e-05
1.4570648e-05
-8.3230887e-13
-8.1912722e-05
1.361211e-05
-4.1206832e-13
-8.840315e-05
1.2337593e-05
2.0603843e-14
-9.4038477e-05
1.0751024e-05
4.502969e-13
-9.8661795e-05
8.8610538e-06
8.5025529e-13
-0.00010212709
6.6849643e-06
1.2087814e-12
-0.00010430523
4.2519751e-06
1.535339e-12
-0.00010509101
1.6057172e-06
1.8501075e-12
-0.00010441064
-1.1944095e-06
2.1583241e-12
-0.00010222946
-4.073492e-06
2.413911e-12
-9.8558515e-05
-6.9417097e-06
2.5554361e-12
-9.3459999e-05
-9.6978758e-06
2.5717102e-12
-8.7050395e-05
-1.2233392e-05
2.5325905e-12
-7.9501006e-05
-1.443788e-05
2.5392224e-12
-7.103529e-05
-1.6205809e-05
2.618794e-12
-6.1922723e-05
-1.744372e-05
2.6688776e-12
-5.2469135e-05
-1.8077559e-05
2.5531608e-12
-4.300367e-05
-1.8059526e-05
2.2939336e-12
-3.3862833e-05
-1.7373912e-05
2.1338218e-12
-2.5372252e-05
-1.6041514e-05
2.3133179e-12
-1.7826896e-05
-1.41225e-05
2.7514013e-12
-1.1470387e-05
-1.1718112e-05
3.0483527e-12
-6.4738312e-06
-8.9722532e-06
2.9534511e-12
-2.9140389e-06
-6.0749128e-06
2.6800426e-12
-7.5126437e-07
-3.2698879e-06
2.5732031e-12
1.9431551e-07
-8.6847956e-07
3.5780624e-12
2.6552637e-07
7.2980797e-07
5.7304688e-12
9.7378575e-07
8.2943525e-13
-7.4585407e-07
6.0433724e-07
-1.2948714e-11
-3.1796495e-06
4.0941181e-06
-1.5246378e-12
-7.3461226e-06
8.412895e-06
-6.9719511e-12
-1.3163077e-05
1.2756416e-05
-6.3094092e-12
-2.0455839e-05
1.670215e-05
-3.6662132e-12
-2.8992655e-05
2.003185e-05
-2.3178547e-12
-3.8513896e-05
2.2658536e-05
-1.4362385e-12
-4.8752695e-05
2.4573144e-05
-6.4511775e-13
-5.9447e-05
2.5804714e-05
1.4439379e-14
-7.034485e-05
2.6394911e-05
5.5053129e-13
-8.1205143e-05
2.6383372e-05
9.9414184e-13
-9.1795995e-05
2.5800721e-05
1.3638031e-12
-0.00010189242
2.4667077e-05
1.6685498e-12
-0.00011127464
2.2994324e-05
1.91575e-12
-0.00011972779
2.0790741e-05
2.1159255e-12
-0.00012704362
1.8066848e-05
2.2737905e-12
-0.00013302417
1.4841604e-05
2.3711126e-12
-0.00013748742
1.1148221e-05
2.3740248e-12
-0.00014027452
7.03907e-06
2.2599216e-12
-0.00014125806
2.5892495e-06
2.0517356e-12
-0.00014035078
-2.1016951e-06
1.8128559e-12
-0.00013751439
-6.9098816e-06
1.5459188e-12
-0.00013276703
-1.1689066e-05
1.2368416e-12
-0.00012618931
-1.6275586e-05
8.3060151e-13
-0.00011792788
-2.0494816e-05
3.11196e-13
-0.00010819591
-2.4169867e-05
-2.2640641e-13
-9.7269884e-05
-2.7131856e-05
-6.1141635e-13
-8.5482425e-05
-2.9231176e-05
-7.4565424e-13
-7.3210951e-05
-3.0349002e-05
-7.2222758e-13
-6.0862254e-05
-3.0408192e-05
-7.3788867e-13
-4.885344e-05
-2.9382736e-05
-8.2720669e-13
-3.7589912e-05
-2.7305092e-05
-7.1879194e-13
-2.7441342e-05
-2.4271105e-05
-8.4227848e-14
-1.8716709e-05
-2.0442712e-05
1.0031032e-12
-1.163944e-05
-1.6049439e-05
2.0060695e-12
-6.3235396e-06
-1.1390772e-05
2.5207868e-12
-2.7515356e-06
-6.8419446e-06
2.8737039e-12
-7.5718659e-07
-2.8629033e-06
3.6064563e-12
-9.532497e-09
-1.7839446e-08
4.5170818e-12
9.6426944e-07
3.8377177e-12
-1.2279723e-06
1.8323246e-06
-1.4448477e-11
-4.7881206e-06
7.6542636e-06
4.4852249e-12
-1.0521558e-05
1.4146338e-05
-6.0866821e-12
-1.8214351e-05
2.0449215e-05
-7.1888237e-12
-2.7603955e-05
2.6091759e-05
-4.7933029e-12
-3.8396312e-05
3.0824214e-05
-4.0474531e-12
-5.0283068e-05
3.4545296e-05
-3.7036517e-12
-6.2954794e-05
3.7244874e-05
-3.2456251e-12
-7.6109047e-05
3.8958968e-05
-2.793775e-12
-8.9453782e-05
3.9739648e-05
-2.3703559e-12
-0.00010270748
3.9637072e-05
-1.9516125e-12
-0.00011559754
3.8690781e-05
-1.5304322e-12
-0.00012785835
3.6927891e-05
-1.1104319e-12
-0.0001392302
3.4366179e-05
-6.980769e-13
-0.00014945975
3.1020288e-05
-2.9190413e-13
-0.00015830247
2.6909573e-05
1.237161e-13
-0.00016552724
2.2066366e-05
5.5966992e-13
-0.00017092274
1.654373e-05
9.9821624e-13
-0.00017430559
1.0421918e-05
1.3931386e-12
-0.00017552935
3.8130098e-06
1.7073331e-12
-0.00017449412
-3.1369282e-06
1.9509486e-12
-0.00017115588
-1.0248133e-05
2.165125e-12
-0.00016553481
-1.7310151e-05
2.3941485e-12
-0.0001577219
-2.4088479e-05
2.6111721e-12
-0.00014788319
-3.0333514e-05
2.7181309e-12
-0.00013626059
-3.5792467e-05
2.6425485e-12
-0.00012316896
-4.0223507e-05
2.4524809e-12
-0.00010898873
-4.3411436e-05
2.3438328e-12
-9.4153818e-05
-4.518392e-05
2.4547442e-12
-7.9134858e-05
-4.542712e-05
2.6780327e-12
-6.4418048e-05
-4.4099505e-05
2.7316476e-12
-5.0480348e-05
-4.1242797e-05
2.5098242e-12
-3.7762143e-05
-3.6989371e-05
2.3139722e-12
-2.6638851e-05
-3.1566062e-05
2.5390411e-12
-1.7393191e-05
-2.5295085e-05
3.1066942e-12
-1.01899e-05
-1.8593994e-05
3.6039124e-12
-5.0547115e-06
-1.1977104e-05
4.0364741e-12
-1.8598409e-06
-6.0578181e-06
3.4158645e-12
-3.2224667e-07
-1.5554598e-06
3.860063e-13
6.4203123e-07
5.9597695e-12
-1.6931725e-06
3.5255134e-06
-1.6944839e-11
-6.3714179e-06
1.2332501e-05
9.9098173e-12
-1.3671464e-05
2.144639e-05
-5.1098773e-12
-2.3234072e-05
3.001183e-05
-7.2893496e-12
-3.4695256e-05
3.7552947e-05
-4.5723058e-12
-4.7689834e-05
4.3818795e-05
-3.9971404e-12
-6.1857533e-05
4.8713002e-05
-3.8620863e-12
-7.6848074e-05
5.223542e-05
-3.4993163e-12
-9.2323875e-05
5.4434773e-05
-3.1069217e-12
-0.00010796028
5.5376051e-05
-2.7319525e-12
-0.00012344397
5.5120768e-05
-2.3456611e-12
-0.0001384707
5.3717508e-05
-1.9367935e-12
-0.00015274323
5.1200424e-05
-1.5052009e-12
-0.00016597054
4.7593493e-05
-1.0623826e-12
-0.00017786874
4.2918489e-05
-6.2576806e-13
-0.00018816405
3.7204883e-05
-1.9900881e-13
-0.00019659789
3.0500202e-05
2.3695137e-13
-0.00020293384
2.2879673e-05
7.0211182e-13
-0.00020696614
1.4454222e-05
1.1831546e-12
-0.00020852929
5.3761666e-06
1.6266743e-12
-0.00020750811
-4.1581049e-06
1.9747771e-12
-0.00020384767
-1.3908579e-05
2.2228872e-12
-0.00019756247
-2.3595372e-05
2.4280063e-12
-0.00018874397
-3.2906987e-05
2.6629722e-12
-0.00017756589
-4.1511587e-05
2.9204487e-12
-0.00016428625
-4.9072086e-05
3.0830658e-12
-0.0001492455
-5.5264251e-05
3.0314671e-12
-0.00013285989
-5.979706e-05
2.8126979e-12
-0.00011560968
-6.2434171e-05
2.6641583e-12
-9.8021779e-05
-6.3015042e-05
2.7898263e-12
-8.0647233e-05
-6.1474019e-05
3.0922437e-12
-6.403416e-05
-5.7855815e-05
3.2242607e-12
-4.8697424e-05
-5.2326097e-05
3.021809e-12
-3.5086903e-05
-4.5176637e-05
2.7672787e-12
-2.3556701e-05
-3.6825345e-05
2.8221111e-12
-1.4337881e-05
-2.7812804e-05
3.3918729e-12
-7.5174679e-06
-1.8797468e-05
4.6146e-12
-3.0267131e-06
-1.0548572e-05
3.6625066e-12
-6.4249897e-07
-3.9396966e-06
-2.0517572e-12
-4.7446823e-10
8.3621612e-12
-2.13294e-06
5.6584723e-06
-1.9717075e-11
-7.8910826e-06
1.809063e-05
1.4704229e-11
-1.6717414e-05
3.0272728e-05
-4.3535307e-12
-2.8105751e-05
4.1400176e-05
-7.3284495e-12
-4.15851e-05
5.10323e-05
-4.1239686e-12
-5.6714148e-05
5.8947845e-05
-3.5982005e-12
-7.3078291e-05
6.5077148e-05
-3.597576e-12
-9.0287099e-05
6.9444233e-05
-3.2769667e-12
-0.00010797133
7.211901e-05
-2.9027766e-12
-0.00012577927
7.3183997e-05
-2.5508529e-12
-0.00014337274
7.2714241e-05
-2.1943376e-12
-0.00016042342
7.0768183e-05
-1.8217413e-12
-0.00017661019
6.7387194e-05
-1.4239233e-12
-0.00019161814
6.2601443e-05
-9.9675857e-13
-0.00020513951
5.6439865e-05
-5.5611129e-13
-0.00021687683
4.894221e-05
-1.3084351e-13
-0.00022654814
4.0171506e-05
2.6747052e-13
-0.00023389406
3.0225589e-05
6.6001996e-13
-0.0002386865
1.9246652e-05
1.0779727e-12
-0.00024073842
7.4280851e-06
1.51861e-12
-0.00023991436
-4.9821554e-06
1.9238096e-12
-0.00023614101
-1.7681921e-05
2.2228867e-12
-0.00022941746
-3.0318929e-05
2.3825198e-12
-0.00021982415
-4.2500313e-05
2.4724649e-12
-0.00020752992
-5.3805835e-05
2.6066543e-12
-0.0001927961
-6.3805906e-05
2.8133664e-12
-0.00017597669
-7.2083633e-05
2.9659035e-12
-0.00015751362
-7.8260111e-05
2.8952212e-12
-0.00013792611
-8.2021693e-05
2.617891e-12
-0.00011779373
-8.3147469e-05
2.4063358e-12
-9.7732974e-05
-8.1534808e-05
2.5284007e-12
-7.8368135e-05
-7.722063e-05
2.9042589e-12
-6.0297848e-05
-7.039633e-05
3.147074e-12
-4.40595e-05
-6.1414969e-05
3.0130789e-12
-3.0094431e-05
-5.0790461e-05
2.7020459e-12
-1.8717284e-05
-3.9189994e-05
3.0255533e-12
-1.0093054e-05
-2.7421683e-05
4.8590951e-12
-4.2253002e-06
-1.6416302e-05
3.7978345e-12
-9.5848055e-07
-7.2065129e-06
-4.6782314e-12
-9.5897483e-07
1.0348858e-11
-2.5450555e-06
8.2035507e-06
-2.2492648e-11
-9.3288506e-06
2.4874405e-05
1.8978074e-11
-1.961537e-05
4.0559251e-05
-3.8747581e-12
-3.2756856e-05
5.4541673e-05
-7.5798589e-12
-4.8175894e-05
6.6451343e-05
-3.9044449e-12
-6.5354099e-05
7.6126053e-05
-3.433889e-12
-8.3822148e-05
8.35452e-05
-3.5876446e-12
-0.00010315063
8.8772719e-05
-3.3400724e-12
-0.00012294163
9.1910011e-05
-3.0047862e-12
-0.00014282096
9.3063334e-05
-2.6787276e-12
-0.00016243135
9.232463e-05
-2.3401454e-12
-0.00018142688
8.9763717e-05
-1.9888198e-12
-0.00019946925
8.5429562e-05
-1.6224724e-12
-0.00021622604
7.9358237e-05
-1.2238269e-12
-0.0002313713
7.1585125e-05
-7.8292951e-13
-0.00024458832
6.215923e-05
-3.1949083e-13
-0.00025557459
5.1157781e-05
1.2692212e-13
-0.00026404867
3.8699668e-05
5.342566e-13
-0.00026975867
2.4956647e-05
9.2201965e-13
-0.00027249209
1.0161499e-05
1.3315001e-12
-0.00027208668
-5.3875724e-06
1.7730869e-12
-0.00026844172
-2.1326875e-05
2.2042792e-12
-0.00026152974
-3.7230898e-05
2.5118097e-12
-0.00025140738
-5.2622674e-05
2.6413799e-12
-0.00023822497
-6.6988261e-05
2.6652778e-12
-0.00022223364
-7.9797263e-05
2.7369778e-12
-0.00020378864
-9.0528635e-05
2.9282522e-12
-0.00018334762
-9.8701106e-05
3.1105759e-12
-0.00016146239
-0.00010390689
3.0658073e-12
-0.00013876325
-0.00010584661
2.7733232e-12
-0.00011593535
-0.00010436276
2.5264485e-12
-9.3687568e-05
-9.9468451e-05
2.6406996e-12
-7.2715444e-05
-9.1368436e-05
3.0464748e-12
-5.366073e-05
-8.0469636e-05
3.26953e-12
-3.7071067e-05
-6.7380116e-05
2.9690789e-12
-2.3363953e-05
-5.2897147e-05
3.0303268e-12
-1.2799329e-05
-3.7986332e-05
5.1184302e-12
-5.4648802e-06
-2.375074e-05
3.6881285e-12
-1.2772504e-06
-1.139412e-05
-7.5289282e-12
-2.236242e-06
1.2859728e-11
-2.9284818e-06
1.1132059e-05
-2.5189759e-11
-1.0673674e-05
3.2619573e-05
2.2821217e-11
-2.2336179e-05
5.2221758e-05
-3.5648603e-12
-3.713598e-05
6.9341483e-05
-7.9416952e-12
-5.4394114e-05
8.3709483e-05
-3.8051343e-12
-7.3517631e-05
9.5249575e-05
-3.3601245e-12
-9.3984303e-05
0.00010401188
-3.6431913e-12
-0.00011532796
0.00011011638
-3.4682577e-12
-0.00013712518
0.00011370723
-3.1843472e-12
-0.00015898353
0.00011492169
-2.895764e-12
-0.00018053178
0.00011387288
-2.5745228e-12
-0.00020141214
0.00011064409
-2.2266931e-12
-0.00022127502
0.00010529245
-1.8695418e-12
-0.00023977618
9.7859387e-05
-1.4988946e-12
-0.00025657637
8.8385318e-05
-1.0901156e-12
-0.00027134346
7.6926315e-05
-6.2645815e-13
-0.00028375658
6.3570909e-05
-1.2822904e-13
-0.00029351242
4.8455516e-05
3.5622659e-13
-0.00030033321
3.1777435e-05
7.9069657e-13
-0.00030397635
1.380463e-05
1.1832257e-12
-0.00030424557
-5.118367e-06
1.5797957e-12
-0.00030100297
-2.4569478e-05
2.0429693e-12
-0.00029418252
-4.4051349e-05
2.5008077e-12
-0.00028380324
-6.3001931e-05
2.8315477e-12
-0.00026998219
-8.0809303e-05
2.9481518e-12
-0.00025294548
-9.6833997e-05
2.9140957e-12
-0.000233036
-0.00011043815
2.9189502e-12
-0.00021071601
-0.00012102111
3.0810254e-12
-0.00018656267
-0.00012806021
3.2783955e-12
-0.00016125481
-0.00013115443
3.2558565e-12
-0.00013554996
-0.00013006761
2.9656998e-12
-0.00011025148
-0.00012476697
2.7215724e-12
-8.6167405e-05
-0.00011545255
2.8582665e-12
-6.4063742e-05
-0.00010257328
3.1916249e-12
-4.4616658e-05
-8.6827165e-05
3.1090323e-12
-2.8368523e-05
-6.9145283e-05
3.2216673e-12
-1.569316e-05
-5.0661724e-05
5.5857521e-12
-6.775229e-06
-3.2668683e-05
3.5675598e-12
-1.6070343e-06
-1.6562295e-05
-1.0580232e-11
-3.8432877e-06
1.544721e-11
-3.2816999e-06
1.4413788e-05
-2.7767579e-11
-1.1915871e-05
4.1253719e-05
2.6264093e-11
-2.4855513e-05
6.5161404e-05
-3.3640833e-12
-4.1199921e-05
8.5685898e-05
-8.3554177e-12
-6.0176313e-05
0.00010268588
-3.7889494e-12
-8.1122251e-05
0.00011619552
-3.3460531e-12
-0.0001034663
0.00012635593
-3.7212149e-12
-0.00012670888
0.00013335896
-3.59514e-12
-0.00015040465
0.000137403
-3.3563512e-12
-0.00017414714
0.00013866418
-3.1152631e-12
-0.00019755594
0.00013728169
-2.8293345e-12
-0.00022026668
0.00013335483
-2.492419e-12
-0.00024192388
0.00012694965
-2.1273094e-12
-0.00026217667
0.00011811218
-1.7558251e-12
-0.00028067716
0.00010688581
-1.374391e-12
-0.0002970813
9.3330445e-05
-9.5284069e-13
-0.00031105195
7.7541562e-05
-4.6626102e-13
-0.00032226414
5.9667706e-05
7.0434912e-14
-0.00033041219
3.9925499e-05
6.0143477e-13
-0.00033521896
1.8611402e-05
1.0604214e-12
-0.00033644712
-3.890216e-06
1.429819e-12
-0.00033391173
-2.7104886e-05
1.851365e-12
-0.00032749597
-5.0467122e-05
2.3119996e-12
-0.00031716688
-7.3331013e-05
2.7855345e-12
-0.00030299229
-9.4983871e-05
3.1381096e-12
-0.00028515681
-0.00011466947
3.2453308e-12
-0.00026397516
-0.00013161981
3.1571184e-12
-0.00023990062
-0.00014509569
3.0909866e-12
-0.00021352584
-0.000154435
3.2048039e-12
-0.00018557378
-0.00015910647
3.3850662e-12
-0.00015687656
-0.00015876479
3.3595619e-12
-0.00012834162
-0.00015330192
3.0903856e-12
-0.00010090607
-0.00014288814
2.9139249e-12
-7.5482491e-05
-0.00012799689
3.0129546e-12
-5.2901152e-05
-0.00010940849
2.9665589e-12
-3.3855108e-05
-8.8191306e-05
3.3130362e-12
-1.8854782e-05
-6.5662056e-05
6.211148e-12
-8.1982678e-06
-4.3325213e-05
3.5720532e-12
-1.9611668e-06
-2.2799386e-05
-1.3844059e-11
-5.8044673e-06
1.8128682e-11
-3.6023038e-06
1.8016121e-05
-3.0184972e-11
-1.3044872e-05
5.069626e-05
2.9297914e-11
-2.714929e-05
7.9265825e-05
-3.2556382e-12
-4.490717e-05
0.00010344379
-8.7951156e-12
-6.5461506e-05
0.00012324022
-3.8440643e-12
-8.8087233e-05
0.00013882125
-3.4068597e-12
-0.0001121688
0.00015043751
-3.858159e-12
-0.00013717742
0.00015836758
-3.7610676e-12
-0.00016264988
0.00016287546
-3.5482128e-12
-0.00018816993
0.00016418424
-3.345881e-12
-0.00021335264
0.0001624644
-3.1069573e-12
-0.00023783202
0.00015783422
-2.808126e-12
-0.0002612519
0.00015036954
-2.4520825e-12
-0.00028325982
0.00014012011
-2.0629683e-12
-0.00030350381
0.0001271298
-1.6683978e-12
-0.00032163165
0.00011145828
-1.2691499e-12
-0.00033729243
9.3202341e-05
-8.3165904e-13
-0.00035014037
7.251564e-05
-3.2024869e-13
-0.00035984078
4.9625909e-05
2.583463e-13
-0.00036607841
2.4849043e-05
8.2490408e-13
-0.00036856895
-1.3996734e-06
1.26566e-12
-0.00036707133
-2.8602512e-05
1.74333e-12
-0.00036140636
-5.6132109e-05
2.145905e-12
-0.00035147458
-8.3262812e-05
2.5863961e-12
-0.00033727782
-0.00010918062
3.0635034e-12
-0.00031894089
-0.00013300637
3.4275445e-12
-0.00029673172
-0.00015382896
3.524912e-12
-0.00027107725
-0.00017075018
3.3915558e-12
-0.00024257163
-0.00018294066
3.2621109e-12
-0.00021197328
-0.00018970484
3.3165314e-12
-0.0001801876
-0.00019055046
3.4459019e-12
-0.0001482333
-0.00018525618
3.4026139e-12
-0.00011719275
-0.00017392869
3.2018398e-12
-8.8148957e-05
-0.00015704071
3.0311097e-12
-6.2115396e-05
-0.00013544207
2.7492927e-12
-3.9966494e-05
-0.0001103402
3.2209841e-12
-2.2377607e-05
-8.3250934e-05
6.8438249e-12
-9.7826893e-06
-5.5920134e-05
3.663966e-12
-2.3546981e-06
-3.0227365e-05
-1.7370036e-11
-8.1591853e-06
2.1110822e-11
-3.8870512e-06
2.1903203e-05
-3.2388465e-11
-1.4048661e-05
6.0857838e-05
3.1908268e-11
-2.9192053e-05
9.4409222e-05
-3.238228e-12
-4.8215264e-05
0.00012246701
-9.2481486e-12
-7.0187841e-05
0.0001452128
-3.9504961e-12
-9.4330059e-05
0.00016296347
-3.5255979e-12
-0.00011998821
0.00017609566
-4.0538846e-12
-0.00014660907
0.00018498845
-3.9851888e-12
-0.00017371587
0.00018998226
-3.7869928e-12
-0.00020088685
0.00019135521
-3.6027733e-12
-0.00022773707
0.00018931463
-3.3962535e-12
-0.00025390379
0.00018400094
-3.1463657e-12
-0.00027903518
0.00017550093
-2.8347754e-12
-0.00030278231
0.00016386723
-2.4567417e-12
-0.00032479395
0.00014914146
-2.0368354e-12
-0.00034471402
0.00013137836
-1.6097916e-12
-0.00036218124
0.00011066956
-1.1838422e-12
-0.00037683112
8.7165515e-05
-7.2617901e-13
-0.00038830041
6.1095187e-05
-1.9063468e-13
-0.00039623426
3.27829e-05
4.4049652e-13
-0.00040029637
2.6624422e-06
1.1237269e-12
-0.00040018386
-2.871501e-05
1.6450728e-12
-0.00039564403
-6.0671934e-05
2.0768593e-12
-0.00038649734
-9.2409519e-05
2.4569867e-12
-0.00037266262
-0.00012301537
2.8769058e-12
-0.00035418496
-0.00015148403
3.3400484e-12
-0.00033126378
-0.00017675012
3.6949042e-12
-0.00030427781
-0.00019773613
3.7708031e-12
-0.00027380297
-0.00021341551
3.5958968e-12
-0.0002406183
-0.00022288954
3.4102942e-12
-0.0002056952
-0.00022547359
3.3939173e-12
-0.00017016638
-0.00022078498
3.4594114e-12
-0.00013527316
-0.00020882188
3.4328422e-12
-0.00010229332
-0.00019002056
3.2149634e-12
-7.2455938e-05
-0.00016527947
2.655819e-12
-4.6853301e-05
-0.00013594285
3.0802454e-12
-2.6361366e-05
-0.00010374287
7.4558101e-12
-1.158044e-05
-7.0701054e-05
3.7500902e-12
-2.8033138e-06
-3.9004468e-05
-2.1309378e-11
-1.0962525e-05
2.4554382e-11
-4.1321168e-06
2.6035354e-05
-3.4325856e-11
-1.4914098e-05
7.1639783e-05
3.4090972e-11
-3.0957131e-05
0.00011045226
-3.3030223e-12
-5.1080654e-05
0.00014259054
-9.7114678e-12
-7.4292272e-05
0.00016842442
-4.1026591e-12
-9.9766123e-05
0.00018843732
-3.6829342e-12
-0.00012681669
0.00020314623
-4.2838096e-12
-0.0001548713
0.00021304307
-4.2531833e-12
-0.00018344393
0.0002185549
-4.0785182e-12
-0.00021211149
0.00022002278
-3.9064935e-12
-0.00024049343
0.00021769658
-3.7087569e-12
-0.00026823492
0.00021174243
-3.485283e-12
-0.00029499351
0.00020225952
-3.2253184e-12
-0.00032042904
0.00018930276
-2.9002504e-12
-0.00034419639
0.00017290881
-2.4975967e-12
-0.00036594073
0.0001531227
-2.0408271e-12
-0.00038529503
0.00013002387
-1.5720881e-12
-0.00040188
0.00010375048
-1.111262e-12
-0.00041530643
7.4521612e-05
-6.2871009e-13
-0.00042518076
4.2657226e-05
-5.0133232e-14
-0.00043111396
8.5956358e-06
6.7013256e-13
-0.00043273621
-2.709275e-05
1.3218855e-12
-0.00042971414
-6.3693985e-05
1.9323946e-12
-0.00042177616
-0.0001003475
2.4093799e-12
-0.0004087417
-0.00013604984
2.7895568e-12
-0.00039055538
-0.00016967038
3.1847015e-12
-0.0003673235
-0.000199982
3.6141375e-12
-0.00033934979
-0.00022570982
3.9301995e-12
-0.00030716534
-0.00024559993
3.9612797e-12
-0.00027154681
-0.00025850808
3.7377921e-12
-0.000233516
-0.00026350443
3.4938431e-12
-0.00019431498
-0.00025998602
3.4128539e-12
-0.00015535291
-0.00024778395
3.45917e-12
-0.00011812526
-0.0002272482
3.3399228e-12
-8.4111826e-05
-0.00019929291
2.6477625e-12
-5.4665484e-05
-0.0001653892
3.013114e-12
-3.0907346e-05
-0.00012750102
8.1500264e-12
-1.3644699e-05
-8.7963699e-05
3.8065982e-12
-3.3229911e-06
-4.9326144e-05
-2.5853073e-11
-1.4285544e-05
2.8564371e-11
-4.3334537e-06
3.0368845e-05
-3.5962221e-11
-1.5627795e-05
8.2934087e-05
3.5840491e-11
-3.2417912e-05
0.00012724238
-3.4252292e-12
-5.3460308e-05
0.00016363295
-1.0172948e-11
-7.7712459e-05
0.00019267658
-4.3054594e-12
-0.000104311
0.00021503587
-3.8795582e-12
-0.00013254491
0.00023138015
-4.53344e-12
-0.00016182693
0.00024232509
-4.5393019e-12
-0.00019166587
0.00024839385
-4.4014398e-12
-0.00022164124
0.00024999815
-4.2580107e-12
-0.00025138096
0.0002474363
-4.0685743e-12
-0.00028054264
0.00024090412
-3.844759e-12
-0.0003087982
0.00023051509
-3.6042078e-12
-0.00033582177
0.00021632633
-3.3315554e-12
-0.00036128017
0.00019836721
-2.9907348e-12
-0.00038482595
0.00017666848
-2.5610055e-12
-0.00040609255
0.00015129048
-2.0625523e-12
-0.00042469177
0.00012234972
-1.5447394e-12
-0.00044021383
9.0043681e-05
-1.0383464e-12
-0.00045223064
5.4674024e-05
-5.1137451e-13
-0.00046030303
1.6668014e-05
1.079396e-13
-0.00046399357
-2.3402215e-05
8.0127103e-13
-0.00046288448
-6.480307e-05
1.5578876e-12
-0.00045660339
-0.00010662857
2.2420884e-12
-0.00044485607
-0.00014779715
2.757509e-12
-0.00042746611
-0.00018706034
3.1408402e-12
-0.00040442021
-0.00022302793
3.5052206e-12
-0.0003759156
-0.00025421444
3.8762233e-12
-0.00034240456
-0.00027911095
4.1157619e-12
-0.0003046286
-0.00029628403
4.0686018e-12
-0.00026363336
-0.00030449967
3.7782367e-12
-0.00022075512
-0.00030286428
3.4897817e-12
-0.00017757163
-0.00029096745
3.4076184e-12
-0.00013581501
-0.00026900482
3.3040125e-12
-9.7251928e-05
-0.00023785598
2.5610356e-12
-6.3544838e-05
-0.0001990963
2.9846177e-12
-3.6114694e-05
-0.00015493118
9.0214742e-12
-1.6028561e-05
-0.00010804984
3.8879669e-12
-3.9298365e-06
-6.1424834e-05
-3.1145444e-11
-1.8215412e-05
3.3236681e-11
-4.4872238e-06
3.4856106e-05
-3.7275179e-11
-1.6177324e-05
9.462415e-05
3.7134264e-11
-3.3549901e-05
0.00014461496
-3.5794624e-12
-5.5314557e-05
0.00018539761
-1.0604296e-11
-8.0390369e-05
0.00021775239
-4.5518849e-12
-0.0001078848
0.00024253031
-4.122923e-12
-0.00013706725
0.0002605626
-4.809118e-12
-0.00016734027
0.00027259812
-4.8343085e-12
-0.00019821119
0.00027926477
-4.7277903e-12
-0.00022926561
0.00028105257
-4.626635e-12
-0.00026014367
0.00027831437
-4.4685773e-12
-0.00029051966
0.00027128012
-4.2494746e-12
-0.00032008482
0.00026008026
-3.999173e-12
-0.00034853316
0.00024477469
-3.7358963e-12
-0.00037554992
0.00022538397
-3.4440847e-12
-0.00040080218
0.00020192073
-3.0829724e-12
-0.00042393159
0.0001744199
-2.6230678e-12
-0.00044454929
0.00014296742
-2.0792707e-12
-0.00046223321
0.0001077276
-1.5033376e-12
-0.00047652861
6.8969439e-05
-9.3425962e-13
-0.00048695287
2.7092267e-05
-3.5556227e-13
-0.00049300563
-1.7349458e-05
2.8279759e-13
-0.00049418563
-6.3623079e-05
1.0345627e-12
-0.00049001582
-0.00011079838
1.8472202e-12
-0.00048007773
-0.00015773523
2.5812517e-12
-0.00046405564
-0.00020308242
3.1274919e-12
-0.00044178973
-0.00024529384
3.507374e-12
-0.00041333574
-0.00028266845
3.824421e-12
-0.00037902595
-0.00031342075
4.1022033e-12
-0.00033952332
-0.00033578665
4.2172214e-12
-0.0002958575
-0.00034816548
4.0497499e-12
-0.00024942978
-0.000349292
3.6983511e-12
-0.00020197497
-0.00033842229
3.4422323e-12
-0.00015547284
-0.00031550696
3.2006888e-12
-0.00011201159
-0.00028131722
2.3234993e-12
-7.3617495e-05
-0.00023749039
2.881044e-12
-4.2077003e-05
-0.00018647168
1.0061833e-11
-1.8784005e-05
-0.00013134284
4.034073e-12
-4.6400119e-06
-7.5568789e-05
-3.7288685e-11
-2.285546e-05
3.8690679e-11
-4.5902844e-06
3.9446428e-05
-3.823924e-11
-1.655269e-05
0.00010658652
3.7939746e-11
-3.433335e-05
0.00016239562
-3.7582934e-12
-5.6610889e-05
0.00020767516
-1.0978685e-11
-8.2277188e-05
0.0002434187
-4.8188854e-12
-0.00011041819
0.00027067132
-4.4054387e-12
-0.00014028892
0.00029043334
-5.1197907e-12
-0.00017128551
0.00030359472
-5.1510219e-12
-0.00020291689
0.00031089615
-5.0539869e-12
-0.00023477769
0.00031291337
-4.9816951e-12
-0.00026652358
0.00031006027
-4.8666215e-12
-0.00029784945
0.00030260599
-4.6798456e-12
-0.0003284706
0.00029070141
-4.430459e-12
-0.00035810671
0.00027441081
-4.1467818e-12
-0.00038646824
0.00025374551
-3.8503872e-12
-0.00041324485
0.00022869734
-3.5291083e-12
-0.00043809567
0.00019927072
-3.1397675e-12
-0.00046064152
0.00016551327
-2.644741e-12
-0.00048045931
0.0001275454
-2.0506258e-12
-0.00049707945
8.5589586e-05
-1.4077081e-12
-0.00050998718
4.0000008e-05
-7.6759002e-13
-0.00051862937
-8.7072685e-06
-1.3072315e-13
-0.00052242833
-5.9824129e-05
5.5800092e-13
-0.00052080462
-0.0001124221
1.353826e-12
-0.00051321089
-0.00016532896
2.2058586e-12
-0.00049917821
-0.00021711509
2.9698327e-12
-0.00047837548
-0.00026609657
3.5254236e-12
-0.00045068058
-0.00031036336
3.8788199e-12
-0.0004162589
-0.00034784245
4.1147391e-12
-0.00037564086
-0.00037640471
4.2465049e-12
-0.00032978531
-0.00039402102
4.1772287e-12
-0.00028011189
-0.00039896542
3.8827353e-12
-0.00022848372
-0.00039005047
3.5552392e-12
-0.00017712616
-0.00036686453
3.1348522e-12
-0.00012847766
-0.00032996574
1.991448e-12
-8.4985586e-05
-0.00028098246
2.6550557e-12
-4.887864e-05
-0.00022257863
1.1221972e-11
-2.1960825e-05
-0.00015826066
4.2268335e-12
-5.4696787e-06
-9.2059891e-05
-4.4395422e-11
-2.8325183e-05
4.5062614e-11
-4.6407207e-06
4.4087186e-05
-3.8825209e-11
-1.6747989e-05
0.00011869375
3.8240235e-11
-3.4756314e-05
0.00018040395
-3.9688876e-12
-5.7328466e-05
0.00023024733
-1.1289973e-11
-8.3339268e-05
0.00026942951
-5.0878578e-12
-0.00011185972
0.00029919178
-4.705694e-12
-0.00014213476
0.00032070838
-5.4564791e-12
-0.00017355703
0.000335017
-5.5004908e-12
-0.00020563944
0.00034297858
-5.4004343e-12
-0.0002379881
0.00034526204
-5.3270563e-12
-0.00027027701
0.00034234918
-5.2313599e-12
-0.0003022252
0.00033455418
-5.0827067e-12
-0.00033357653
0.00032205275
-4.8631357e-12
-0.00036408206
0.00030491635
-4.5750229e-12
-0.00039348459
0.00028314804
-4.2460022e-12
-0.000421505
0.00025671776
-3.9023401e-12
-0.00044783031
0.00022559604
-3.5371112e-12
-0.00047210322
0.00018978617
-3.1074606e-12
-0.00049391353
0.00014935571
-2.569029e-12
-0.00051279208
0.00010446813
-1.9180374e-12
-0.00052820807
5.5416013e-05
-1.2024103e-12
-0.00053957139
2.6560554e-06
-4.8059308e-13
-0.00054624182
-5.3153691e-05
2.1637839e-13
-0.00054754741
-0.00011111653
9.6018665e-13
-0.000542815
-0.00017006137
1.7946374e-12
-0.0005314158
-0.00022851429
2.6651049e-12
-0.00051282803
-0.00028468433
3.4251771e-12
-0.00048671735
-0.00033647403
3.9504978e-12
-0.00045303245
-0.00038152736
4.2314891e-12
-0.00041210823
-0.00041732894
4.3236593e-12
-0.00036476274
-0.00044136652
4.2337354e-12
-0.00031236681
-0.00045136135
3.961682e-12
-0.0002568608
-0.00044555648
3.6328248e-12
-0.0002006938
-0.00042303153
3.0849783e-12
-0.00014667113
-0.00038398841
1.6133147e-12
-9.7717409e-05
-0.00032993619
2.3328486e-12
-5.6590335e-05
-0.00026370571
1.2496895e-11
-2.5605328e-05
-0.00018924567
4.4331558e-12
-6.4348947e-06