/*--------------------------------*- C++ -*----------------------------------*\
  =========                 |
  \\      /  F ield         | OpenFOAM: The Open Source CFD Toolbox
   \\    /   O peration     | Website:  https://openfoam.org
    \\  /    A nd           | Version:  7
     \\/     M anipulation  |
\*---------------------------------------------------------------------------*/
FoamFile
{
    version     2.0;
    format      ascii;
    class       surfaceScalarField;
    location    "38";
    object      phi_0;
}
// * * * * * * * * * * * * * * * * * * * * * * * * * * * * * * * * * * * * * //

dimensions      [0 3 -1 0 0 0 0];

internalField   nonuniform List<scalar> 
45600
(
2.7509978e-07
-2.8230928e-07
-8.0967856e-11
4.0330034e-07
-1.2817481e-07
-2.5497157e-11
1.3254357e-07
2.7076401e-07
-7.0242089e-12
-5.6231699e-07
6.948622e-07
-1.7415615e-12
-1.6393153e-06
1.0769949e-06
3.4035668e-12
-3.0276244e-06
1.3883028e-06
6.9075688e-12
-4.6524663e-06
1.6248334e-06
9.2127877e-12
-6.4450985e-06
1.7926216e-06
1.0830512e-11
-8.3454256e-06
1.9003144e-06
1.1967181e-11
-1.0301445e-05
1.9560067e-06
1.2723717e-11
-1.2267405e-05
1.9659467e-06
1.3160986e-11
-1.4201584e-05
1.9341668e-06
1.3304113e-11
-1.6064241e-05
1.8626448e-06
1.3157887e-11
-1.7816029e-05
1.7517757e-06
1.2720276e-11
-1.9417056e-05
1.6010149e-06
1.1985572e-11
-2.0826661e-05
1.4095935e-06
1.0947978e-11
-2.2003911e-05
1.1772404e-06
9.6062868e-12
-2.2908772e-05
9.0485532e-07
7.9609761e-12
-2.3503869e-05
5.9509395e-07
6.0034578e-12
-2.3756701e-05
2.5282901e-07
3.7406799e-12
-2.3642141e-05
-1.1456346e-07
1.2199067e-12
-2.3145012e-05
-4.9713017e-07
-1.4638631e-12
-2.226258e-05
-8.8242758e-07
-4.1921276e-12
-2.1006623e-05
-1.2559461e-06
-6.85419e-12
-1.9404865e-05
-1.601742e-06
-9.3666886e-12
-1.7501555e-05
-1.9032976e-06
-1.166213e-11
-1.535697e-05
-2.1445783e-06
-1.3614327e-11
-1.3045759e-05
-2.3112049e-06
-1.5016604e-11
-1.0654105e-05
-2.3916391e-06
-1.5657654e-11
-8.2758165e-06
-2.3782613e-06
-1.5459038e-11
-6.0075605e-06
-2.268227e-06
-1.4535626e-11
-3.9435223e-06
-2.0640255e-06
-1.3065273e-11
-2.1697824e-06
-1.7737484e-06
-1.1054681e-11
-7.5854726e-07
-1.4112456e-06
-8.2897089e-12
2.3820181e-07
-9.967367e-07
-4.7893811e-12
7.9654981e-07
-5.5831368e-07
-1.4052084e-12
9.292925e-07
-1.3272598e-07
1.9253543e-12
7.0559678e-07
2.2366347e-07
5.3129788e-12
2.9046804e-07
4.1506121e-07
8.7582506e-12
2.9043417e-07
2.0947677e-12
1.3285533e-07
-4.1514152e-07
-2.2893041e-11
-3.0171465e-07
3.0641016e-07
-1.4508462e-11
-1.6154232e-06
1.5844861e-06
-1.2637429e-11
-3.8747228e-06
2.9541761e-06
-1.3361659e-11
-7.0073528e-06
4.2096392e-06
-1.4503642e-11
-1.087976e-05
5.2607251e-06
-1.6023366e-11
-1.5335171e-05
6.0802626e-06
-1.7428705e-11
-2.0216008e-05
6.6734776e-06
-1.8434111e-11
-2.5374065e-05
7.0583921e-06
-1.9000888e-11
-3.0673278e-05
7.2552385e-06
-1.9139345e-11
-3.5988545e-05
7.2812323e-06
-1.8859065e-11
-4.1202832e-05
7.1484726e-06
-1.817529e-11
-4.6203976e-05
6.8638057e-06
-1.7106181e-11
-5.0882103e-05
6.4299208e-06
-1.566545e-11
-5.5128235e-05
5.8471624e-06
-1.3864915e-11
-5.8834321e-05
5.1156932e-06
-1.1718475e-11
-6.1894805e-05
4.2377333e-06
-9.2361303e-12
-6.4209611e-05
3.2196667e-06
-6.4138697e-12
-6.5688361e-05
2.0738468e-06
-3.2755433e-12
-6.625547e-05
8.1994114e-07
1.0812121e-13
-6.5855983e-05
-5.1404882e-07
3.6208538e-12
-6.4460807e-05
-1.8923108e-06
7.1820709e-12
-6.2072476e-05
-3.2707723e-06
1.0647312e-11
-5.872909e-05
-4.5993532e-06
1.3948162e-11
-5.4507079e-05
-5.8237728e-06
1.7015348e-11
-4.9521907e-05
-6.8884821e-06
1.9698156e-11
-4.3926394e-05
-7.7400993e-06
2.1765268e-11
-3.7906444e-05
-8.3311724e-06
2.3012399e-11
-3.167414e-05
-8.6239789e-06
2.3405192e-11
-2.5458404e-05
-8.5940401e-06
2.3093463e-11
-1.9493619e-05
-8.2330385e-06
2.2220562e-11
-1.400672e-05
-7.5509211e-06
2.0704442e-11
-9.2032783e-06
-6.5771792e-06
1.8300131e-11
-5.2528901e-06
-5.3616505e-06
1.5002867e-11
-2.2739847e-06
-3.9756929e-06
1.1340284e-11
-3.1729538e-07
-2.5150461e-06
7.9351307e-12
6.5703623e-07
-1.1070345e-06
4.6634702e-12
8.0367439e-07
7.7105849e-08
3.5244827e-12
4.1787714e-07
8.0093664e-07
4.4891319e-12
7.08286e-07
-3.0730626e-12
-2.7359779e-07
-1.4153067e-07
-1.273085e-11
-1.627501e-06
1.660321e-06
-7.5158668e-12
-4.2894212e-06
4.2464154e-06
-8.8125721e-12
-8.2746912e-06
6.9394544e-06
-7.3649969e-12
-1.3474428e-05
9.4093824e-06
-5.3677944e-12
-1.9708729e-05
1.149503e-05
-4.2815847e-12
-2.6765757e-05
1.3137294e-05
-3.5787103e-12
-3.4426622e-05
1.4334345e-05
-2.9849298e-12
-4.2478635e-05
1.5110409e-05
-2.4822956e-12
-5.0720453e-05
1.549706e-05
-2.0459145e-12
-5.8962297e-05
1.5523079e-05
-1.6398644e-12
-6.7023692e-05
1.5209869e-05
-1.2393792e-12
-7.4730534e-05
1.4570648e-05
-8.3230887e-13
-8.1912721e-05
1.3612109e-05
-4.1206832e-13
-8.8403149e-05
1.2337592e-05
2.0603843e-14
-9.4038477e-05
1.0751022e-05
4.502969e-13
-9.8661796e-05
8.8610532e-06
8.5025529e-13
-0.00010212709
6.6849645e-06
1.2087814e-12
-0.00010430523
4.2519752e-06
1.535339e-12
-0.000105091
1.605716e-06
1.8501075e-12
-0.00010441064
-1.194412e-06
2.1583241e-12
-0.00010222946
-4.0734942e-06
2.413911e-12
-9.8558517e-05
-6.9417094e-06
2.5554361e-12
-9.3460001e-05
-9.697873e-06
2.5717102e-12
-8.7050394e-05
-1.2233389e-05
2.5325905e-12
-7.9501003e-05
-1.4437882e-05
2.5392224e-12
-7.1035287e-05
-1.6205814e-05
2.618794e-12
-6.1922725e-05
-1.7443724e-05
2.6688776e-12
-5.2469141e-05
-1.8077556e-05
2.5531608e-12
-4.3003674e-05
-1.8059517e-05
2.2939336e-12
-3.3862828e-05
-1.7373907e-05
2.1338218e-12
-2.5372242e-05
-1.604152e-05
2.3133179e-12
-1.7826892e-05
-1.4122513e-05
2.7514013e-12
-1.1470397e-05
-1.1718117e-05
3.0483527e-12
-6.4738467e-06
-8.9722397e-06
2.9534511e-12
-2.914041e-06
-6.0748929e-06
2.6800426e-12
-7.5124775e-07
-3.2698824e-06
2.5732031e-12
1.9432993e-07
-8.6849234e-07
3.5780624e-12
2.6551376e-07
7.2979518e-07
5.7304688e-12
9.7378883e-07
8.2943525e-13
-7.4585425e-07
6.0433714e-07
-1.2948714e-11
-3.1796496e-06
4.0941181e-06
-1.5246378e-12
-7.3461224e-06
8.412895e-06
-6.9719511e-12
-1.3163076e-05
1.2756415e-05
-6.3094092e-12
-2.0455839e-05
1.6702149e-05
-3.6662132e-12
-2.8992655e-05
2.003185e-05
-2.3178547e-12
-3.8513896e-05
2.2658536e-05
-1.4362385e-12
-4.8752695e-05
2.4573144e-05
-6.4511775e-13
-5.9447e-05
2.5804713e-05
1.4439379e-14
-7.034485e-05
2.6394911e-05
5.5053129e-13
-8.1205143e-05
2.6383372e-05
9.9414184e-13
-9.1795995e-05
2.5800721e-05
1.3638031e-12
-0.00010189242
2.4667076e-05
1.6685498e-12
-0.00011127464
2.2994324e-05
1.91575e-12
-0.00011972779
2.079074e-05
2.1159255e-12
-0.00012704362
1.8066847e-05
2.2737905e-12
-0.00013302417
1.4841602e-05
2.3711126e-12
-0.00013748742
1.114822e-05
2.3740248e-12
-0.00014027452
7.0390704e-06
2.2599216e-12
-0.00014125806
2.5892502e-06
2.0517356e-12
-0.00014035078
-2.1016957e-06
1.8128559e-12
-0.00013751439
-6.9098843e-06
1.5459188e-12
-0.00013276703
-1.1689069e-05
1.2368416e-12
-0.00012618931
-1.6275586e-05
8.3060151e-13
-0.00011792789
-2.0494812e-05
3.11196e-13
-0.00010819591
-2.4169862e-05
-2.2640641e-13
-9.726988e-05
-2.7131856e-05
-6.1141635e-13
-8.548242e-05
-2.9231182e-05
-7.4565424e-13
-7.3210952e-05
-3.0349008e-05
-7.2222758e-13
-6.0862262e-05
-3.0408191e-05
-7.3788867e-13
-4.8853448e-05
-2.9382725e-05
-8.2720669e-13
-3.7589909e-05
-2.7305084e-05
-7.1879194e-13
-2.7441329e-05
-2.427111e-05
-8.4227848e-14
-1.8716701e-05
-2.0442728e-05
1.0031032e-12
-1.1639449e-05
-1.6049449e-05
2.0060695e-12
-6.3235566e-06
-1.1390764e-05
2.5207868e-12
-2.7515377e-06
-6.8419283e-06
2.8737039e-12
-7.5717191e-07
-2.8628982e-06
3.6064563e-12
-9.5278758e-09
-1.7845371e-08
4.5170818e-12
9.642668e-07
3.8377177e-12
-1.2279722e-06
1.8323243e-06
-1.4448477e-11
-4.7881209e-06
7.6542635e-06
4.4852249e-12
-1.0521558e-05
1.4146338e-05
-6.0866821e-12
-1.8214351e-05
2.0449215e-05
-7.1888237e-12
-2.7603955e-05
2.6091759e-05
-4.7933029e-12
-3.8396312e-05
3.0824213e-05
-4.0474531e-12
-5.0283068e-05
3.4545296e-05
-3.7036517e-12
-6.2954794e-05
3.7244874e-05
-3.2456251e-12
-7.6109047e-05
3.8958969e-05
-2.793775e-12
-8.9453782e-05
3.9739647e-05
-2.3703559e-12
-0.00010270748
3.9637071e-05
-1.9516125e-12
-0.00011559754
3.869078e-05
-1.5304322e-12
-0.00012785835
3.692789e-05
-1.1104319e-12
-0.0001392302
3.4366179e-05
-6.980769e-13
-0.00014945975
3.1020288e-05
-2.9190413e-13
-0.00015830247
2.6909572e-05
1.237161e-13
-0.00016552724
2.2066364e-05
5.5966992e-13
-0.00017092274
1.6543728e-05
9.9821624e-13
-0.00017430559
1.0421917e-05
1.3931386e-12
-0.00017552935
3.8130105e-06
1.7073331e-12
-0.00017449412
-3.1369265e-06
1.9509486e-12
-0.00017115588
-1.0248132e-05
2.165125e-12
-0.0001655348
-1.7310153e-05
2.3941485e-12
-0.0001577219
-2.4088483e-05
2.6111721e-12
-0.00014788319
-3.0333515e-05
2.7181309e-12
-0.00013626059
-3.5792463e-05
2.6425485e-12
-0.00012316896
-4.0223501e-05
2.4524809e-12
-0.00010898872
-4.3411434e-05
2.3438328e-12
-9.4153811e-05
-4.5183926e-05
2.4547442e-12
-7.9134858e-05
-4.5427129e-05
2.6780327e-12
-6.4418057e-05
-4.4099507e-05
2.7316476e-12
-5.0480358e-05
-4.1242786e-05
2.5098242e-12
-3.7762141e-05
-3.6989358e-05
2.3139722e-12
-2.6638837e-05
-3.1566063e-05
2.5390411e-12
-1.7393182e-05
-2.5295099e-05
3.1066942e-12
-1.0189909e-05
-1.8594004e-05
3.6039124e-12
-5.0547244e-06
-1.1977099e-05
4.0364741e-12
-1.8598378e-06
-6.0578083e-06
3.4158645e-12
-3.2224047e-07
-1.5554583e-06
3.860063e-13
6.4202902e-07
5.9597695e-12
-1.6931721e-06
3.5255131e-06
-1.6944839e-11
-6.3714179e-06
1.2332501e-05
9.9098173e-12
-1.3671464e-05
2.144639e-05
-5.1098773e-12
-2.3234072e-05
3.001183e-05
-7.2893496e-12
-3.4695256e-05
3.7552947e-05
-4.5723058e-12
-4.7689833e-05
4.3818795e-05
-3.9971404e-12
-6.1857533e-05
4.8713001e-05
-3.8620863e-12
-7.6848074e-05
5.223542e-05
-3.4993163e-12
-9.2323876e-05
5.4434774e-05
-3.1069217e-12
-0.00010796028
5.5376051e-05
-2.7319525e-12
-0.00012344397
5.5120768e-05
-2.3456611e-12
-0.0001384707
5.3717508e-05
-1.9367935e-12
-0.00015274323
5.1200423e-05
-1.5052009e-12
-0.00016597054
4.7593493e-05
-1.0623826e-12
-0.00017786874
4.2918489e-05
-6.2576806e-13
-0.00018816405
3.7204883e-05
-1.9900881e-13
-0.00019659789
3.0500202e-05
2.3695137e-13
-0.00020293384
2.2879672e-05
7.0211182e-13
-0.00020696614
1.445422e-05
1.1831546e-12
-0.00020852929
5.3761651e-06
1.6266743e-12
-0.00020750811
-4.1581039e-06
1.9747771e-12
-0.00020384767
-1.3908576e-05
2.2228872e-12
-0.00019756247
-2.359537e-05
2.4280063e-12
-0.00018874397
-3.2906989e-05
2.6629722e-12
-0.00017756589
-4.1511592e-05
2.9204487e-12
-0.00016428625
-4.9072089e-05
3.0830658e-12
-0.0001492455
-5.5264247e-05
3.0314671e-12
-0.0001328599
-5.9797051e-05
2.8126979e-12
-0.00011560968
-6.2434167e-05
2.6641583e-12
-9.802177e-05
-6.3015048e-05
2.7898263e-12
-8.064723e-05
-6.1474031e-05
3.0922437e-12
-6.403417e-05
-5.785582e-05
3.2242607e-12
-4.8697435e-05
-5.2326088e-05
3.021809e-12
-3.5086902e-05
-4.5176624e-05
2.7672787e-12
-2.3556687e-05
-3.6825345e-05
2.8221111e-12
-1.4337874e-05
-2.7812814e-05
3.3918729e-12
-7.517476e-06
-1.8797474e-05
4.6146001e-12
-3.0267183e-06
-1.0548568e-05
3.6625066e-12
-6.4249679e-07
-3.9396915e-06
-2.0517572e-12
-4.7428075e-10
8.3621612e-12
-2.1329397e-06
5.6584722e-06
-1.9717075e-11
-7.8910822e-06
1.8090629e-05
1.4704229e-11
-1.6717414e-05
3.0272727e-05
-4.3535307e-12
-2.8105751e-05
4.1400176e-05
-7.3284495e-12
-4.15851e-05
5.10323e-05
-4.1239686e-12
-5.6714147e-05
5.8947845e-05
-3.5982005e-12
-7.307829e-05
6.5077148e-05
-3.597576e-12
-9.0287099e-05
6.9444233e-05
-3.2769667e-12
-0.00010797133
7.211901e-05
-2.9027766e-12
-0.00012577927
7.3183997e-05
-2.5508529e-12
-0.00014337275
7.2714241e-05
-2.1943376e-12
-0.00016042342
7.0768183e-05
-1.8217413e-12
-0.00017661019
6.7387193e-05
-1.4239233e-12
-0.00019161814
6.2601442e-05
-9.9675857e-13
-0.00020513951
5.6439864e-05
-5.5611129e-13
-0.00021687683
4.894221e-05
-1.3084351e-13
-0.00022654814
4.0171507e-05
2.6747052e-13
-0.00023389406
3.022559e-05
6.6001996e-13
-0.0002386865
1.9246652e-05
1.0779727e-12
-0.00024073842
7.428083e-06
1.51861e-12
-0.00023991436
-4.9821573e-06
1.9238096e-12
-0.00023614101
-1.768192e-05
2.2228867e-12
-0.00022941746
-3.0318925e-05
2.3825198e-12
-0.00021982415
-4.2500309e-05
2.4724649e-12
-0.00020752992
-5.3805835e-05
2.6066543e-12
-0.0001927961
-6.3805911e-05
2.8133664e-12
-0.00017597669
-7.2083638e-05
2.9659035e-12
-0.00015751363
-7.8260109e-05
2.8952212e-12
-0.00013792612
-8.2021684e-05
2.617891e-12
-0.00011779373
-8.3147462e-05
2.4063357e-12
-9.7732964e-05
-8.1534813e-05
2.5284007e-12
-7.8368131e-05
-7.7220642e-05
2.9042589e-12
-6.0297856e-05
-7.0396337e-05
3.147074e-12
-4.4059511e-05
-6.1414963e-05
3.0130789e-12
-3.0094429e-05
-5.0790451e-05
2.7020459e-12
-1.8717273e-05
-3.9189993e-05
3.0255533e-12
-1.0093051e-05
-2.742169e-05
4.8590951e-12
-4.2253047e-06
-1.6416305e-05
3.7978345e-12
-9.5848286e-07
-7.2065097e-06
-4.6782314e-12
-9.589723e-07
1.0348858e-11
-2.5450556e-06
8.2035508e-06
-2.2492648e-11
-9.3288501e-06
2.4874405e-05
1.8978074e-11
-1.9615369e-05
4.0559251e-05
-3.8747581e-12
-3.2756856e-05
5.4541672e-05
-7.5798589e-12
-4.8175894e-05
6.6451343e-05
-3.9044449e-12
-6.5354099e-05
7.6126054e-05
-3.433889e-12
-8.3822148e-05
8.3545201e-05
-3.5876446e-12
-0.00010315063
8.8772719e-05
-3.3400724e-12
-0.00012294163
9.1910011e-05
-3.0047862e-12
-0.00014282096
9.3063334e-05
-2.6787276e-12
-0.00016243135
9.2324631e-05
-2.3401454e-12
-0.00018142688
8.9763717e-05
-1.9888198e-12
-0.00019946925
8.5429563e-05
-1.6224724e-12
-0.00021622604
7.9358237e-05
-1.2238269e-12
-0.0002313713
7.1585124e-05
-7.8292951e-13
-0.00024458832
6.2159229e-05
-3.1949083e-13
-0.00025557459
5.1157781e-05
1.2692212e-13
-0.00026404867
3.869967e-05
5.342566e-13
-0.00026975867
2.4956649e-05
9.2201965e-13
-0.00027249209
1.0161499e-05
1.3315001e-12
-0.00027208668
-5.3875743e-06
1.7730869e-12
-0.00026844172
-2.1326877e-05
2.2042792e-12
-0.00026152974
-3.7230898e-05
2.5118097e-12
-0.00025140738
-5.262267e-05
2.6413799e-12
-0.00023822497
-6.6988255e-05
2.6652778e-12
-0.00022223364
-7.9797262e-05
2.7369778e-12
-0.00020378864
-9.0528641e-05
2.9282522e-12
-0.00018334762
-9.8701114e-05
3.1105759e-12
-0.0001614624
-0.00010390689
3.0658073e-12
-0.00013876326
-0.0001058466
2.7733232e-12
-0.00011593535
-0.00010436275
2.5264485e-12
-9.3687557e-05
-9.9468454e-05
2.6406996e-12
-7.2715439e-05
-9.1368447e-05
3.0464749e-12
-5.3660737e-05
-8.0469642e-05
3.26953e-12
-3.7071075e-05
-6.738011e-05
2.9690789e-12
-2.336395e-05
-5.289714e-05
3.0303268e-12
-1.2799322e-05
-3.7986332e-05
5.1184302e-12
-5.4648791e-06
-2.3750744e-05
3.6881285e-12
-1.2772525e-06
-1.139412e-05
-7.5289282e-12
-2.2362405e-06
1.2859728e-11
-2.9284821e-06
1.1132059e-05
-2.5189759e-11
-1.0673674e-05
3.2619573e-05
2.2821217e-11
-2.2336178e-05
5.2221758e-05
-3.5648603e-12
-3.7135979e-05
6.9341482e-05
-7.9416952e-12
-5.4394114e-05
8.3709483e-05
-3.8051343e-12
-7.3517631e-05
9.5249575e-05
-3.3601245e-12
-9.3984303e-05
0.00010401188
-3.6431913e-12
-0.00011532796
0.00011011638
-3.4682577e-12
-0.00013712518
0.00011370723
-3.1843472e-12
-0.00015898353
0.00011492169
-2.895764e-12
-0.00018053178
0.00011387288
-2.5745228e-12
-0.00020141214
0.00011064409
-2.2266931e-12
-0.00022127503
0.00010529245
-1.8695418e-12
-0.00023977618
9.7859388e-05
-1.4988946e-12
-0.00025657637
8.8385318e-05
-1.0901156e-12
-0.00027134346
7.6926314e-05
-6.2645815e-13
-0.00028375658
6.3570908e-05
-1.2822904e-13
-0.00029351243
4.8455516e-05
3.5622659e-13
-0.00030033321
3.1777437e-05
7.9069657e-13
-0.00030397635
1.3804633e-05
1.1832257e-12
-0.00030424557
-5.1183652e-06
1.5797957e-12
-0.00030100297
-2.4569479e-05
2.0429693e-12
-0.00029418251
-4.4051352e-05
2.5008077e-12
-0.00028380324
-6.3001932e-05
2.8315477e-12
-0.0002699822
-8.0809299e-05
2.9481518e-12
-0.00025294548
-9.683399e-05
2.9140957e-12
-0.000233036
-0.00011043815
2.9189502e-12
-0.00021071601
-0.00012102111
3.0810254e-12
-0.00018656267
-0.00012806021
3.2783955e-12
-0.00016125482
-0.00013115444
3.2558565e-12
-0.00013554997
-0.0001300676
2.9656998e-12
-0.00011025148
-0.00012476696
2.7215724e-12
-8.6167395e-05
-0.00011545255
2.8582665e-12
-6.4063738e-05
-0.00010257329
3.1916249e-12
-4.4616663e-05
-8.6827169e-05
3.1090323e-12
-2.8368526e-05
-6.9145279e-05
3.2216673e-12
-1.5693156e-05
-5.0661719e-05
5.5857521e-12
-6.7752251e-06
-3.2668683e-05
3.5675598e-12
-1.6070337e-06
-1.6562296e-05
-1.0580232e-11
-3.8432878e-06
1.544721e-11
-3.2817e-06
1.4413788e-05
-2.7767579e-11
-1.1915871e-05
4.1253719e-05
2.6264093e-11
-2.4855513e-05
6.5161404e-05
-3.3640833e-12
-4.1199921e-05
8.5685898e-05
-8.3554177e-12
-6.0176312e-05
0.00010268588
-3.7889494e-12
-8.1122251e-05
0.00011619552
-3.3460531e-12
-0.0001034663
0.00012635593
-3.7212149e-12
-0.00012670888
0.00013335896
-3.59514e-12
-0.00015040465
0.000137403
-3.3563512e-12
-0.00017414714
0.00013866418
-3.1152631e-12
-0.00019755594
0.00013728169
-2.8293345e-12
-0.00022026668
0.00013335483
-2.492419e-12
-0.00024192388
0.00012694965
-2.1273094e-12
-0.00026217667
0.00011811218
-1.7558251e-12
-0.00028067716
0.00010688581
-1.374391e-12
-0.0002970813
9.3330446e-05
-9.5284069e-13
-0.00031105195
7.7541561e-05
-4.6626102e-13
-0.00032226414
5.9667704e-05
7.0434912e-14
-0.0003304122
3.9925498e-05
6.0143477e-13
-0.00033521896
1.8611404e-05
1.0604214e-12
-0.00033644712
-3.890212e-06
1.429819e-12
-0.00033391173
-2.7104883e-05
1.851365e-12
-0.00032749596
-5.0467123e-05
2.3119996e-12
-0.00031716688
-7.3331017e-05
2.7855345e-12
-0.00030299229
-9.4983873e-05
3.1381096e-12
-0.00028515681
-0.00011466946
3.2453308e-12
-0.00026397517
-0.0001316198
3.1571184e-12
-0.00023990062
-0.00014509568
3.0909866e-12
-0.00021352584
-0.00015443501
3.2048039e-12
-0.00018557378
-0.00015910648
3.3850662e-12
-0.00015687657
-0.0001587648
3.3595619e-12
-0.00012834162
-0.00015330191
3.0903856e-12
-0.00010090607
-0.00014288813
2.9139249e-12
-7.5482483e-05
-0.00012799689
3.0129546e-12
-5.2901149e-05
-0.0001094085
2.9665589e-12
-3.3855111e-05
-8.8191308e-05
3.3130362e-12
-1.8854783e-05
-6.5662053e-05
6.211148e-12
-8.1982656e-06
-4.332521e-05
3.5720532e-12
-1.9611649e-06
-2.2799385e-05
-1.3844059e-11
-5.8044677e-06
1.8128682e-11
-3.6023034e-06
1.8016121e-05
-3.0184972e-11
-1.3044872e-05
5.069626e-05
2.9297914e-11
-2.7149289e-05
7.9265825e-05
-3.2556382e-12
-4.490717e-05
0.00010344379
-8.7951156e-12
-6.5461505e-05
0.00012324022
-3.8440643e-12
-8.8087232e-05
0.00013882125
-3.4068597e-12
-0.0001121688
0.00015043751
-3.858159e-12
-0.00013717742
0.00015836758
-3.7610676e-12
-0.00016264988
0.00016287546
-3.5482128e-12
-0.00018816993
0.00016418424
-3.345881e-12
-0.00021335264
0.0001624644
-3.1069573e-12
-0.00023783202
0.00015783422
-2.808126e-12
-0.0002612519
0.00015036953
-2.4520825e-12
-0.00028325982
0.00014012011
-2.0629683e-12
-0.00030350381
0.0001271298
-1.6683978e-12
-0.00032163165
0.00011145828
-1.2691499e-12
-0.00033729243
9.3202343e-05
-8.3165904e-13
-0.00035014037
7.251564e-05
-3.2024869e-13
-0.00035984078
4.9625907e-05
2.583463e-13
-0.00036607841
2.4849042e-05
8.2490408e-13
-0.00036856895
-1.3996719e-06
1.26566e-12
-0.00036707133
-2.8602508e-05
1.74333e-12
-0.00036140636
-5.6132104e-05
2.145905e-12
-0.00035147457
-8.3262812e-05
2.5863961e-12
-0.00033727782
-0.00010918063
3.0635034e-12
-0.0003189409
-0.00013300637
3.4275445e-12
-0.00029673173
-0.00015382896
3.524912e-12
-0.00027107725
-0.00017075017
3.3915558e-12
-0.00024257162
-0.00018294065
3.2621109e-12
-0.00021197328
-0.00018970484
3.3165314e-12
-0.00018018759
-0.00019055047
3.4459019e-12
-0.00014823331
-0.00018525618
3.4026139e-12
-0.00011719275
-0.00017392869
3.2018398e-12
-8.8148953e-05
-0.00015704071
3.0311097e-12
-6.2115389e-05
-0.00013544207
2.7492927e-12
-3.9966491e-05
-0.0001103402
3.2209841e-12
-2.2377608e-05
-8.3250935e-05
6.8438249e-12
-9.7826895e-06
-5.5920132e-05
3.663966e-12
-2.354697e-06
-3.0227363e-05
-1.7370036e-11
-8.159185e-06
2.1110822e-11
-3.8870507e-06
2.1903203e-05
-3.2388465e-11
-1.404866e-05
6.0857838e-05
3.1908268e-11
-2.9192053e-05
9.4409222e-05
-3.238228e-12
-4.8215263e-05
0.00012246701
-9.2481486e-12
-7.0187841e-05
0.0001452128
-3.9504961e-12
-9.4330058e-05
0.00016296347
-3.5255979e-12
-0.00011998821
0.00017609567
-4.0538846e-12
-0.00014660907
0.00018498845
-3.9851888e-12
-0.00017371587
0.00018998226
-3.7869928e-12
-0.00020088685
0.00019135521
-3.6027733e-12
-0.00022773707
0.00018931463
-3.3962535e-12
-0.0002539038
0.00018400094
-3.1463657e-12
-0.00027903518
0.00017550093
-2.8347754e-12
-0.00030278231
0.00016386723
-2.4567417e-12
-0.00032479395
0.00014914146
-2.0368354e-12
-0.00034471402
0.00013137836
-1.6097916e-12
-0.00036218124
0.00011066956
-1.1838422e-12
-0.00037683112
8.7165517e-05
-7.2617901e-13
-0.0003883004
6.1095188e-05
-1.9063468e-13
-0.00039623426
3.2782898e-05
4.4049652e-13
-0.00040029637
2.6624401e-06
1.1237269e-12
-0.00040018386
-2.8715009e-05
1.6450728e-12
-0.00039564403
-6.067193e-05
2.0768593e-12
-0.00038649734
-9.2409514e-05
2.4569867e-12
-0.00037266262
-0.00012301537
2.8769058e-12
-0.00035418496
-0.00015148403
3.3400484e-12
-0.00033126379
-0.00017675012
3.6949042e-12
-0.00030427782
-0.00019773613
3.7708031e-12
-0.00027380298
-0.0002134155
3.5958968e-12
-0.0002406183
-0.00022288954
3.4102942e-12
-0.00020569519
-0.00022547359
3.3939173e-12
-0.00017016638
-0.00022078499
3.4594114e-12
-0.00013527317
-0.00020882189
3.4328422e-12
-0.00010229332
-0.00019002056
3.2149634e-12
-7.2455934e-05
-0.00016527947
2.655819e-12
-4.6853296e-05
-0.00013594285
3.0802454e-12
-2.6361364e-05
-0.00010374287
7.4558101e-12
-1.1580441e-05
-7.0701055e-05
3.7500902e-12
-2.803314e-06
-3.9004467e-05
-2.1309378e-11
-1.0962524e-05
2.4554382e-11
-4.1321166e-06
2.6035354e-05
-3.4325856e-11
-1.4914097e-05
7.1639783e-05
3.4090972e-11
-3.095713e-05
0.00011045226
-3.3030223e-12
-5.1080653e-05
0.00014259054
-9.7114678e-12
-7.4292271e-05
0.00016842442
-4.1026591e-12
-9.9766122e-05
0.00018843733
-3.6829342e-12
-0.00012681669
0.00020314623
-4.2838096e-12
-0.0001548713
0.00021304307
-4.2531833e-12
-0.00018344393
0.0002185549
-4.0785182e-12
-0.00021211149
0.00022002278
-3.9064935e-12
-0.00024049343
0.00021769658
-3.7087569e-12
-0.00026823492
0.00021174244
-3.485283e-12
-0.00029499351
0.00020225952
-3.2253184e-12
-0.00032042904
0.00018930276
-2.9002504e-12
-0.00034419639
0.00017290881
-2.4975967e-12
-0.00036594073
0.0001531227
-2.0408271e-12
-0.00038529503
0.00013002387
-1.5720881e-12
-0.00040188
0.00010375048
-1.111262e-12
-0.00041530643
7.4521614e-05
-6.2871009e-13
-0.00042518076
4.2657227e-05
-5.0133232e-14
-0.00043111395
8.595634e-06
6.7013256e-13
-0.00043273621
-2.7092753e-05
1.3218855e-12
-0.00042971414
-6.3693986e-05
1.9323946e-12
-0.00042177616
-0.0001003475
2.4093799e-12
-0.0004087417
-0.00013604983
2.7895568e-12
-0.00039055537
-0.00016967037
3.1847015e-12
-0.00036732349
-0.00019998201
3.6141375e-12
-0.00033934979
-0.00022570983
3.9301995e-12
-0.00030716535
-0.00024559993
3.9612797e-12
-0.00027154682
-0.00025850808
3.7377921e-12
-0.000233516
-0.00026350442
3.4938431e-12
-0.00019431498
-0.00025998602
3.4128539e-12
-0.00015535291
-0.00024778396
3.45917e-12
-0.00011812526
-0.0002272482
3.3399228e-12
-8.4111826e-05
-0.0001992929
2.6477625e-12
-5.4665481e-05
-0.0001653892
3.013114e-12
-3.0907342e-05
-0.00012750102
8.1500264e-12
-1.3644697e-05
-8.79637e-05
3.8065982e-12
-3.3229912e-06
-4.9326144e-05
-2.5853073e-11
-1.4285544e-05
2.8564371e-11
-4.3334538e-06
3.0368845e-05
-3.5962221e-11
-1.5627794e-05
8.2934087e-05
3.5840491e-11
-3.2417911e-05
0.00012724238
-3.4252292e-12
-5.3460307e-05
0.00016363295
-1.0172948e-11
-7.7712458e-05
0.00019267658
-4.3054594e-12
-0.000104311
0.00021503587
-3.8795582e-12
-0.00013254491
0.00023138015
-4.53344e-12
-0.00016182693
0.00024232509
-4.5393019e-12
-0.00019166587
0.00024839385
-4.4014398e-12
-0.00022164124
0.00024999815
-4.2580107e-12
-0.00025138096
0.0002474363
-4.0685743e-12
-0.00028054264
0.00024090412
-3.844759e-12
-0.00030879821
0.00023051509
-3.6042078e-12
-0.00033582177
0.00021632633
-3.3315554e-12
-0.00036128017
0.00019836721
-2.9907348e-12
-0.00038482594
0.00017666848
-2.5610055e-12
-0.00040609255
0.00015129048
-2.0625523e-12
-0.00042469177
0.00012234971
-1.5447394e-12
-0.00044021384
9.0043682e-05
-1.0383464e-12
-0.00045223064
5.4674027e-05
-5.1137451e-13
-0.00046030302
1.6668016e-05
1.079396e-13
-0.00046399356
-2.3402216e-05
8.0127103e-13
-0.00046288447
-6.4803074e-05
1.5578876e-12
-0.00045660339
-0.00010662857
2.2420884e-12
-0.00044485607
-0.00014779715
2.757509e-12
-0.00042746611
-0.00018706034
3.1408402e-12
-0.00040442021
-0.00022302792
3.5052206e-12
-0.0003759156
-0.00025421444
3.8762233e-12
-0.00034240457
-0.00027911096
4.1157619e-12
-0.00030462861
-0.00029628403
4.0686018e-12
-0.00026363336
-0.00030449967
3.7782367e-12
-0.00022075512
-0.00030286428
3.4897817e-12
-0.00017757163
-0.00029096746
3.4076184e-12
-0.00013581501
-0.00026900482
3.3040125e-12
-9.7251928e-05
-0.00023785598
2.5610356e-12
-6.3544837e-05
-0.00019909629
2.9846177e-12
-3.6114691e-05
-0.00015493118
9.0214742e-12
-1.6028559e-05
-0.00010804984
3.8879669e-12
-3.9298357e-06
-6.1424835e-05
-3.1145444e-11
-1.8215412e-05
3.3236681e-11
-4.4872237e-06
3.4856106e-05
-3.7275179e-11
-1.6177324e-05
9.4624151e-05
3.7134264e-11
-3.35499e-05
0.00014461496
-3.5794624e-12
-5.5314556e-05
0.00018539761
-1.0604296e-11
-8.0390368e-05
0.00021775239
-4.5518849e-12
-0.0001078848
0.00024253031
-4.122923e-12
-0.00013706725
0.0002605626
-4.809118e-12
-0.00016734027
0.00027259812
-4.8343085e-12
-0.00019821119
0.00027926477
-4.7277903e-12
-0.00022926561
0.00028105257
-4.626635e-12
-0.00026014367
0.00027831437
-4.4685773e-12
-0.00029051966
0.00027128011
-4.2494746e-12
-0.00032008482
0.00026008026
-3.999173e-12
-0.00034853317
0.00024477469
-3.7358963e-12
-0.00037554992
0.00022538397
-3.4440847e-12
-0.00040080218
0.00020192073
-3.0829724e-12
-0.00042393159
0.0001744199
-2.6230678e-12
-0.00044454929
0.00014296742
-2.0792707e-12
-0.00046223321
0.0001077276
-1.5033376e-12
-0.00047652861
6.8969439e-05
-9.3425962e-13
-0.00048695287
2.709227e-05
-3.5556227e-13
-0.00049300563
-1.7349457e-05
2.8279759e-13
-0.00049418563
-6.362308e-05
1.0345627e-12
-0.00049001582
-0.00011079838
1.8472202e-12
-0.00048007773
-0.00015773523
2.5812517e-12
-0.00046405565
-0.00020308242
3.1274919e-12
-0.00044178974
-0.00024529384
3.507374e-12
-0.00041333574
-0.00028266845
3.824421e-12
-0.00037902595
-0.00031342076
4.1022033e-12
-0.00033952333
-0.00033578665
4.2172214e-12
-0.0002958575
-0.00034816549
4.0497499e-12
-0.00024942979
-0.000349292
3.6983511e-12
-0.00020197496
-0.00033842229
3.4422323e-12
-0.00015547284
-0.00031550696
3.2006888e-12
-0.00011201159
-0.00028131723
2.3234993e-12
-7.3617493e-05
-0.00023749039
2.881044e-12
-4.2077002e-05
-0.00018647168
1.0061833e-11
-1.8784003e-05
-0.00013134284
4.034073e-12
-4.6400108e-06
-7.5568789e-05
-3.7288685e-11
-2.285546e-05
3.8690679e-11
-4.5902838e-06
3.9446428e-05
-3.823924e-11
-1.655269e-05
0.00010658652
3.7939746e-11
-3.433335e-05
0.00016239562
-3.7582934e-12
-5.6610888e-05
0.00020767516
-1.0978685e-11
-8.2277187e-05
0.0002434187
-4.8188854e-12
-0.00011041819
0.00027067132
-4.4054387e-12
-0.00014028892
0.00029043334
-5.1197907e-12
-0.00017128551
0.00030359472
-5.1510219e-12
-0.00020291689
0.00031089615
-5.0539869e-12
-0.00023477769
0.00031291337
-4.9816951e-12
-0.00026652358
0.00031006027
-4.8666215e-12
-0.00029784945
0.00030260599
-4.6798456e-12
-0.0003284706
0.00029070141
-4.430459e-12
-0.00035810671
0.0002744108
-4.1467818e-12
-0.00038646824
0.00025374551
-3.8503872e-12
-0.00041324485
0.00022869734
-3.5291083e-12
-0.00043809567
0.00019927072
-3.1397675e-12
-0.00046064152
0.00016551327
-2.644741e-12
-0.00048045931
0.0001275454
-2.0506258e-12
-0.00049707945
8.5589584e-05
-1.4077081e-12
-0.00050998718
4.0000008e-05
-7.6759002e-13
-0.00051862937
-8.7072662e-06
-1.3072315e-13
-0.00052242833
-5.9824127e-05
5.5800092e-13
-0.00052080462
-0.0001124221
1.353826e-12
-0.00051321089
-0.00016532896
2.2058586e-12
-0.00049917821
-0.0002171151
2.9698327e-12
-0.00047837548
-0.00026609657
3.5254236e-12
-0.00045068058
-0.00031036336
3.8788199e-12
-0.0004162589
-0.00034784245
4.1147391e-12
-0.00037564085
-0.00037640471
4.2465049e-12
-0.00032978531
-0.00039402102
4.1772287e-12
-0.00028011189
-0.00039896542
3.8827353e-12
-0.00022848372
-0.00039005047
3.5552392e-12
-0.00017712616
-0.00036686453
3.1348522e-12
-0.00012847765
-0.00032996574
1.991448e-12
-8.4985583e-05
-0.00028098246
2.6550557e-12
-4.8878639e-05
-0.00022257863
1.1221972e-11
-2.1960824e-05
-0.00015826066
4.2268335e-12
-5.469678e-06
-9.2059891e-05
-4.4395422e-11
-2.8325183e-05
4.5062614e-11
-4.6407201e-06
4.4087186e-05
-3.8825209e-11
-1.6747989e-05
0.00011869375
3.8240235e-11
-3.4756314e-05
0.00018040395
-3.9688876e-12
-5.7328465e-05
0.00023024733
-1.1289973e-11
-8.3339268e-05
0.00026942951
-5.0878578e-12
-0.00011185972
0.00029919178
-4.705694e-12
-0.00014213476
0.00032070838
-5.4564791e-12
-0.00017355703
0.000335017
-5.5004908e-12
-0.00020563944
0.00034297857
-5.4004343e-12
-0.0002379881
0.00034526204
-5.3270563e-12
-0.00027027701
0.00034234918
-5.2313599e-12
-0.0003022252
0.00033455418
-5.0827067e-12
-0.00033357653
0.00032205275
-4.8631357e-12
-0.00036408206
0.00030491635
-4.5750229e-12
-0.00039348459
0.00028314804
-4.2460022e-12
-0.000421505
0.00025671776
-3.9023401e-12
-0.00044783032
0.00022559604
-3.5371112e-12
-0.00047210322
0.00018978617
-3.1074606e-12
-0.00049391353
0.00014935571
-2.569029e-12
-0.00051279208
0.00010446813
-1.9180374e-12
-0.00052820807
5.5416011e-05
-1.2024103e-12
-0.00053957139
2.6560551e-06
-4.8059308e-13
-0.00054624182
-5.3153689e-05
2.1637839e-13
-0.00054754741
-0.00011111652
9.6018665e-13
-0.000542815
-0.00017006137
1.7946374e-12
-0.0005314158
-0.00022851429
2.6651049e-12
-0.00051282803
-0.00028468433
3.4251771e-12
-0.00048671736
-0.00033647403
3.9504978e-12
-0.00045303245
-0.00038152736
4.2314891e-12
-0.00041210823
-0.00041732894
4.3236593e-12
-0.00036476274
-0.00044136652
4.2337354e-12
-0.00031236681
-0.00045136135
3.961682e-12
-0.0002568608
-0.00044555648
3.6328248e-12
-0.0002006938
-0.00042303153
3.0849783e-12
-0.00014667113
-0.00038398841
1.6133147e-12
-9.7717406e-05
-0.00032993619
2.3328486e-12
-5.6590332e-05
-0.00026370572
1.2496895e-11
-2.5605327e-05
-0.00018924567
4.4331558e-12
-6.4348942e-06