/*--------------------------------*- C++ -*----------------------------------*\
  =========                 |
  \\      /  F ield         | OpenFOAM: The Open Source CFD Toolbox
   \\    /   O peration     | Website:  https://openfoam.org
    \\  /    A nd           | Version:  7
     \\/     M anipulation  |
\*---------------------------------------------------------------------------*/
FoamFile
{
    version     2.0;
    format      ascii;
    class       volVectorField;
    location    "38";
    object      U;
}
// * * * * * * * * * * * * * * * * * * * * * * * * * * * * * * * * * * * * * //

dimensions      [0 1 -1 0 0 0 0];

internalField   nonuniform List<vector> 
16000
(
(6.603919e-05 -6.7337957e-05 -4.1177117e-07)
(0.00016274737 -5.6357655e-05 5.6900976e-06)
(0.00014192184 4.6261132e-07 1.9190096e-05)
(-5.0617152e-05 6.1890898e-05 3.661266e-05)
(-0.00040997024 0.00011563125 5.4721285e-05)
(-0.00090902449 0.0001577441 7.1549698e-05)
(-0.0015177106 0.00018850501 8.5761827e-05)
(-0.0022068856 0.00020960912 9.6542534e-05)
(-0.0029506012 0.00022287664 0.00010343148)
(-0.0037264651 0.00022981104 0.00010618174)
(-0.004515051 0.00023147724 0.00010466607)
(-0.0052990137 0.0002285042 9.8821426e-05)
(-0.0060621934 0.00022114756 8.8623177e-05)
(-0.0067888642 0.00020938302 7.4081866e-05)
(-0.0074632162 0.00019301354 5.5256243e-05)
(-0.0080691176 0.0001717805 3.2276531e-05)
(-0.0085901706 0.0001454719 5.3726231e-06)
(-0.0090100508 0.0001140225 -2.5097601e-05)
(-0.0093131031 7.7602003e-05 -5.8624242e-05)
(-0.0094851486 3.6687524e-05 -9.4529557e-05)
(-0.0095144481 -7.886828e-06 -0.00013196384)
(-0.00939273 -5.4924441e-05 -0.00016991595)
(-0.009116225 -0.00010284305 -0.00020723951)
(-0.0086866035 -0.00014974812 -0.00024269676)
(-0.0081116922 -0.00019351097 -0.0002750179)
(-0.0074058945 -0.00023188649 -0.00030297399)
(-0.006590219 -0.0002626625 -0.0003254586)
(-0.0056918539 -0.00028382847 -0.0003415718)
(-0.0047432625 -0.00029374732 -0.00035069942)
(-0.0037808205 -0.00029130887 -0.00035257997)
(-0.0028430637 -0.00027604459 -0.00034735302)
(-0.0019686494 -0.00024819034 -0.00033558505)
(-0.0011941413 -0.00020870189 -0.00031827162)
(-0.00055166752 -0.00015926359 -0.00029681804)
(-6.6511631e-05 -0.00010240329 -0.0002729941)
(0.00024491783 -4.1748578e-05 -0.00024885709)
(0.00037894517 1.7849134e-05 -0.00022678791)
(0.0003497947 6.7061609e-05 -0.00020922202)
(0.00020619705 8.9839118e-05 -0.00019883179)
(5.7469582e-05 5.7403067e-05 -0.0001843861)
(5.8000923e-05 -0.00016703569 -6.6409606e-06)
(4.0880823e-05 -3.9959392e-05 -3.8660322e-07)
(-0.00029497441 0.00024856652 1.1246933e-05)
(-0.0010110242 0.00056212541 2.5612976e-05)
(-0.0020992293 0.00084749816 4.0598008e-05)
(-0.0035140902 0.0010831223 5.4606201e-05)
(-0.0051946895 0.0012643029 6.6510243e-05)
(-0.0070766335 0.0013940692 7.5557843e-05)
(-0.0090981544 0.0014779616 8.1267218e-05)
(-0.01120231 0.0015215278 8.3338723e-05)
(-0.013337039 0.0015292118 8.1589026e-05)
(-0.015454183 0.0015039766 7.5908149e-05)
(-0.017508155 0.0014473584 6.6237744e-05)
(-0.019454721 0.0013597791 5.2567046e-05)
(-0.02125016 0.0012410029 3.4942177e-05)
(-0.022850979 0.0010906594 1.3484335e-05)
(-0.024214229 0.00090877591 -1.1587479e-05)
(-0.025298436 0.00069627703 -3.9933321e-05)
(-0.026065059 0.00045541607 -7.1072615e-05)
(-0.0264804 0.00019010828 -0.0001043712)
(-0.026517815 -9.3864644e-05 -0.00013903824)
(-0.026159987 -0.00038877573 -0.00017414213)
(-0.025401168 -0.00068509061 -0.00020862698)
(-0.02424917 -0.00097175786 -0.0002413604)
(-0.022726752 -0.0012366918 -0.00027118681)
(-0.020872351 -0.0014674269 -0.00029699465)
(-0.018739913 -0.0016519067 -0.00031779166)
(-0.016397715 -0.0017793534 -0.00033278211)
(-0.013926124 -0.0018411473 -0.00034143908)
(-0.011414318 -0.0018316331 -0.00034356427)
(-0.0089561021 -0.0017487721 -0.00033932886)
(-0.0066450076 -0.0015945854 -0.00032929132)
(-0.004568894 -0.0013753938 -0.00031439086)
(-0.0028042174 -0.0011019728 -0.00029591807)
(-0.0014100179 -0.00078992301 -0.00027546466)
(-0.0004216419 -0.00046057999 -0.00025484615)
(0.00015575799 -0.00014254728 -0.00023597773)
(0.00035672578 0.00012231721 -0.00022087541)
(0.00027527973 0.00027111688 -0.00021163814)
(9.013483e-05 0.00020508417 -0.00019544808)
(1.917831e-06 -0.00014896034 -2.0426944e-05)
(-0.00025604902 0.000297023 -1.1808035e-05)
(-0.0010504521 0.0010236269 9.0297197e-08)
(-0.0023878278 0.0017975413 1.3070394e-05)
(-0.004239445 0.002509905 2.6106648e-05)
(-0.0065455645 0.0031100583 3.8058182e-05)
(-0.0092251271 0.0035809269 4.8097979e-05)
(-0.012190003 0.0039234347 5.5665381e-05)
(-0.015352993 0.0041461869 6.0378754e-05)
(-0.018631059 0.0042595924 6.1981431e-05)
(-0.021946083 0.0042728163 6.0300482e-05)
(-0.02522426 0.0041924767 5.5218107e-05)
(-0.028394926 0.0040224713 4.665799e-05)
(-0.031389394 0.0037645258 3.4585003e-05)
(-0.034140224 0.0034191723 1.9015258e-05)
(-0.036581146 0.0029869413 3.328558e-08)
(-0.038647754 0.0024696068 -2.2187058e-05)
(-0.040278947 0.0018713597 -4.7361313e-05)
(-0.041419058 0.0011998094 -7.5076002e-05)
(-0.042020507 0.00046673199 -0.0001047763)
(-0.042046773 -0.00031149774 -0.00013576433)
(-0.041475476 -0.0011138107 -0.00016720486)
(-0.040301321 -0.0019148771 -0.00019815065)
(-0.038538559 -0.0026858638 -0.00022757858)
(-0.036222757 -0.0033956784 -0.00025444058)
(-0.033411588 -0.0040126055 -0.00027772622)
(-0.030184435 -0.0045062461 -0.00029653278)
(-0.026640649 -0.0048496371 -0.00031013721)
(-0.022896381 -0.0050213924 -0.00031806348)
(-0.019080018 -0.0050076922 -0.00032013799)
(-0.015326331 -0.004803953 -0.00031652591)
(-0.011769579 -0.0044160616 -0.0003077435)
(-0.0085358437 -0.0038611548 -0.00029464436)
(-0.0057348814 -0.0031681049 -0.00027838136)
(-0.0034516961 -0.0023781249 -0.00026034837)
(-0.0017379738 -0.0015461954 -0.0002421017)
(-0.00060368955 -0.00074418113 -0.00022525254)
(-8.0490678e-06 -6.6344839e-05 -0.00021139363)
(0.00015540768 0.00036040464 -0.00020221244)
(7.3558933e-05 0.0003543707 -0.00018529567)
(-6.4684548e-05 5.0425647e-05 -3.8678847e-05)
(-0.00060838188 0.001045762 -2.6139953e-05)
(-0.0019305407 0.0023817384 -1.2158613e-05)
(-0.0039464418 0.0037565204 1.1342098e-06)
(-0.0065890204 0.005015315 1.3722457e-05)
(-0.0097792072 0.0060800637 2.4846768e-05)
(-0.013417136 0.0069205218 3.3969912e-05)
(-0.017395541 0.0075341135 4.0756576e-05)
(-0.021607752 0.0079313967 4.4970804e-05)
(-0.025950714 0.0081270407 4.6440769e-05)
(-0.03032587 0.0081347688 4.5035693e-05)
(-0.03463882 0.007965002 4.0649254e-05)
(-0.038798387 0.0076243753 3.3194388e-05)
(-0.042715709 0.0071165087 2.2608817e-05)
(-0.046303777 0.0064435548 8.8688494e-06)
(-0.049477695 0.0056081457 -7.9910317e-06)
(-0.052155751 0.0046154504 -2.7855482e-05)
(-0.054261314 0.0034751123 -5.0505386e-05)
(-0.055725441 0.0022028895 -7.5597679e-05)
(-0.056490043 0.00082185256 -0.00010265116)
(-0.056511343 -0.00063696735 -0.00013104132)
(-0.055763447 -0.0021345938 -0.00016000321)
(-0.05424167 -0.0036248134 -0.00018865466)
(-0.051965318 -0.0050556217 -0.00021602846)
(-0.048979663 -0.0063713958 -0.00024112157)
(-0.04535681 -0.00751572 -0.00026295669)
(-0.041195195 -0.0084347257 -0.00028065194)
(-0.036617541 -0.0090807461 -0.00029349285)
(-0.031767147 -0.009416026 -0.00030099981)
(-0.026802517 -0.009416206 -0.00030298326)
(-0.021890413 -0.0090733117 -0.00029957961)
(-0.017197569 -0.0083980423 -0.00029126162)
(-0.012881392 -0.0074212888 -0.0002788202)
(-0.0090800626 -0.0061950144 -0.00026331877)
(-0.0059024823 -0.0047929336 -0.00024602511)
(-0.0034184883 -0.0033118299 -0.00022832836)
(-0.0016495248 -0.0018745422 -0.00021165568)
(-0.00055980593 -0.00063470427 -0.00019740131)
(-5.0121581e-05 0.00021501193 -0.00018680066)
(3.8093938e-05 0.00041383164 -0.00016799354)
(-0.00013086578 0.00044556324 -5.8195103e-05)
(-0.00097095128 0.0022426879 -4.1129993e-05)
(-0.0028462146 0.0043591824 -2.4247548e-05)
(-0.0055648166 0.0064572112 -9.8151981e-06)
(-0.0090094456 0.0083534735 3.1033506e-06)
(-0.013075464 0.0099514501 1.4083366e-05)
(-0.017642282 0.011211746 2.2861919e-05)
(-0.022584683 0.012129582 2.9334197e-05)
(-0.027779634 0.012717524 3.3422985e-05)
(-0.033108115 0.012994147 3.5055429e-05)
(-0.038455496 0.012977366 3.4154247e-05)
(-0.043711128 0.012681216 3.0631032e-05)
(-0.048767519 0.01211513 2.4388919e-05)
(-0.05351963 0.011284988 1.5334415e-05)
(-0.057864698 0.010195261 3.3961827e-06)
(-0.061702792 0.0088517432 -1.1451322e-05)
(-0.064938227 0.0072644423 -2.9161513e-05)
(-0.067481792 0.005450294 -4.9589137e-05)
(-0.0692537 0.0034354365 -7.2466338e-05)
(-0.070187071 0.0012568434 -9.738438e-05)
(-0.070231722 -0.0010368514 -0.00012378406)
(-0.069358015 -0.0033854743 -0.0001509572)
(-0.067560464 -0.0057183934 -0.00017806314)
(-0.0648608 -0.0079566844 -0.00020416018)
(-0.0613102 -0.010016304 -0.00022825331)
(-0.056990362 -0.011812194 -0.00024935622)
(-0.05201315 -0.013263143 -0.00026656327)
(-0.046518561 -0.014297143 -0.000279125)
(-0.040670856 -0.014856884 -0.00028651919)
(-0.034652771 -0.014904994 -0.00028850908)
(-0.028657896 -0.014428613 -0.00028518099)
(-0.022881399 -0.013442976 -0.00027695521)
(-0.017509478 -0.011993828 -0.00026456615)
(-0.012708064 -0.010158709 -0.00024901192)
(-0.0086114765 -0.0080474893 -0.0002314765)
(-0.0053117552 -0.005802959 -0.00021323941)
(-0.0028485113 -0.0036024843 -0.00019561386)
(-0.0012000307 -0.00166055 -0.00017986581)
(-0.0002888138 -0.00023377622 -0.00016672066)
(-2.4739687e-06 0.00035046683 -0.00014548875)
(-0.00019286532 0.0010313047 -7.6675321e-05)
(-0.0013239877 0.0038925297 -5.4771573e-05)
(-0.0037518591 0.0069679946 -3.4566787e-05)
(-0.007173303 0.0099108144 -1.8473266e-05)
(-0.011414812 0.012527394 -4.6775299e-06)
(-0.016341488 0.014714502 6.6852211e-06)
(-0.021809624 0.0164305 1.5602076e-05)
(-0.027675882 0.017672017 2.2187688e-05)
(-0.0338024 0.018455247 2.6520507e-05)
(-0.040056851 0.018803213 2.8627221e-05)
(-0.04631184 0.018738078 2.8485068e-05)
(-0.052444062 0.018277408 2.6023104e-05)
(-0.058333356 0.017433437 2.1131765e-05)
(-0.063862062 0.016214495 1.3680898e-05)
(-0.068914991 0.014627824 3.5440251e-06)
(-0.073380201 0.012683109 -9.3730159e-06)
(-0.077150613 0.010396211 -2.510092e-05)
(-0.080126453 0.0077926391 -4.357544e-05)
(-0.082218393 0.0049104471 -6.460826e-05)
(-0.083351219 0.0018022822 -8.7863314e-05)
(-0.083467821 -0.0014636098 -0.00011284187)
(-0.08253326 -0.0048035809 -0.00013888004)
(-0.080538652 -0.0081200476 -0.00016516051)
(-0.077504588 -0.011304333 -0.00019074225)
(-0.073483765 -0.014240829 -0.00021460724)
(-0.068562534 -0.016812391 -0.00023572368)
(-0.062861001 -0.018906786 -0.00025312169)
(-0.056531395 -0.020423864 -0.00026597476)
(-0.049754415 -0.021283049 -0.00027367806)
(-0.042733406 -0.021430604 -0.0002759135)
(-0.035686361 -0.020846116 -0.00027269235)
(-0.028835911 -0.019547676 -0.0002643688)
(-0.022397697 -0.017595401 -0.00025162096)
(-0.016567755 -0.015093173 -0.00023539847)
(-0.011509872 -0.012188853 -0.00021683794)
(-0.0073439074 -0.0090736628 -0.00019716504)
(-0.0041345355 -0.0059816728 -0.00017765274)
(-0.0018815926 -0.0031890441 -0.00015953516)
(-0.00053619165 -0.0010143248 -0.00014314099)
(-4.124688e-05 0.00015894993 -0.00011904971)
(-0.0002501169 0.0017985691 -9.2162061e-05)
(-0.0016597738 0.005984138 -6.5272039e-05)
(-0.0046244581 0.010198613 -4.1585675e-05)
(-0.008732172 0.014107016 -2.3530842e-05)
(-0.013751608 0.017522332 -8.4924338e-06)
(-0.019515083 0.020347114 3.6465462e-06)
(-0.025854148 0.022545922 1.3097864e-05)
(-0.032607012 0.024122001 2.0177631e-05)
(-0.039621884 0.025098107 2.510812e-05)
(-0.046755012 0.025503177 2.8007601e-05)
(-0.0538688 0.025364228 2.8901678e-05)
(-0.060830247 0.024702537 2.7731083e-05)
(-0.06750964 0.023533174 2.4367248e-05)
(-0.073779766 0.02186698 1.8636103e-05)
(-0.079515877 0.019714124 1.0347864e-05)
(-0.0845965 0.017088491 -6.6891192e-07)
(-0.088905126 0.014012233 -1.4530684e-05)
(-0.092332702 0.010520009 -3.1261723e-05)
(-0.094780823 0.0066624827 -5.0758907e-05)
(-0.096165469 0.002508808 -7.276161e-05)
(-0.096421122 -0.0018521449 -9.6830358e-05)
(-0.095505029 -0.006311996 -0.00012233888)
(-0.093401431 -0.010744593 -0.00014848052)
(-0.090125479 -0.015009425 -0.00017429573)
(-0.085726506 -0.018956667 -0.00019871769)
(-0.080290345 -0.022433821 -0.00022063719)
(-0.073940284 -0.025293748 -0.00023898264)
(-0.066836238 -0.027403775 -0.00025280892)
(-0.059171748 -0.028655383 -0.00026138552)
(-0.051168504 -0.028973823 -0.00026427281)
(-0.043068251 -0.028326919 -0.00026137457)
(-0.035122202 -0.026732276 -0.00025295839)
(-0.027578337 -0.024262246 -0.00023963993)
(-0.020667338 -0.021046314 -0.00022233095)
(-0.014588346 -0.017270905 -0.00020215036)
(-0.0094958245 -0.01317722 -0.00018032079)
(-0.0054864948 -0.0090579242 -0.00015814628)
(-0.0025879515 -0.0052522189 -0.00013691502)
(-0.00078446615 -0.0021405388 -0.00011663121)
(-7.6872664e-05 -0.00016053924 -8.9426066e-05)
(-0.00030295624 0.002736528 -0.00010298569)
(-0.0019754996 0.0084981021 -7.1014913e-05)
(-0.0054521434 0.014028577 -4.3867087e-05)
(-0.010217975 0.019021391 -2.3722451e-05)
(-0.015985184 0.023311097 -7.2271612e-06)
(-0.022552803 0.0268182 5.9618645e-06)
(-0.029727189 0.029522435 1.6259148e-05)
(-0.037328212 0.031439783 2.4162535e-05)
(-0.045190989 0.032603409 3.002214e-05)
(-0.053161895 0.033050379 3.4034914e-05)
(-0.061095251 0.032813698 3.6264002e-05)
(-0.068850861 0.031918829 3.6652255e-05)
(-0.076292142 0.030383789 3.5043121e-05)
(-0.083284991 0.028221864 3.1209655e-05)
(-0.089697552 0.025446023 2.4889477e-05)
(-0.095400891 0.022074173 1.5824201e-05)
(-0.10027057 0.01813457 3.8018098e-06)
(-0.10418904 0.013670802 -1.129998e-05)
(-0.10704872 0.0087459283 -2.947186e-05)
(-0.10875573 0.0034454471 -5.0535657e-05)
(-0.10923405 -0.0021211628 -7.4115523e-05)
(-0.10842999 -0.0078205196 -9.9623407e-05)
(-0.10631683 -0.013497152 -0.00012625822)
(-0.10289944 -0.018977291 -0.00015302989)
(-0.098218423 -0.024074609 -0.00017880302)
(-0.092353559 -0.028597962 -0.00020236315)
(-0.08542604 -0.032360979 -0.00022250168)
(-0.077598903 -0.035193192 -0.00023811288)
(-0.069075164 -0.036952165 -0.00024829401)
(-0.060093113 -0.037535859 -0.00025243622)
(-0.050918471 -0.036894262 -0.00025029277)
(-0.041833365 -0.035039212 -0.00024201274)
(-0.033122492 -0.032051376 -0.00022813375)
(-0.0250573 -0.028083649 -0.00020953295)
(-0.017879644 -0.023360687 -0.00018733483)
(-0.011786478 -0.018175002 -0.00016280343)
(-0.0069140727 -0.012880394 -0.00013733993)
(-0.003323841 -0.0078822604 -0.00011236926)
(-0.0010368617 -0.0036261508 -8.7661753e-05)
(-0.00011093382 -0.00060702205 -5.7221937e-05)
(-0.00035169313 0.0038338209 -0.00010768261)
(-0.0022696861 0.01141036 -7.0526121e-05)
(-0.0062274802 0.0184273 -4.004816e-05)
(-0.01161475 0.024619957 -1.7797731e-05)
(-0.018090319 0.02985756 2.6619114e-07)
(-0.025421023 0.034089878 1.4695541e-05)
(-0.033388717 0.037320713 2.6089814e-05)
(-0.041795673 0.039585247 3.5109789e-05)
(-0.05046497 0.040931441 4.221648e-05)
(-0.059234591 0.041407237 4.7670688e-05)
(-0.067952674 0.041053183 5.1560089e-05)
(-0.076474038 0.039899664 5.3818092e-05)
(-0.084657594 0.037967838 5.4249559e-05)
(-0.09236471 0.035273269 5.2564455e-05)
(-0.099458588 0.031831288 4.8417382e-05)
(-0.10580462 0.027663183 4.1451928e-05)
(-0.11127168 0.022802463 3.1348587e-05)
(-0.11573423 0.017300628 1.7874414e-05)
(-0.11907516 0.011231983 9.3195225e-07)
(-0.12118941 0.004697192 -1.9395592e-05)
(-0.12198809 -0.0021747111 -4.280702e-05)
(-0.12140313 -0.0092260666 -6.8761152e-05)
(-0.11939248 -0.016272193 -9.6465791e-05)
(-0.11594548 -0.02310529 -0.00012489694)
(-0.11108822 -0.029500586 -0.00015283764)
(-0.1048884 -0.035224944 -0.00017894445)
(-0.097459311 -0.040047911 -0.0002018371)
(-0.088962034 -0.043754915 -0.00022020487)
(-0.079605258 -0.046162111 -0.00023292059)
(-0.069641885 -0.047131962 -0.00023914971)
(-0.059361857 -0.046588367 -0.00023843954)
(-0.04908095 -0.044529876 -0.00023077387)
(-0.039125758 -0.041039492 -0.00021658239)
(-0.029815749 -0.036289753 -0.00019670017)
(-0.021444141 -0.030542382 -0.00017227361)
(-0.014259504 -0.024142644 -0.00014464723)
(-0.0084461217 -0.0175092 -0.00011538075)
(-0.0041057582 -0.011119102 -8.6115267e-05)
(-0.001300081 -0.0054896932 -5.6456275e-05)
(-0.00014466064 -0.0011817423 -2.250448e-05)
(-0.00039639255 0.0050786752 -0.00010493357)
(-0.0025408052 0.014693488 -6.2453066e-05)
(-0.0069442143 0.02335798 -2.8846843e-05)
(-0.012909249 0.030860812 -4.5452826e-06)
(-0.02004566 0.037117352 1.5134404e-05)
(-0.028090314 0.042116909 3.0941576e-05)
(-0.036802158 0.045895788 4.3646438e-05)
(-0.045967207 0.048514819 5.4055814e-05)
(-0.055397847 0.050041363 6.2725553e-05)
(-0.064925215 0.050537306 6.9965644e-05)
(-0.074393075 0.050052597 7.587505e-05)
(-0.083653296 0.048623487 8.0365746e-05)
(-0.092562456 0.046274534 8.3192869e-05)
(-0.10097956 0.043023316 8.3992403e-05)
(-0.10876487 0.038886823 8.2324587e-05)
(-0.11577978 0.033888623 7.7722422e-05)
(-0.12188764 0.028066013 6.9744539e-05)
(-0.1269554 0.0214766 5.8030903e-05)
(-0.13085612 0.014203877 4.2359033e-05)
(-0.13347226 0.0063614859 2.2697977e-05)
(-0.13469976 -0.0019040885 -7.4455318e-07)
(-0.13445283 -0.010412655 -2.7493295e-05)
(-0.1326696 -0.018951376 -5.6776597e-05)
(-0.12931856 -0.027278401 -8.7543018e-05)
(-0.12440509 -0.035129036 -0.00011848987)
(-0.11797826 -0.042224893 -0.00014812693)
(-0.11013684 -0.048286168 -0.00017486912)
(-0.10103395 -0.053046897 -0.0001971528)
(-0.090879085 -0.056272741 -0.00021356633)
(-0.07993677 -0.057780329 -0.0002229814)
(-0.068520631 -0.057456695 -0.00022466928)
(-0.056982426 -0.055276929 -0.00021838423)
(-0.045695955 -0.051317905 -0.00020439942)
(-0.035036663 -0.045766093 -0.00018348406)
(-0.025358979 -0.03891805 -0.00015681185)
(-0.016973702 -0.03117332 -0.00012584104)
(-0.010123126 -0.023020495 -9.2348626e-05)
(-0.0049573034 -0.015016291 -5.826957e-05)
(-0.0015839127 -0.007760171 -2.3097788e-05)
(-0.0001800053 -0.0018919994 1.4766543e-05)
(-0.00043687353 0.0064585701 -9.3536091e-05)
(-0.0027868526 0.018316904 -4.5556871e-05)
(-0.0075959004 0.028778326 -9.0724868e-06)
(-0.014088641 0.037694913 1.7181426e-05)
(-0.021830809 0.045038218 3.8485199e-05)
(-0.03053227 0.050846281 5.5777446e-05)
(-0.03993132 0.0551957 6.9987392e-05)
(-0.049799511 0.058179126 8.2053073e-05)
(-0.059940135 0.059887929 9.2610868e-05)
(-0.070179117 0.060401155 0.00010200676)
(-0.08035762 0.059780201 0.00011033895)
(-0.090326507 0.058068286 0.00011748689)
(-0.09994208 0.055293693 0.00012314539)
(-0.10906305 0.051475675 0.00012686564)
(-0.11754872 0.046631955 0.00012810164)
(-0.12525817 0.04078689 0.00012626193)
(-0.13205051 0.033979545 0.00012076653)
(-0.1377859 0.026271126 0.00011110804)
(-0.14232754 0.017751398 9.6915081e-05)
(-0.14554452 0.0085438136 7.8015666e-05)
(-0.14731572 -0.0011908602 5.4495985e-05)
(-0.14753461 -0.011252637 2.6733813e-05)
(-0.14611543 -0.021402755 -4.5407416e-06)
(-0.14300051 -0.03136623 -3.826723e-05)
(-0.13816826 -0.040837684 -7.3063988e-05)
(-0.13164197 -0.049490597 -0.00010728488)
(-0.1234984 -0.056990437 -0.00013911148)
(-0.1138753 -0.063011814 -0.00016667766)
(-0.10297654 -0.067259346 -0.00018821853)
(-0.091073524 -0.069491278 -0.00020222949)
(-0.078501393 -0.069544183 -0.00020761687)
(-0.065648983 -0.067356341 -0.00020381967)
(-0.052942006 -0.062986923 -0.00019088301)
(-0.040820056 -0.056628018 -0.00016946443)
(-0.029709668 -0.048607161 -0.00014075321)
(-0.019996223 -0.039379403 -0.0001063451)
(-0.011992171 -0.029509504 -6.8291193e-05)
(-0.0059060237 -0.019644353 -2.8899549e-05)
(-0.0018995944 -0.010479297 1.2409298e-05)
(-0.00021911098 -0.0027504906 5.4747089e-05)
(-0.00047276098 0.0079598536 -7.2399447e-05)
(-0.0030053074 0.022246666 -1.8715771e-05)
(-0.0081754825 0.034640711 2.0361126e-05)
(-0.015139639 0.045066388 4.8441704e-05)
(-0.023425074 0.053560164 7.1356797e-05)
(-0.032718089 0.060216902 9.0227394e-05)
(-0.04273898 0.065160514 0.00010613168)
(-0.053246924 0.068521226 0.00012012595)
(-0.064037881 0.070418877 0.00013291495)
(-0.074934239 0.070952915 0.00014486973)
(-0.08577631 0.070198355 0.00015607782)
(-0.096415825 0.068206609 0.00016637706)
(-0.10671081 0.065010084 0.00017539295)
(-0.11652173 0.060629348 0.00018258208)
(-0.12570894 0.055081779 0.00018728049)
(-0.1341311 0.048390749 0.0001887576)
(-0.14164461 0.040594624 0.000186276)
(-0.14810402 0.031755106 0.00017915709)
(-0.15336319 0.021964578 0.00016685123)
(-0.15727766 0.011352261 0.00014900922)
(-0.15970802 8.901361e-05 0.00012555172)
(-0.16052491 -0.011609443 9.6739884e-05)
(-0.15961528 -0.023481696 6.3202923e-05)
(-0.15689041 -0.035221788 2.5983107e-05)
(-0.15229556 -0.046484019 -1.3477952e-05)
(-0.14582083 -0.056891687 -5.3381057e-05)
(-0.13751249 -0.066050534 -9.1654301e-05)
(-0.12748403 -0.07356743 -0.00012608189)
(-0.11592512 -0.079074262 -0.0001544709)
(-0.10310686 -0.08225624 -0.00017484234)
(-0.089381231 -0.082882833 -0.00018562557)
(-0.07517305 -0.080838443 -0.00018583082)
(-0.060963174 -0.07614901 -0.00017517412)
(-0.047263086 -0.069000366 -0.00015412707)
(-0.034583091 -0.059744613 -0.0001238588)
(-0.023397401 -0.048892502 -8.6110977e-05)
(-0.014103448 -0.037091894 -4.3261971e-05)
(-0.0069814336 -0.025092622 1.9233085e-06)
(-0.0022590057 -0.013702949 5.0070968e-05)
(-0.0002641458 -0.0037760401 9.7627354e-05)
(-0.00050355105 0.0095674418 -4.0553964e-05)
(-0.0031932763 0.026445189 1.9062559e-05)
(-0.0086754058 0.0408921 6.0418309e-05)
(-0.016048495 0.052912587 9.0183824e-05)
(-0.024807365 0.062615417 0.00011468773)
(-0.034618419 0.070159221 0.00013522632)
(-0.045186794 0.075721404 0.00015301759)
(-0.056261502 0.079475004 0.00016922476)
(-0.067632971 0.081572546 0.0001846112)
(-0.079121712 0.082137091 0.00019956481)
(-0.09056887 0.081259514 0.00021415549)
(-0.10182885 0.079000769 0.00022817313)
(-0.11276335 0.075397888 0.00024116747)
(-0.12323669 0.070472446 0.00025249276)
(-0.13311239 0.064240357 0.00026135666)
(-0.14225078 0.05672207 0.00026687486)
(-0.1505076 0.047952508 0.0002681325)
(-0.15773347 0.037990334 0.00026425309)
(-0.16377428 0.026926304 0.00025447446)
(-0.16847278 0.014890606 0.00023822915)
(-0.17167133 0.0020590348 0.00021522678)
(-0.17321661 -0.011342254 0.00018554359)
(-0.17296593 -0.025033765 0.00014966803)
(-0.17079571 -0.038682248 0.00010857128)
(-0.16661243 -0.051903618 6.3715859e-05)
(-0.1603655 -0.064270374 1.7034485e-05)
(-0.15206157 -0.075324599 -2.9140875e-05)
(-0.14177939 -0.084597515 -7.2205465e-05)
(-0.12968348 -0.091636042 -0.00010946246)
(-0.11603435 -0.096035947 -0.00013834762)
(-0.10119274 -0.097479893 -0.00015667628)
(-0.085615084 -0.095777098 -0.00016288191)
(-0.069838051 -0.090899828 -0.00015621163)
(-0.054451421 -0.083010926 -0.00013683882)
(-0.040061182 -0.072476745 -0.00010584398)
(-0.027246486 -0.059861711 -6.5100495e-05)
(-0.016507707 -0.045903613 -1.7359426e-05)
(-0.008213773 -0.031469865 3.4067848e-05)
(-0.0026743205 -0.017501843 8.9833587e-05)
(-0.0003172956 -0.0049938558 0.00014355082)
(-0.00052868057 0.011264647 2.830584e-06)
(-0.0033477388 0.030871103 6.8622576e-05)
(-0.0090880531 0.04747405 0.00011192057)
(-0.016801586 0.061164144 0.00014321951)
(-0.025956889 0.072128395 0.00016928576)
(-0.036204181 0.080594907 0.00019158272)
(-0.047236293 0.086799858 0.00021145941)
(-0.058794243 0.090963763 0.00023017624)
(-0.070664655 0.093275763 0.00024854795)
(-0.08266772 0.093885666 0.00026697435)
(-0.094646995 0.092902522 0.00028550411)
(-0.10646127 0.090398317 0.00030387639)
(-0.11797782 0.086415374 0.00032156209)
(-0.12906689 0.080976101 0.00033780834)
(-0.13959748 0.074093912 0.00035168645)
(-0.14943401 0.065784412 0.00036214534)
(-0.15843404 0.056076244 0.00036807282)
(-0.1664467 0.045021273 0.0003683663)
(-0.17331223 0.032704005 0.00036201324)
(-0.17886253 0.019250183 0.00034818042)
(-0.18292318 0.0048345359 0.00032631004)
(-0.18531738 -0.010312567 0.00029622153)
(-0.18587199 -0.025899803 0.00025819672)
(-0.18442618 -0.041572072 0.00021306436)
(-0.18084314 -0.056910854 0.00016224654)
(-0.17502465 -0.071439351 0.00010776695)
(-0.16692827 -0.084633983 5.2203565e-05)
(-0.15658627 -0.095943782 -1.4258499e-06)
(-0.14412461 -0.10481882 -4.9850964e-05)
(-0.12977948 -0.11074796 -8.9804627e-05)
(-0.11390799 -0.11330452 -0.00011832815)
(-0.096989365 -0.11219671 -0.00013309181)
(-0.079612828 -0.10731674 -0.00013268506)
(-0.062450285 -0.098781322 -0.00011681958)
(-0.04621468 -0.086954992 -8.6373262e-05)
(-0.031607745 -0.072449908 -4.3303961e-05)
(-0.019254153 -0.056099261 9.2331481e-06)
(-0.00963314 -0.038903925 6.7285569e-05)
(-0.0031578305 -0.021961652 0.00013151306)
(-0.00038078529 -0.0064355926 0.00019253935)
(-0.0005475992 0.013033167 5.8421695e-05)
(-0.0034658578 0.035479371 0.00013063941)
(-0.0094063972 0.054322967 0.00017552453)
(-0.017386396 0.069745285 0.0002081984)
(-0.026854435 0.082015889 0.00023579729)
(-0.037448153 0.09143675 0.00025994185)
(-0.048850774 0.098307143 0.0002821036)
(-0.060797323 0.10289912 0.00030363195)
(-0.073072178 0.10544207 0.00032538863)
(-0.085496591 0.10611561 0.00034778388)
(-0.097917948 0.10504935 0.00037084566)
(-0.110201 0.10232799 0.00039426365)
(-0.12222042 0.098000027 0.00041743088)
(-0.13385451 0.092088784 0.00043948656)
(-0.14498014 0.084604367 0.00045936121)
(-0.15546857 0.075555806 0.00047582695)
(-0.16518214 0.064962754 0.00048755657)
(-0.17397175 0.05286657 0.00049319377)
(-0.1816753 0.039340759 0.00049143657)
(-0.18811716 0.02450089 0.00048113405)
(-0.19310912 0.0085140064 0.00046139545)
(-0.19645328 -0.0083925665 0.00043170915)
(-0.19794729 -0.025923364 0.00039206029)
(-0.19739265 -0.043708864 0.00034304427)
(-0.19460649 -0.06130252 0.00028595527)
(-0.1894373 -0.07818257 0.0002228355)
(-0.18178453 -0.093760681 0.000156465)
(-0.17162148 -0.10739971 9.0272866e-05)
(-0.15902009 -0.11844266 2.8155693e-05)
(-0.14417482 -0.12625404 -2.5801508e-05)
(-0.1274219 -0.13027328 -6.7689672e-05)
(-0.1092488 -0.1300771 -9.4191439e-05)
(-0.090288547 -0.12544457 -0.00010299326)
(-0.071294716 -0.11641496 -9.3115305e-05)
(-0.05309644 -0.10332683 -6.5055472e-05)
(-0.036536437 -0.086827869 -2.0760116e-05)
(-0.022388441 -0.067848917 3.6204495e-05)
(-0.011268763 -0.047540429 0.00010114849)
(-0.0037218443 -0.02718272 0.00017471923)
(-0.00045691199 -0.0081393811 0.00024441542)
(-0.00055984485 0.014853262 0.00012669964)
(-0.003545338 0.040221774 0.00020559752)
(-0.0096248087 0.061370775 0.00025170107)
(-0.017792804 0.078574525 0.00028558462)
(-0.027484128 0.092187639 0.00031467909)
(-0.03832716 0.10258895 0.00034075096)
(-0.049997929 0.11014417 0.00036538611)
(-0.062227202 0.11518036 0.00039001673)
(-0.074798408 0.11797048 0.0004155502)
(-0.087535021 0.11872694 0.00044240976)
(-0.10028947 0.11760246 0.00047060752)
(-0.11293389 0.11469632 0.00049978971)
(-0.12535206 0.11006442 0.00052927713)
(-0.13743243 0.10373138 0.00055810493)
(-0.14906227 0.095703595 0.00058506301)
(-0.16012262 0.085982163 0.0006087412)
(-0.17048407 0.074575414 0.00062758351)
(-0.18000324 0.061510787 0.00063995574)
(-0.18852004 0.046846254 0.00064422921)
(-0.19585596 0.030681469 0.00063888295)
(-0.20181373 0.013168864 0.00062262435)
(-0.20617875 -0.0054753482 0.00059452662)
(-0.20872309 -0.024960523 0.000554177)
(-0.20921262 -0.044912155 0.00050182601)
(-0.20741816 -0.064864849 0.00043852448)
(-0.20313138 -0.084259649 0.00036622575)
(-0.19618605 -0.1024483 0.0002878285)
(-0.18648428 -0.11870744 0.00020713256)
(-0.17402711 -0.13226602 0.00012868164)
(-0.15894668 -0.14234852 5.747603e-05)
(-0.14153584 -0.14823508 -1.4441952e-06)
(-0.12226912 -0.14933666 -4.3517964e-05)
(-0.10180729 -0.14527869 -6.5223766e-05)
(-0.080978724 -0.13598181 -6.4580565e-05)
(-0.060733908 -0.12172371 -4.144386e-05)
(-0.042074317 -0.1031659 2.419062e-06)
(-0.02595048 -0.081333239 6.3065572e-05)
(-0.013148242 -0.057540537 0.00013497859)
(-0.0043785979 -0.033279403 0.00021877079)
(-0.0005480836 -0.010149842 0.00029871532)
(-0.00056512292 0.016704135 0.00020793523)
(-0.0035848224 0.045047812 0.00029377268)
(-0.0097399827 0.068546099 0.0003407187)
(-0.018014596 0.087565899 0.00037563797)
(-0.027835516 0.10254742 0.00040617489)
(-0.038824727 0.11394789 0.00043422901)
(-0.050653065 0.12220187 0.00046149349)
(-0.063048417 0.1276943 0.00048947968)
(-0.075794274 0.13074479 0.00051914305)
(-0.08871724 0.13160155 0.00055092678)
(-0.1016758 0.13044302 0.00058483685)
(-0.11455071 0.12738526 0.00062048705)
(-0.12723646 0.12249312 0.00065713687)
(-0.13963366 0.11579342 0.00069372647)
(-0.15164252 0.10728888 0.00072891077)
(-0.16315701 0.096971896 0.00076109733)
(-0.17405977 0.084837728 0.00078849365)
(-0.18421763 0.070897083 0.00080916916)
(-0.19347778 0.055188374 0.00082113662)
(-0.20166471 0.037789983 0.0008224566)
(-0.20857841 0.018832874 0.00081136721)
(-0.21399413 -0.0014862891 0.0007864388)
(-0.21766445 -0.022891663 0.00074675177)
(-0.2193246 -0.045015032 0.00069208382)
(-0.21870194 -0.067384149 0.00062310117)
(-0.21553096 -0.089414504 0.00054152428)
(-0.20957471 -0.11040752 0.00045024071)
(-0.20065357 -0.12955895 0.00035332806)
(-0.1886808 -0.14598189 0.00025594743)
(-0.17370326 -0.15874899 0.00016407307)
(-0.15594313 -0.16695711 8.4040857e-05)
(-0.13583341 -0.16981459 2.1928713e-05)
(-0.11403768 -0.16674578 -1.7173806e-05)
(-0.091443305 -0.15750014 -2.9885626e-05)
(-0.06912048 -0.14224565 -1.5050007e-05)
(-0.04824434 -0.1216226 2.6013398e-05)
(-0.029971805 -0.096736571 8.908869e-05)
(-0.015296622 -0.069077569 0.00016776398)
(-0.0051401278 -0.040378989 0.00026259527)
(-0.00065685516 -0.01251807 0.00035458757)
(-0.00056338824 0.018564534 0.00030217321)
(-0.0035843185 0.049906098 0.00039522088)
(-0.0097519594 0.075776048 0.00044263424)
(-0.018051163 0.096630828 0.00047840285)
(-0.027905938 0.11299474 0.00051029957)
(-0.038934098 0.12540357 0.00054034375)
(-0.050802753 0.1343622 0.00057033082)
(-0.063237894 0.14031586 0.0006018515)
(-0.076023792 0.14363373 0.00063591654)
(-0.088990873 0.1446028 0.00067300106)
(-0.10200451 0.14343009 0.00071311978)
(-0.11495518 0.1402509 0.00075587031)
(-0.12774955 0.13514102 0.000800467)
(-0.14030233 0.12813081 0.0008457697)
(-0.15252914 0.11922004 0.00089030982)
(-0.16434008 0.10839231 0.00093231915)
(-0.17563382 0.095628828 0.00096976797)