/*--------------------------------*- C++ -*----------------------------------*\
  =========                 |
  \\      /  F ield         | OpenFOAM: The Open Source CFD Toolbox
   \\    /   O peration     | Website:  https://openfoam.org
    \\  /    A nd           | Version:  7
     \\/     M anipulation  |
\*---------------------------------------------------------------------------*/
FoamFile
{
    version     2.0;
    format      ascii;
    class       volScalarField;
    location    "7.7";
    object      rho;
}
// * * * * * * * * * * * * * * * * * * * * * * * * * * * * * * * * * * * * * //

dimensions      [1 -3 0 0 0 0 0];

internalField   nonuniform List<scalar> 
19968
(
1.40001
1.40001
1.40001
1.40001
1.40001
1.40001
1.40001
1.40001
1.40001
1.40001
1.40001
1.40001
1.40001
1.40001
1.40001
1.40001
1.40001
1.40001
1.40001
1.40001
1.40001
1.40001
1.40001
1.40001
1.40001
1.40001
1.40001
1.40001
1.40001
1.40001
1.40001
1.40001
1.40001
1.40001
1.40001
1.40001
1.40001
1.40001
1.40001
1.40001
1.40001
1.40001
1.40001
1.40001
1.40001
1.40001
1.40001
1.40001
1.71883
4.59342
5.415
5.43769
5.46422
5.48701
5.50732
5.52489
5.54202
5.56095
5.58203
5.60383
5.62481
5.64389
5.66105
5.67701
5.69321
5.71132
5.73125
5.75077
5.76769
5.78145
5.79323
5.80504
5.81857
5.83405
5.85023
5.86544
5.87876
5.8904
5.90122
5.91212
5.92338
5.93458
5.94487
5.95356
5.96055
5.96629
5.97158
5.97713
5.9833
5.98996
5.99666
6.00287
6.00812
6.01205
6.01464
6.01647
1.40001
1.40001
1.40001
1.40001
1.40001
1.40001
1.40001
1.40001
1.40001
1.40001
1.40001
1.40001
1.40001
1.40001
1.40001
1.40001
1.40001
1.40001
1.40001
1.40001
1.40001
1.40001
1.40001
1.40001
1.40001
1.40001
1.40001
1.40001
1.40001
1.40001
1.40001
1.40001
1.40001
1.40001
1.40001
1.40001
1.40001
1.40001
1.40001
1.40001
1.40001
1.40001
1.40001
1.40001
1.40001
1.40001
1.40001
1.40001
1.70138
4.56777
5.41175
5.43625
5.46386
5.48626
5.50643
5.5242
5.54138
5.56023
5.58127
5.60304
5.62399
5.64291
5.6599
5.67578
5.69203
5.7102
5.73007
5.74947
5.76634
5.78015
5.79202
5.80393
5.81749
5.83291
5.84896
5.86401
5.87719
5.88872
5.89951
5.9104
5.92169
5.93291
5.94319
5.95182
5.95871
5.96436
5.96961
5.9752
5.98145
5.98817
5.99485
6.00087
6.0058
6.00938
6.01168
6.01327
1.40001
1.40001
1.40001
1.40001
1.40001
1.40001
1.40001
1.40001
1.40001
1.40001
1.40001
1.40001
1.40001
1.40001
1.40001
1.40001
1.40001
1.40001
1.40001
1.40001
1.40001
1.40001
1.40001
1.40001
1.40001
1.40001
1.40001
1.40001
1.40001
1.40001
1.40001
1.40001
1.40001
1.40001
1.40001
1.40001
1.40001
1.40001
1.40001
1.40001
1.40001
1.40001
1.40001
1.40001
1.40001
1.40001
1.40001
1.40001
1.66257
4.51383
5.41181
5.43339
5.46077
5.48244
5.50265
5.52103
5.53885
5.55827
5.57957
5.60114
5.62174
5.64023
5.65691
5.67281
5.68926
5.7076
5.72743
5.74673
5.76355
5.77744
5.78946
5.80147
5.81504
5.83036
5.84625
5.86114
5.8742
5.88566
5.8964
5.90727
5.91853
5.9297
5.9399
5.94843
5.95524
5.96089
5.96626
5.97208
5.97858
5.98549
5.99213
5.99786
6.00232
6.00542
6.00736
6.00864
1.40001
1.40001
1.40001
1.40001
1.40001
1.40001
1.40001
1.40001
1.40001
1.40001
1.40001
1.40001
1.40001
1.40001
1.40001
1.40001
1.40001
1.40001
1.40001
1.40001
1.40001
1.40001
1.40001
1.40001
1.40001
1.40001
1.40001
1.40001
1.40001
1.40001
1.40001
1.40001
1.40001
1.40001
1.40001
1.40001
1.40001
1.40001
1.40001
1.40001
1.40001
1.40001
1.40001
1.40001
1.40001
1.40001
1.40001
1.40001
1.60743
4.42476
5.41188
5.43071
5.45612
5.47694
5.4973
5.51659
5.53554
5.5558
5.57732
5.59848
5.61845
5.63639
5.6528
5.66887
5.68564
5.70417
5.72384
5.74283
5.75945
5.77336
5.78554
5.79771
5.81131
5.82651
5.84217
5.85684
5.86975
5.88115
5.89187
5.9027
5.91386
5.92485
5.93481
5.94309
5.94969
5.95524
5.96065
5.96664
5.9734
5.9805
5.98715
5.9926
5.99657
5.99913
6.00066
6.00159
1.40001
1.40001
1.40001
1.40001
1.40001
1.40001
1.40001
1.40001
1.40001
1.40001
1.40001
1.40001
1.40001
1.40001
1.40001
1.40001
1.40001
1.40001
1.40001
1.40001
1.40001
1.40001
1.40001
1.40001
1.40001
1.40001
1.40001
1.40001
1.40001
1.40001
1.40001
1.40001
1.40001
1.40001
1.40001
1.40001
1.40001
1.40001
1.40001
1.40001
1.40001
1.40001
1.40001
1.40001
1.40001
1.40001
1.40001
1.40001
1.5366
4.30359
5.41508
5.42756
5.45137
5.47154
5.49213
5.51216
5.53192
5.55241
5.57347
5.59373
5.61299
5.6307
5.64725
5.66384
5.68115
5.6999
5.71927
5.73773
5.75399
5.76791
5.78039
5.79287
5.80655
5.82158
5.83696
5.8514
5.86422
5.87565
5.88645
5.8973
5.90835
5.91913
5.92883
5.93687
5.94333
5.94882
5.95424
5.96027
5.96705
5.97402
5.98026
5.98498
5.988
5.9896
5.99037
5.99071
1.40001
1.40001
1.40001
1.40001
1.40001
1.40001
1.40001
1.40001
1.40001
1.40001
1.40001
1.40001
1.40001
1.40001
1.40001
1.40001
1.40001
1.40001
1.40001
1.40001
1.40001
1.40001
1.40001
1.40001
1.40001
1.40001
1.40001
1.40001
1.40001
1.40001
1.40001
1.40001
1.40001
1.40001
1.40001
1.40001
1.40001
1.40001
1.40001
1.40001
1.40001
1.40001
1.40001
1.40001
1.40001
1.40001
1.40001
1.40001
1.41767
4.10962
5.42095
5.42793
5.44622
5.46659
5.48776
5.50887
5.52961
5.55012
5.57013
5.58894
5.60717
5.62473
5.64153
5.65889
5.67679
5.69555
5.7141
5.73136
5.74665
5.76022
5.77285
5.78554
5.7991
5.81365
5.82839
5.84226
5.85474
5.86606
5.87686
5.88769
5.89861
5.90914
5.91856
5.92642
5.93283
5.93844
5.94409
5.95045
5.95757
5.96481
5.97107
5.97545
5.9778
5.97867
5.97877
5.97859
1.40001
1.40001
1.40001
1.40001
1.40001
1.40001
1.40001
1.40001
1.40001
1.40001
1.40001
1.40001
1.40001
1.40001
1.40001
1.40001
1.40001
1.40001
1.40001
1.40001
1.40001
1.40001
1.40001
1.40001
1.40001
1.40001
1.40001
1.40001
1.40001
1.40001
1.40001
1.40001
1.40001
1.40001
1.40001
1.40001
1.40001
1.40001
1.40001
1.40001
1.40001
1.40001
1.40001
1.40001
1.40001
1.40001
1.40001
1.40001
1.40017
3.80845
5.38302
5.41072
5.42811
5.4514
5.47363
5.49556
5.51683
5.53736
5.55693
5.57527
5.59324
5.6111
5.62846
5.64652
5.66485
5.68341
5.70111
5.71725
5.73181
5.74535
5.75855
5.77188
5.78572
5.80007
5.81432
5.82774
5.84001
5.85139
5.86243
5.87349
5.88455
5.89506
5.90436
5.9121
5.91846
5.92414
5.92997
5.93657
5.94395
5.95133
5.95753
5.96153
5.96326
5.9635
5.96298
5.9624
1.40001
1.40001
1.40001
1.40001
1.40001
1.40001
1.40001
1.40001
1.40001
1.40001
1.40001
1.40001
1.40001
1.40001
1.40001
1.40001
1.40001
1.40001
1.40001
1.40001
1.40001
1.40001
1.40001
1.40001
1.40001
1.40001
1.40001
1.40001
1.40001
1.40001
1.40001
1.40001
1.40001
1.40001
1.40001
1.40001
1.40001
1.40001
1.40001
1.40001
1.40001
1.40001
1.40001
1.40001
1.40001
1.40001
1.40001
1.40001
1.40001
3.40478
5.32867
5.40281
5.42095
5.44704
5.46883
5.48963
5.50969
5.5293
5.54839
5.56669
5.58463
5.60272
5.62038
5.63836
5.65621
5.6738
5.69017
5.70489
5.71851
5.73176
5.74519
5.7588
5.77257
5.7864
5.79985
5.81244
5.8241
5.83516
5.84612
5.85725
5.86836
5.87884
5.888
5.89551
5.90165
5.90715
5.91289
5.91946
5.92685
5.93418
5.94022
5.94391
5.94518
5.94499
5.94398
5.94318
1.40001
1.40001
1.40001
1.40001
1.40001
1.40001
1.40001
1.40001
1.40001
1.40001
1.40001
1.40001
1.40001
1.40001
1.40001
1.40001
1.40001
1.40001
1.40001
1.40001
1.40001
1.40001
1.40001
1.40001
1.40001
1.40001
1.40001
1.40001
1.40001
1.40001
1.40001
1.40001
1.40001
1.40001
1.40001
1.40001
1.40001
1.40001
1.40001
1.40001
1.40001
1.40001
1.40001
1.40001
1.40001
1.40001
1.40001
1.40001
1.40001
2.92661
5.23376
5.39949
5.41683
5.4431
5.46416
5.48418
5.50311
5.5217
5.5402
5.55848
5.57635
5.59432
5.61182
5.62902
5.6457
5.66169
5.67636
5.68945
5.70192
5.71455
5.72773
5.74115
5.75452
5.76768
5.78026
5.79194
5.80281
5.81334
5.82405
5.83517
5.84636
5.85681
5.86573
5.87288
5.87865
5.88389
5.8895
5.89604
5.90339
5.91065
5.91662
5.92029
5.92151
5.92135
5.92024
5.91954
1.40001
1.40001
1.40001
1.40001
1.40001
1.40001
1.40001
1.40001
1.40001
1.40001
1.40001
1.40001
1.40001
1.40001
1.40001
1.40001
1.40001
1.40001
1.40001
1.40001
1.40001
1.40001
1.40001
1.40001
1.40001
1.40001
1.40001
1.40001
1.40001
1.40001
1.40001
1.40001
1.40001
1.40001
1.40001
1.40001
1.40001
1.40001
1.40001
1.40001
1.40001
1.40001
1.40001
1.40001
1.40001
1.40001
1.40001
1.40001
1.40001
2.394
5.05335
5.40204
5.42331
5.44671
5.46627
5.48448
5.50121
5.51768
5.53442
5.55177
5.56917
5.58661
5.6036
5.6198
5.63513
5.6495
5.66265
5.67434
5.68571
5.69752
5.70997
5.7227
5.7351
5.74706
5.75823
5.76843
5.77785
5.78717
5.79707
5.80777
5.81876
5.82903
5.83768
5.8445
5.85
5.85509
5.86056
5.86682
5.87365
5.88024
5.88562
5.88903
5.89027
5.89033
5.88938
5.88899
1.40001
1.40001
1.40001
1.40001
1.40001
1.40001
1.40001
1.40001
1.40001
1.40001
1.40001
1.40001
1.40001
1.40001
1.40001
1.40001
1.40001
1.40001
1.40001
1.40001
1.40001
1.40001
1.40001
1.40001
1.40001
1.40001
1.40001
1.40001
1.40001
1.40001
1.40001
1.40001
1.40001
1.40001
1.40001
1.40001
1.40001
1.40001
1.40001
1.40001
1.40001
1.40001
1.40001
1.40001
1.40001
1.40001
1.40001
1.40001
1.40001
1.8723
4.73453
5.42071
5.41514
5.43664
5.4542
5.47257
5.4899
5.50668
5.52306
5.53981
5.55688
5.57386
5.59074
5.60679
5.62152
5.63485
5.64706
5.65797
5.66864
5.6798
5.69144
5.70351
5.71511
5.72602
5.7358
5.74436
5.75203
5.75962
5.76796
5.77726
5.7869
5.79576
5.80298
5.80848
5.81291
5.81718
5.82195
5.82745
5.83342
5.83922
5.84416
5.84769
5.8496
5.85046
5.8501
5.85042
1.40001
1.40001
1.40001
1.40001
1.40001
1.40001
1.40001
1.40001
1.40001
1.40001
1.40001
1.40001
1.40001
1.40001
1.40001
1.40001
1.40001
1.40001
1.40001
1.40001
1.40001
1.40001
1.40001
1.40001
1.40001
1.40001
1.40001
1.40001
1.40001
1.40001
1.40001
1.40001
1.40001
1.40001
1.40001
1.40001
1.40001
1.40001
1.40001
1.40001
1.40001
1.40001
1.40001
1.40001
1.40001
1.40001
1.40001
1.40001
1.40001
1.42381
4.09436
5.41218
5.41963
5.4353
5.4509
5.46747
5.4837
5.49923
5.51415
5.52904
5.54445
5.55955
5.57467
5.58941
5.603
5.61522
5.62644
5.63628
5.64558
5.65545
5.66576
5.67674
5.68732
5.69711
5.70561
5.71271
5.71879
5.7247
5.73134
5.73898
5.74705
5.75452
5.76064
5.76545
5.76956
5.77364
5.77791
5.78228
5.78633
5.78971
5.79215
5.79356
5.79406
5.7942
5.79365
5.79406
1.40001
1.40001
1.40001
1.40001
1.40001
1.40001
1.40001
1.40001
1.40001
1.40001
1.40001
1.40001
1.40001
1.40001
1.40001
1.40001
1.40001
1.40001
1.40001
1.40001
1.40001
1.40001
1.40001
1.40001
1.40001
1.40001
1.40001
1.40001
1.40001
1.40001
1.40001
1.40001
1.40001
1.40001
1.40001
1.40001
1.40001
1.40001
1.40001
1.40001
1.40001
1.40001
1.40001
1.40001
1.40001
1.40001
1.40001
1.40001
1.40001
1.40005
3.2096
5.25117
5.36266
5.38856
5.41151
5.43134
5.44967
5.46639
5.48157
5.49563
5.5099
5.52438
5.5389
5.55362
5.56766
5.57999
5.59109
5.60087
5.60965
5.61895
5.62889
5.63932
5.64946
5.65851
5.66606
5.67199
5.67676
5.6811
5.68572
5.69097
5.69647
5.70149
5.70546
5.70846
5.71086
5.71293
5.71463
5.71564
5.71597
5.71625
5.71675
5.71781
5.71891
5.72024
5.72069
5.72185
1.40001
1.40001
1.40001
1.40001
1.40001
1.40001
1.40001
1.40001
1.40001
1.40001
1.40001
1.40001
1.40001
1.40001
1.40001
1.40001
1.40001
1.40001
1.40001
1.40001
1.40001
1.40001
1.40001
1.40001
1.40001
1.40001
1.40001
1.40001
1.40001
1.40001
1.40001
1.40001
1.40001
1.40001
1.40001
1.40001
1.40001
1.40001
1.40001
1.40001
1.40001
1.40001
1.40001
1.40001
1.40001
1.40001
1.40001
1.40001
1.40001
1.4
2.17703
4.90083
5.36421
5.37733
5.40247
5.42166
5.43841
5.45313
5.46633
5.47831
5.49037
5.5032
5.51629
5.52969
5.54282
5.55421
5.56395
5.57246
5.57977
5.58722
5.59554
5.60407
5.61237
5.61941
5.6249
5.62879
5.63142
5.63343
5.63511
5.63675
5.63843
5.63993
5.64091
5.64157
5.64201
5.64224
5.64165
5.63977
5.63707
5.63389
5.63004
5.62573
5.61974
5.61278
5.60524
5.59868
1.40001
1.40001
1.40001
1.40001
1.40001
1.40001
1.40001
1.40001
1.40001
1.40001
1.40001
1.40001
1.40001
1.40001
1.40001
1.40001
1.40001
1.40001
1.40001
1.40001
1.40001
1.40001
1.40001
1.40001
1.40001
1.40001
1.40001
1.40001
1.40001
1.40001
1.40001
1.40001
1.40001
1.40001
1.40001
1.40001
1.40001
1.40001
1.40001
1.40001
1.40001
1.40001
1.40001
1.40001
1.40001
1.40001
1.40001
1.40001
1.40001
1.40001
1.44331
3.98426
5.38797
5.39574
5.40559
5.41692
5.42717
5.43664
5.44555
5.45432
5.46353
5.47421
5.48561
5.49703
5.50827
5.51827
5.52648
5.53345
5.53922
5.54446
5.55045
5.5568
5.56271
5.56734
5.57036
5.5719
5.57245
5.57223
5.57098
5.56908
5.56652
5.56348
5.56002
5.55627
5.55186
5.54587
5.53746
5.52626
5.51218
5.4957
5.47775
5.4596
5.44434
5.43133
5.42525
5.42209
1.40001
1.40001
1.40001
1.40001
1.40001
1.40001
1.40001
1.40001
1.40001
1.40001
1.40001
1.40001
1.40001
1.40001
1.40001
1.40001
1.40001
1.40001
1.40001
1.40001
1.40001
1.40001
1.40001
1.40001
1.40001
1.40001
1.40001
1.40001
1.40001
1.40001
1.40001
1.40001
1.40001
1.40001
1.40001
1.40001
1.40001
1.40001
1.40001
1.40001
1.40001
1.40001
1.40001
1.40001
1.40001
1.40001
1.40001
1.40001
1.40001
1.40001
1.40006
2.63054
5.08387
5.34026
5.35702
5.37483
5.38887
5.40106
5.41164
5.42094
5.42953
5.43848
5.44823
5.45848
5.46887
5.47838
5.48593
5.49156
5.49564
5.49859
5.50146
5.50489
5.50793
5.50966
5.50976
5.50804
5.50494
5.50104
5.49636
5.49026
5.48298
5.47452
5.46468
5.45343
5.44057
5.42545
5.40744
5.38629
5.36222
5.33617
5.30906
5.28131
5.24601
5.20584
5.14949
5.16785
1.40001
1.40001
1.40001
1.40001
1.40001
1.40001
1.40001
1.40001
1.40001
1.40001
1.40001
1.40001
1.40001
1.40001
1.40001
1.40001
1.40001
1.40001
1.40001
1.40001
1.40001
1.40001
1.40001
1.40001
1.40001
1.40001
1.40001
1.40001
1.40001
1.40001
1.40001
1.40001
1.40001
1.40001
1.40001
1.40001
1.40001
1.40001
1.40001
1.40001
1.40001
1.40001
1.40001
1.40001
1.40001
1.40001
1.40001
1.40001
1.40001
1.40001
1.40001
1.56734
4.39506
5.36018
5.35658
5.36439
5.3742
5.3845
5.39416
5.40193
5.40797
5.41357
5.42012
5.42772
5.43557
5.44284
5.44867
5.45264
5.45492
5.45558
5.45522
5.45513
5.4551
5.45438
5.4519
5.44679
5.4396
5.43149
5.4226
5.41244
5.4007
5.38699
5.37061
5.35108
5.32819
5.30166
5.27049
5.23376
5.18883
5.13386
5.0615
4.96475
4.81656
4.58822
4.17995
3.27437
1.40001
1.40001
1.40001
1.40001
1.40001
1.40001
1.40001
1.40001
1.40001
1.40001
1.40001
1.40001
1.40001
1.40001
1.40001
1.40001
1.40001
1.40001
1.40001
1.40001
1.40001
1.40001
1.40001
1.40001
1.40001
1.40001
1.40001
1.40001
1.40001
1.40001
1.40001
1.40001
1.40001
1.40001
1.40001
1.40001
1.40001
1.40001
1.40001
1.40001
1.40001
1.40001
1.40001
1.40001
1.40001
1.40001
1.40001
1.40001
1.40001
1.40001
1.4
1.40149
3.24158
5.16986
5.30979
5.32807
5.34555
5.36
5.37198
5.3791
5.38272
5.38536
5.38912
5.39441
5.40037
5.4061
5.41093
5.41427
5.41578
5.41526
5.41291
5.40984
5.40695
5.40396
5.3994
5.39221
5.38245
5.37078
5.3577
5.34312
5.32673
5.30795
5.28567
5.25886
5.22665
5.18914
5.14434
5.09208
5.02656
4.94621
4.83747
4.69547
4.48731
4.21747
3.67312
2.91932
1.40001
1.40001
1.40001
1.40001
1.40001
1.40001
1.40001
1.40001
1.40001
1.40001
1.40001
1.40001
1.40001
1.40001
1.40001
1.40001
1.40001
1.40001
1.40001
1.40001
1.40001
1.40001
1.40001
1.40001
1.40001
1.40001
1.40001
1.40001
1.40001
1.40001
1.40001
1.40001
1.40001
1.40001
1.40001
1.40001
1.40001
1.40001
1.40001
1.40001
1.40001
1.40001
1.40001
1.40001
1.40001
1.40001
1.40001
1.40001
1.40001
1.40001
1.40001
1.4
1.96678
4.72848
5.32377
5.3186
5.33634
5.35054
5.36139
5.36575
5.36725
5.36852
5.37051
5.37343
5.37656
5.37918
5.38108
5.38204
5.38157
5.37927
5.37485
5.36864
5.36194
5.3552
5.3471
5.33718
5.32484
5.30994
5.2927
5.27344
5.25171
5.22698
5.1979
5.16367
5.12256
5.07501
5.01785
4.95127
4.86917
4.76838
4.63853
4.46863
4.25131
3.93238
3.49226
2.95695
1.40001
1.40001
1.40001
1.40001
1.40001
1.40001
1.40001
1.40001
1.40001
1.40001
1.40001
1.40001
1.40001
1.40001
1.40001
1.40001
1.40001
1.40001
1.40001
1.40001
1.40001
1.40001
1.40001
1.40001
1.40001
1.40001
1.40001
1.40001
1.40001
1.40001
1.40001
1.40001
1.40001
1.40001
1.40001
1.40001
1.40001
1.40001
1.40001
1.40001
1.40001
1.40001
1.40001
1.40001
1.40001
1.40001
1.40001
1.40001
1.40001
1.40001
1.40001
1.4
1.4253
3.56395
5.23758
5.30776
5.32375
5.33332
5.3381
5.33936
5.34154
5.34537
5.34857
5.35085
5.35205
5.3521
5.35084
5.34863
5.34534
5.34076
5.33451
5.32616
5.31642
5.30564
5.29353
5.28
5.26444
5.24655
5.22595
5.20292
5.17644
5.14613
5.11031
5.06894
5.02003
4.96396
4.89765
4.81998
4.72697
4.61376
4.47455
4.29755
4.07806
3.79651
3.46554
3.07234
1.40001
1.40001
1.40001
1.40001
1.40001
1.40001
1.40001
1.40001
1.40001
1.40001
1.40001
1.40001
1.40001
1.40001
1.40001
1.40001
1.40001
1.40001
1.40001
1.40001
1.40001
1.40001
1.40001
1.40001
1.40001
1.40001
1.40001
1.40001
1.40001
1.40001
1.40001
1.40001
1.40001
1.40001
1.40001
1.40001
1.40001
1.40001
1.40001
1.40001
1.40001
1.40001
1.40001
1.40001
1.40001
1.40001
1.40001
1.40001
1.40001
1.40001
1.40001
1.40001
1.4
2.08823
4.81649
5.33142
5.31111
5.3171
5.31831
5.31824
5.31941
5.32355
5.32734
5.32957
5.32998
5.3278
5.32345
5.31726
5.3101
5.30236
5.29394
5.28412
5.27253
5.25866
5.24282
5.22527
5.20558
5.18403
5.15997
5.13353
5.10303
5.06796
5.02641
4.97875
4.92357
4.86093
4.78873
4.70493
4.60679
4.4893
4.35031
4.1775
3.97536
3.7387
3.48056
3.17686
1.40001
1.40001
1.40001
1.40001
1.40001
1.40001
1.40001
1.40001
1.40001
1.40001
1.40001
1.40001
1.40001
1.40001
1.40001
1.40001
1.40001
1.40001
1.40001
1.40001
1.40001
1.40001
1.40001
1.40001
1.40001
1.40001
1.40001
1.40001
1.40001
1.40001
1.40001
1.40001
1.40001
1.40001
1.40001
1.40001
1.40001
1.40001
1.40001
1.40001
1.40001
1.40001
1.40001
1.40001
1.40001
1.40001
1.40001
1.40001
1.40001
1.40001
1.40001
1.40001
1.4
1.43368
3.59313
5.25289
5.28133
5.29131
5.29264
5.2938
5.29622
5.30088
5.30516
5.30721
5.30644
5.30304
5.29668
5.28735
5.27682
5.26591
5.25441
5.24217
5.22841
5.21231
5.19368
5.17273
5.14923
5.12406
5.09661
5.06685
5.03267
4.9933
4.94714
4.89472
4.83517
4.76814
4.69239
4.60605
4.50711
4.39163
4.25758
4.09918
3.91935
3.72029
3.50804
3.26083
1.40001
1.40001
1.40001
1.40001
1.40001
1.40001
1.40001
1.40001
1.40001
1.40001
1.40001
1.40001
1.40001
1.40001
1.40001
1.40001
1.40001
1.40001
1.40001
1.40001
1.40001
1.40001
1.40001
1.40001
1.40001
1.40001
1.40001
1.40001
1.40001
1.40001
1.40001
1.40001
1.40001
1.40001
1.40001
1.40001
1.40001
1.40001
1.40001
1.40001
1.40001
1.40001
1.40001
1.40001
1.40001
1.40001
1.40001
1.40001
1.40001
1.40001
1.40001
1.40001
1.40001
1.40003
2.0109
4.75835
5.29689
5.27686
5.274
5.27016
5.26963
5.27204
5.27528
5.27743
5.27623
5.27257
5.26539
5.25353
5.24095
5.2286
5.21477
5.20029
5.18419
5.16618
5.14539
5.12165
5.09501
5.06681
5.03672
5.00432
4.96713
4.92401
4.87409
4.81818
4.75595
4.68668
4.6096
4.52317
4.42716
4.3161
4.19049
4.05012
3.89222
3.71778
3.53814
3.33387
1.40001
1.40001
1.40001
1.40001
1.40001
1.40001
1.40001
1.40001
1.40001
1.40001
1.40001
1.40001
1.40001
1.40001
1.40001
1.40001
1.40001
1.40001
1.40001
1.40001
1.40001
1.40001
1.40001
1.40001
1.40001
1.40001
1.40001
1.40001
1.40001
1.40001
1.40001
1.40001
1.40001
1.40001
1.40001
1.40001
1.40001
1.40001
1.40001
1.40001
1.40001
1.40001
1.40001
1.40001
1.40001
1.40001
1.40001
1.40001
1.40001
1.40001
1.40001
1.40001
1.40001
1.40001
1.42435
3.35104
5.16073
5.24775
5.24512
5.24349
5.24676
5.25023
5.25261
5.25352
5.25084
5.2459
5.2373
5.22361
5.20965
5.19575
5.17997
5.16347
5.14452
5.12383
5.10039
5.07393
5.04459
5.01396
4.98196
4.94757
4.90809
4.86214
4.80934
4.75086
4.68699
4.61694
4.5402
4.45505
4.36388
4.25687
4.1419
4.01731
3.87779
3.72366
3.57118
3.3975
1.40001
1.40001
1.40001
1.40001
1.40001
1.40001
1.40001
1.40001
1.40001
1.40001
1.40001
1.40001
1.40001
1.40001
1.40001
1.40001
1.40001
1.40001
1.40001
1.40001
1.40001
1.40001
1.40001
1.40001
1.40001
1.40001
1.40001
1.40001
1.40001
1.40001
1.40001
1.40001
1.40001
1.40001
1.40001
1.40001
1.40001
1.40001
1.40001
1.40001
1.40001
1.40001
1.40001
1.40001
1.40001
1.40001
1.40001
1.40001
1.40001
1.40001
1.40001
1.40001
1.40001
1.40001
1.40002
1.7358
4.53365
5.28324
5.25542
5.2415
5.23155
5.2277
5.22534
5.22237
5.21706
5.20997
5.19993
5.18577
5.17149
5.15725
5.14111
5.12432
5.10419
5.08207
5.05695
5.02871
4.99746
4.96481
4.93089
4.89473
4.85389
4.80677
4.75279
4.69292
4.6281
4.55792
4.48291
4.39981
4.31309
4.21208
4.10715
3.99377
3.87161
3.73603
3.60126
3.45043
1.40001
1.40001
1.40001
1.40001
1.40001
1.40001
1.40001
1.40001
1.40001
1.40001
1.40001
1.40001
1.40001
1.40001
1.40001
1.40001
1.40001
1.40001
1.40001
1.40001
1.40001
1.40001
1.40001
1.40001
1.40001
1.40001
1.40001
1.40001
1.40001
1.40001
1.40001
1.40001
1.40001
1.40001
1.40001
1.40001
1.40001
1.40001
1.40001
1.40001
1.40001
1.40001
1.40001
1.40001
1.40001
1.40001
1.40001
1.40001
1.40001
1.40001
1.40001
1.40001
1.40001
1.40001
1.40001
1.40611
2.92634
5.0336
5.19209
5.19862
5.20008
5.19622
5.19117
5.18602
5.17989
5.17183
5.16145
5.1471
5.13254
5.11773
5.10138
5.08463
5.06449
5.04195
5.01583
4.98641
4.95394
4.91982
4.88383
4.84556
4.80367
4.75665
4.70354
4.6442
4.57977
4.5099
4.43716
4.35539
4.27246
4.17912
4.08158
3.97687
3.86971
3.74958
3.62666
3.49617
1.40001
1.40001
1.40001
1.40001
1.40001
1.40001
1.40001
1.40001
1.40001
1.40001
1.40001
1.40001
1.40001
1.40001
1.40001
1.40001
1.40001
1.40001
1.40001
1.40001
1.40001
1.40001
1.40001
1.40001
1.40001
1.40001
1.40001
1.40001
1.40001
1.40001
1.40001
1.40001
1.40001
1.40001
1.40001
1.40001
1.40001
1.40001
1.40001
1.40001
1.40001
1.40001
1.40001
1.40001
1.40001
1.40001
1.40001
1.40001
1.40001
1.40001
1.40001
1.40001
1.40001
1.40001
1.40001
1.40001
1.54993
3.98306
5.17982
5.18968
5.18116
5.1737
5.16802
5.16138
5.15347
5.14288
5.13056
5.11419
5.09766
5.08137
5.06431
5.04697
5.02697
5.00419
4.97826
4.94825
4.9148
4.87933
4.84105
4.801
4.75799
4.71119
4.65998
4.60266
4.53995
4.47106
4.40048
4.32033
4.24097
4.15456
4.06293
3.96682
3.87004
3.76026
3.64796
3.53516
1.40001
1.40001
1.40001
1.40001
1.40001
1.40001
1.40001
1.40001
1.40001
1.40001
1.40001
1.40001
1.40001
1.40001
1.40001
1.40001
1.40001
1.40001
1.40001
1.40001
1.40001
1.40001
1.40001
1.40001
1.40001
1.40001
1.40001
1.40001
1.40001
1.40001
1.40001
1.40001
1.40001
1.40001
1.40001
1.40001
1.40001
1.40001
1.40001
1.40001
1.40001
1.40001
1.40001
1.40001
1.40001
1.40001
1.40001
1.40001
1.40001
1.40001
1.40001
1.40001
1.40001
1.40001
1.40001
1.40001
1.40109
2.11464
4.75492
5.17784
5.15447
5.15329
5.14739
5.13924
5.12932
5.11627
5.1016
5.08437
5.06641
5.04873
5.03042
5.01158
4.991
4.96756
4.94186
4.9117
4.87704
4.84018
4.80163
4.75973
4.71631
4.6696
4.62007
4.56545
4.50676
4.43952
4.3709
4.2945
4.21799
4.13641
4.05108
3.96204
3.87043
3.77037
3.66943
3.56835
1.40001
1.40001
1.40001
1.40001
1.40001
1.40001
1.40001
1.40001
1.40001
1.40001
1.40001
1.40001
1.40001
1.40001
1.40001
1.40001
1.40001
1.40001
1.40001
1.40001
1.40001
1.40001
1.40001
1.40001
1.40001
1.40001
1.40001
1.40001
1.40001
1.40001
1.40001
1.40001
1.40001
1.40001
1.40001
1.40001
1.40001
1.40001
1.40001
1.40001
1.40001
1.40001
1.40001
1.40001
1.40001
1.40001
1.40001
1.40001
1.40001
1.40001
1.40001
1.40001
1.40001
1.40001
1.40001
1.40001
1.40001
1.43042
3.09329
5.03712
5.13765
5.13529
5.13018
5.12212
5.11139
5.0955
5.07807
5.05979
5.04049
5.02181
5.00273
4.98252
4.96078
4.93582
4.90817
4.87707
4.84128
4.80359
4.76469
4.7246
4.68056
4.63495
4.58614
4.53375
4.47808
4.41352
4.3475
4.27609
4.20193
4.12426
4.04497
3.95999
3.87192
3.7828
3.69099
3.59573
1.40001
1.40001
1.40001
1.40001
1.40001
1.40001
1.40001
1.40001
1.40001
1.40001
1.40001
1.40001
1.40001
1.40001
1.40001
1.40001
1.40001
1.40001
1.40001
1.40001
1.40001
1.40001
1.40001
1.40001
1.40001
1.40001
1.40001
1.40001
1.40001
1.40001
1.40001
1.40001
1.40001
1.40001
1.40001
1.40001
1.40001
1.40001
1.40001
1.40001
1.40001
1.40001
1.40001
1.40001
1.40001
1.40001
1.40001
1.40001
1.40001
1.40001
1.40001
1.40001
1.40001
1.40001
1.40001
1.40001
1.40001
1.40007
1.57715
3.78625
5.08662
5.13525
5.12579
5.11541
5.10243
5.08283
5.06224
5.04144
5.0199
4.99908
4.97902
4.95782
4.93482
4.90813
4.87782
4.84554
4.80841
4.77013
4.73057
4.69075
4.64885
4.60385
4.55644
4.50574
4.45096
4.39106
4.32781
4.26091
4.18974
4.11615
4.04155
3.9608
3.8776
3.79708
3.71145
3.62183
1.40001
1.40001
1.40001
1.40001
1.40001
1.40001
1.40001
1.40001
1.40001
1.40001
1.40001
1.40001
1.40001
1.40001
1.40001
1.40001
1.40001
1.40001
1.40001
1.40001
1.40001
1.40001
1.40001
1.40001
1.40001
1.40001
1.40001
1.40001
1.40001
1.40001
1.40001
1.40001
1.40001
1.40001
1.40001
1.40001
1.40001
1.40001
1.40001
1.40001
1.40001
1.40001
1.40001
1.40001
1.40001
1.40001
1.40001
1.40001
1.40001
1.40001
1.40001
1.40001
1.40001
1.40001
1.40001
1.40001
1.40001
1.40001
1.40165
1.80186
4.47768
5.17402
5.14494
5.11732
5.09077
5.06517
5.04066
5.01738
4.99527
4.97392
4.95332
4.93256
4.9094
4.88203
4.85024
4.81687
4.7791
4.74
4.70024
4.66014
4.61974
4.57677
4.53134
4.48225
4.42942
4.37281
4.31222
4.24835
4.1807
4.11084
4.03951
3.96409
3.88683
3.81181
3.73103
3.64741
1.40001
1.40001
1.40001
1.40001
1.40001
1.40001
1.40001
1.40001
1.40001
1.40001
1.40001
1.40001
1.40001
1.40001
1.40001
1.40001
1.40001
1.40001
1.40001
1.40001
1.40001
1.40001
1.40001
1.40001
1.40001
1.40001
1.40001
1.40001
1.40001
1.40001
1.40001
1.40001
1.40001
1.40001
1.40001
1.40001
1.40001
1.40001
1.40001
1.40001
1.40001
1.40001
1.40001
1.40001
1.40001
1.40001
1.40001
1.40001
1.40001
1.40001
1.40001
1.40001
1.40001
1.40001
1.40001
1.40001
1.40001
1.40001
1.40001
1.4088
2.57412
4.90395
5.10019
5.07084
5.05072
5.03104
5.01263
4.99352
4.97419
4.95459
4.9331
4.91033
4.88659
4.85864
4.82626
4.79303
4.75589
4.71664
4.67658
4.63592
4.59521
4.55262
4.50815
4.46084
4.41011
4.35605
4.2983
4.23722
4.17344
4.10704
4.03846
3.96832
3.89679
3.82586
3.74949
3.67224
1.40001
1.40001
1.40001
1.40001
1.40001
1.40001
1.40001
1.40001
1.40001
1.40001
1.40001
1.40001
1.40001
1.40001
1.40001
1.40001
1.40001
1.40001
1.40001
1.40001
1.40001
1.40001
1.40001
1.40001
1.40001
1.40001
1.40001
1.40001
1.40001
1.40001
1.40001
1.40001
1.40001
1.40001
1.40001
1.40001
1.40001
1.40001
1.40001
1.40001
1.40001
1.40001
1.40001
1.40001
1.40001
1.40001
1.40001
1.40001
1.40001
1.40001
1.40001
1.40001
1.40001
1.40001
1.40001
1.40001
1.40001
1.40001
1.40001
1.40002
1.48033
3.20786
4.98122
5.03453
5.02185
5.01869
5.00751
4.99157
4.97235
4.95123
4.92759
4.90176
4.87577
4.84601
4.81218
4.77824
4.74074
4.70093
4.6602
4.6186
4.57708
4.53426
4.48947
4.44298
4.3938
4.34199
4.28709
4.22902
4.16892
4.10554
4.03955
3.97352
3.90663
3.83846
3.76591
3.69438
1.40001
1.40001
1.40001
1.40001
1.40001
1.40001
1.40001
1.40001
1.40001
1.40001
1.40001
1.40001
1.40001
1.40001
1.40001
1.40001
1.40001
1.40001
1.40001
1.40001
1.40001
1.40001
1.40001
1.40001
1.40001
1.40001
1.40001
1.40001
1.40001
1.40001
1.40001
1.40001
1.40001
1.40001
1.40001
1.40001
1.40001
1.40001
1.40001
1.40001
1.40001
1.40001
1.40001
1.40001
1.40001
1.40001
1.40001
1.40001
1.40001
1.40001
1.40001
1.40001
1.40001
1.40001
1.40001
1.40001
1.40001
1.40001
1.40001
1.40001
1.40043
1.60176
3.58946
4.98331
5.0106
5.00605
4.99903
4.98536
4.96761
4.94634
4.92193
4.89468
4.86647
4.83509
4.8011
4.7661
4.72823
4.6886
4.64785
4.60588
4.56328
4.52018
4.47522
4.42832
4.37996
4.32978
4.27701
4.22167
4.16459
4.10398
4.04098
3.97814
3.91458
3.84874
3.77999
3.71326
1.40001
1.40001
1.40001
1.40001
1.40001
1.40001
1.40001
1.40001
1.40001
1.40001
1.40001
1.40001
1.40001
1.40001
1.40001
1.40001
1.40001
1.40001
1.40001
1.40001
1.40001
1.40001
1.40001
1.40001
1.40001
1.40001
1.40001
1.40001
1.40001
1.40001
1.40001
1.40001
1.40001
1.40001
1.40001
1.40001
1.40001
1.40001
1.40001
1.40001
1.40001
1.40001
1.40001
1.40001
1.40001
1.40001
1.40001
1.40001
1.40001
1.40001
1.40001
1.40001
1.40001
1.40001
1.40001
1.40001
1.40001
1.40001
1.40001
1.40001
1.40001
1.40227
1.72334
3.91129
5.01119
5.0096
4.99498
4.97832
4.95965
4.93756
4.91297
4.88622
4.85801
4.82671
4.7934
4.758
4.72024
4.68087
4.64042
4.59875
4.55585
4.51234
4.46759
4.42064
4.37235
4.32305
4.27151
4.21776
4.16214
4.10306
4.04252
3.98245
3.92118
3.85767
3.79248
3.72984
1.40001
1.40001
1.40001
1.40001
1.40001
1.40001
1.40001
1.40001
1.40001
1.40001
1.40001
1.40001
1.40001
1.40001
1.40001
1.40001
1.40001
1.40001
1.40001
1.40001
1.40001
1.40001
1.40001
1.40001
1.40001
1.40001
1.40001
1.40001
1.40001
1.40001
1.40001
1.40001
1.40001
1.40001
1.40001
1.40001
1.40001
1.40001
1.40001
1.40001
1.40001
1.40001
1.40001
1.40001
1.40001
1.40001
1.40001
1.40001
1.40001
1.40001
1.40001
1.40001
1.40001
1.40001
1.40001
1.40001
1.40001
1.40001
1.40001
1.40001
1.40001
1.40001
1.4057
1.86073
4.19399
5.01845
5.00259
4.98023
4.95624
4.93141
4.90451
4.87669
4.84733
4.81613
4.78305
4.74767
4.71062
4.67237
4.63309
4.59255
4.55055
4.5074
4.46308
4.4171
4.36938
4.32032
4.26921
4.21626
4.16144
4.10354
4.04525
3.98737
3.92735
3.86586
3.80411
3.74457
1.40001
1.40001
1.40001
1.40001
1.40001
1.40001
1.40001
1.40001
1.40001
1.40001
1.40001
1.40001
1.40001
1.40001
1.40001
1.40001
1.40001
1.40001
1.40001
1.40001
1.40001
1.40001
1.40001
1.40001
1.40001
1.40001
1.40001
1.40001
1.40001
1.40001
1.40001
1.40001
1.40001
1.40001
1.40001
1.40001
1.40001
1.40001
1.40001
1.40001
1.40001
1.40001
1.40001
1.40001
1.40001
1.40001
1.40001
1.40001
1.40001
1.40001
1.40001
1.40001
1.40001
1.40001
1.40001
1.40001
1.40001
1.40001
1.40001
1.40001
1.40001
1.40001
1.40002
1.41147
2.01512
4.40083
5.02889
5.0024
4.97213
4.94012
4.90866
4.87645
4.84289
4.80929
4.77462
4.73864
4.70205
4.66485
4.62684
4.58768
4.54716
4.5053
4.462
4.41727
4.37049
4.32176
4.27091
4.21828
4.16408
4.10759
4.05104
3.9944
3.93489
3.87513
3.81708
3.76103
1.40001
1.40001
1.40001
1.40001
1.40001
1.40001
1.40001
1.40001
1.40001
1.40001
1.40001
1.40001
1.40001
1.40001
1.40001
1.40001
1.40001
1.40001
1.40001
1.40001
1.40001
1.40001
1.40001
1.40001
1.40001
1.40001
1.40001
1.40001
1.40001
1.40001
1.40001
1.40001
1.40001
1.40001
1.40001
1.40001
1.40001
1.40001
1.40001
1.40001
1.40001
1.40001
1.40001
1.40001
1.40001
1.40001
1.40001
1.40001
1.40001
1.40001
1.40001
1.40001
1.40001
1.40001
1.40001
1.40001
1.40001
1.40001
1.40001
1.40001
1.40001
1.40001
1.40001
1.40004
1.42047
2.16449
4.58462
5.02532
4.99421
4.96
4.9208
4.88328
4.84637
4.80952
4.77181
4.73439
4.69721
4.66
4.62226
4.58358
4.54373
4.50273
4.46036
4.41675
4.37131
4.32383
4.2742
4.22245
4.16928
4.11399
4.05834
4.0025
3.94472
3.88881
3.83576
3.78549
1.40001
1.40001
1.40001
1.40001
1.40001
1.40001
1.40001
1.40001
1.40001
1.40001
1.40001
1.40001
1.40001
1.40001
1.40001
1.40001
1.40001
1.40001
1.40001
1.40001
1.40001
1.40001
1.40001
1.40001
1.40001
1.40001
1.40001
1.40001
1.40001
1.40001
1.40001
1.40001
1.40001
1.40001
1.40001
1.40001
1.40001
1.40001
1.40001
1.40001
1.40001
1.40001
1.40001