/*--------------------------------*- C++ -*----------------------------------*\
  =========                 |
  \\      /  F ield         | OpenFOAM: The Open Source CFD Toolbox
   \\    /   O peration     | Website:  https://openfoam.org
    \\  /    A nd           | Version:  7
     \\/     M anipulation  |
\*---------------------------------------------------------------------------*/
FoamFile
{
    version     2.0;
    format      ascii;
    class       volVectorField;
    location    "7.7";
    object      U;
}
// * * * * * * * * * * * * * * * * * * * * * * * * * * * * * * * * * * * * * //

dimensions      [0 1 -1 0 0 0 0];

internalField   nonuniform List<vector> 
19968
(
(3 -1.00661e-18 0)
(3 2.14504e-17 0)
(3 3.94154e-16 0)
(3 5.73489e-16 0)
(3 4.84417e-16 0)
(3 3.27997e-16 0)
(3 2.96307e-16 0)
(3 4.28372e-16 0)
(3 7.91087e-16 0)
(3 1.09328e-15 0)
(3 1.00922e-15 0)
(3 9.58577e-16 0)
(3 9.80367e-16 0)
(3 1.27874e-15 0)
(3 1.93991e-15 0)
(3 1.7592e-15 0)
(3 1.25725e-15 0)
(3 1.00861e-15 0)
(3 1.22372e-15 0)
(3 4.90851e-16 0)
(3 2.66628e-17 0)
(3 3.28572e-16 0)
(3 2.07048e-16 0)
(3 -2.47409e-16 0)
(3 -6.30183e-16 0)
(3 -7.93958e-16 0)
(3 -5.67276e-16 0)
(3 -3.05269e-16 0)
(3 -1.4595e-16 0)
(3 -3.04323e-17 0)
(3 4.25672e-16 0)
(3 9.93428e-16 0)
(3 1.08717e-15 0)
(3 8.39322e-16 0)
(3 8.34071e-16 0)
(3 7.61362e-16 0)
(3 1.01222e-15 0)
(3 8.39954e-16 0)
(3 -1.03222e-16 0)
(3 -4.37883e-16 0)
(3 2.3086e-16 0)
(3 2.62407e-16 0)
(3 1.48691e-16 0)
(3 -4.22074e-16 0)
(3 -6.73749e-16 0)
(3 -6.46555e-16 0)
(3 -2.73122e-16 0)
(3 -1.05388e-15 0)
(2.79863 0.00199413 0)
(0.969211 0.00541778 0)
(0.758392 0.00966169 0)
(0.741492 0.00738419 0)
(0.726888 0.00707281 0)
(0.713736 0.00747532 0)
(0.699938 0.00847123 0)
(0.684714 0.00978424 0)
(0.667917 0.0104446 0)
(0.650915 0.00966476 0)
(0.63516 0.00835796 0)
(0.620613 0.00790146 0)
(0.606336 0.00846141 0)
(0.591459 0.00938893 0)
(0.575979 0.00975771 0)
(0.560629 0.0094558 0)
(0.545478 0.00932655 0)
(0.529931 0.00957554 0)
(0.513981 0.00973949 0)
(0.498259 0.00971163 0)
(0.48307 0.00976555 0)
(0.468133 0.00998311 0)
(0.453009 0.0101937 0)
(0.437413 0.0102845 0)
(0.42121 0.0103266 0)
(0.4045 0.0104208 0)
(0.38765 0.0105654 0)
(0.371073 0.0107112 0)
(0.354927 0.0108383 0)
(0.339057 0.0109527 0)
(0.323147 0.0110622 0)
(0.306915 0.0111691 0)
(0.290233 0.0112721 0)
(0.273149 0.0113732 0)
(0.255791 0.0114832 0)
(0.238268 0.0116128 0)
(0.220664 0.0117673 0)
(0.203068 0.0119455 0)
(0.185542 0.0121428 0)
(0.168053 0.0123558 0)
(0.150431 0.0125867 0)
(0.132411 0.0128392 0)
(0.113747 0.0131194 0)
(0.0943381 0.0134237 0)
(0.0742464 0.0137659 0)
(0.0535662 0.0141619 0)
(0.0323979 0.0144427 0)
(0.0111268 0.014869 0)
(3 -1.9114e-16 0)
(3 -8.55229e-16 0)
(3 -5.18278e-16 0)
(3 2.74435e-16 0)
(3 5.09458e-16 0)
(3 1.16852e-15 0)
(3 8.11202e-16 0)
(3 6.83428e-16 0)
(3 1.35753e-15 0)
(3 2.03227e-15 0)
(3 2.23282e-15 0)
(3 1.62399e-15 0)
(3 7.37048e-16 0)
(3 7.79756e-16 0)
(3 1.3453e-15 0)
(3 1.21101e-15 0)
(3 6.7102e-16 0)
(3 8.24022e-16 0)
(3 1.69109e-15 0)
(3 1.84748e-15 0)
(3 8.99312e-16 0)
(3 6.288e-17 0)
(3 -8.21088e-17 0)
(3 -2.19491e-16 0)
(3 -4.5935e-16 0)
(3 -1.15124e-15 0)
(3 -1.39112e-15 0)
(3 -1.14709e-15 0)
(3 -6.9056e-16 0)
(3 -1.59544e-15 0)
(3 -8.25045e-16 0)
(3 5.2105e-16 0)
(3 1.88313e-15 0)
(3 1.43819e-15 0)
(3 1.00304e-15 0)
(3 4.34197e-16 0)
(3 4.61857e-16 0)
(3 -8.53455e-16 0)
(3 -1.42922e-15 0)
(3 -1.82701e-15 0)
(3 -1.4375e-15 0)
(3 -1.25354e-15 0)
(3 -1.579e-15 0)
(3 -1.51682e-15 0)
(3 -1.66028e-15 0)
(3 -1.92184e-15 0)
(3 -1.3808e-15 0)
(3 -2.76757e-15 0)
(2.81145 0.011583 0)
(0.972889 0.0265856 0)
(0.754431 0.0327205 0)
(0.738068 0.0241109 0)
(0.722628 0.0215234 0)
(0.709109 0.0220713 0)
(0.695289 0.0248121 0)
(0.680494 0.028453 0)
(0.664416 0.0303432 0)
(0.648167 0.0288617 0)
(0.632625 0.0258911 0)
(0.617625 0.0245782 0)
(0.602963 0.025908 0)
(0.588023 0.0283847 0)
(0.572593 0.0293854 0)
(0.557361 0.0286323 0)
(0.542199 0.0283575 0)
(0.526624 0.0291414 0)
(0.510624 0.0296762 0)
(0.494813 0.0296383 0)
(0.479497 0.0297825 0)
(0.464458 0.0303557 0)
(0.449287 0.0309095 0)
(0.433683 0.0311643 0)
(0.417475 0.0313208 0)
(0.400747 0.0316351 0)
(0.383872 0.0320951 0)
(0.367255 0.0325656 0)
(0.351052 0.0329853 0)
(0.335107 0.0333593 0)
(0.31912 0.0337009 0)
(0.302819 0.0340196 0)
(0.286086 0.034319 0)
(0.268974 0.0346106 0)
(0.251611 0.03493 0)
(0.234111 0.035315 0)
(0.216563 0.0357846 0)
(0.199048 0.0363338 0)
(0.181622 0.0369425 0)
(0.164246 0.0375921 0)
(0.146753 0.0382841 0)
(0.128896 0.0390308 0)
(0.110467 0.0398599 0)
(0.0913966 0.0407784 0)
(0.0717667 0.0418215 0)
(0.0516749 0.0430389 0)
(0.0311854 0.0438957 0)
(0.0106779 0.0451262 0)
(3 1.09892e-16 0)
(3 -2.55447e-16 0)
(3 -4.31254e-16 0)
(3 -3.54271e-16 0)
(3 3.52782e-16 0)
(3 5.552e-16 0)
(3 7.05533e-16 0)
(3 1.08799e-15 0)
(3 1.28366e-15 0)
(3 1.07941e-15 0)
(3 1.80012e-15 0)
(3 1.4412e-15 0)
(3 1.00692e-15 0)
(3 4.76e-16 0)
(3 1.67871e-16 0)
(3 -4.9576e-17 0)
(3 2.09095e-16 0)
(3 1.77075e-15 0)
(3 1.79768e-15 0)
(3 1.76454e-15 0)
(3 1.39248e-15 0)
(3 8.32537e-16 0)
(3 2.35468e-16 0)
(3 -6.39506e-16 0)
(3 -3.52849e-16 0)
(3 1.81766e-16 0)
(3 3.88934e-17 0)
(3 5.86735e-17 0)
(3 1.73492e-16 0)
(3 -4.51522e-17 0)
(3 -4.25672e-16 0)
(3 -4.20787e-16 0)
(3 2.02613e-15 0)
(3 2.04493e-15 0)
(3 1.3927e-15 0)
(3 4.98739e-16 0)
(3 -6.62458e-16 0)
(3 -9.42921e-16 0)
(3 -1.05783e-15 0)
(3 -1.12012e-15 0)
(3 -2.11988e-15 0)
(3 -2.56911e-15 0)
(3 -2.55519e-15 0)
(3 -2.40326e-15 0)
(3 -1.4997e-15 0)
(3 -9.86524e-16 0)
(3 -1.1399e-15 0)
(3 -1.66486e-15 0)
(2.84503 0.0190951 0)
(0.988746 0.0477957 0)
(0.758535 0.0531872 0)
(0.743416 0.042507 0)
(0.726557 0.0389168 0)
(0.711554 0.0395133 0)
(0.696781 0.0433308 0)
(0.681828 0.0482913 0)
(0.666035 0.0506527 0)
(0.65028 0.0486042 0)
(0.634834 0.0447463 0)
(0.619288 0.0430496 0)
(0.604033 0.0450418 0)
(0.588807 0.0487026 0)
(0.573193 0.0501372 0)
(0.557907 0.0489575 0)
(0.542627 0.0486298 0)
(0.527006 0.0499871 0)
(0.510935 0.0509545 0)
(0.494963 0.0509848 0)
(0.479394 0.0512476 0)
(0.464097 0.0521331 0)
(0.448725 0.0529795 0)
(0.432984 0.0534046 0)
(0.416675 0.0537213 0)
(0.399851 0.0542751 0)
(0.382859 0.0550172 0)
(0.366087 0.0557543 0)
(0.349687 0.0564208 0)
(0.333524 0.0570358 0)
(0.317322 0.0576156 0)
(0.300834 0.0581695 0)
(0.283954 0.0586954 0)
(0.266745 0.0592008 0)
(0.249341 0.0597335 0)
(0.231859 0.0603523 0)
(0.214372 0.0610917 0)
(0.196935 0.0619523 0)
(0.179576 0.0629119 0)
(0.162237 0.0639467 0)
(0.144761 0.0650561 0)
(0.126932 0.0662494 0)
(0.10859 0.0675584 0)
(0.0896969 0.0689881 0)
(0.0703381 0.0705766 0)
(0.0506024 0.0724366 0)
(0.0305038 0.0736855 0)
(0.01042 0.0755403 0)
(3 1.37441e-16 0)
(3 -1.6949e-17 0)
(3 -2.238e-16 0)
(3 -6.55428e-16 0)
(3 -3.47558e-16 0)
(3 -1.44547e-16 0)
(3 4.63325e-16 0)
(3 2.00222e-15 0)
(3 1.7848e-15 0)
(3 1.18878e-15 0)
(3 1.03383e-15 0)
(3 1.07967e-15 0)
(3 1.50386e-15 0)
(3 1.25206e-15 0)
(3 9.08335e-16 0)
(3 9.53783e-16 0)
(3 1.14271e-15 0)
(3 8.27979e-16 0)
(3 2.655e-16 0)
(3 5.52954e-16 0)
(3 1.52516e-15 0)
(3 2.70606e-15 0)
(3 2.30454e-15 0)
(3 1.24632e-15 0)
(3 1.55451e-16 0)
(3 7.81784e-16 0)
(3 1.54459e-15 0)
(3 1.36976e-15 0)
(3 1.50549e-15 0)
(3 1.86921e-15 0)
(3 1.84759e-15 0)
(3 1.56615e-15 0)
(3 1.2491e-15 0)
(3 1.32454e-15 0)
(3 1.015e-15 0)
(3 8.09794e-16 0)
(3 8.42128e-16 0)
(3 8.39926e-16 0)
(3 8.69298e-17 0)
(3 -4.17978e-16 0)
(3 -8.1919e-16 0)
(3 -8.67155e-16 0)
(3 -8.10412e-16 0)
(3 -8.4075e-16 0)
(3 -5.01365e-16 0)
(3 3.87248e-16 0)
(3 9.88715e-16 0)
(3 5.84444e-16 0)
(2.88858 0.0229026 0)
(1.01081 0.0686052 0)
(0.759582 0.0713595 0)
(0.745093 0.0614956 0)
(0.728486 0.0582586 0)
(0.713115 0.0588161 0)
(0.698076 0.0629363 0)
(0.683422 0.0682992 0)
(0.66829 0.0706425 0)
(0.653207 0.0685308 0)
(0.637999 0.0646865 0)
(0.622225 0.0630766 0)
(0.606642 0.0656297 0)
(0.59131 0.0701204 0)
(0.575635 0.0718471 0)
(0.560338 0.0703173 0)
(0.544979 0.0699534 0)
(0.529433 0.0718422 0)
(0.513453 0.0733111 0)
(0.497461 0.0735544 0)
(0.481732 0.0740305 0)
(0.466216 0.0752277 0)
(0.450645 0.0763436 0)
(0.434743 0.0769726 0)
(0.418287 0.077525 0)
(0.401292 0.0783709 0)
(0.384069 0.0794083 0)
(0.366976 0.0804131 0)
(0.350163 0.081335 0)
(0.33352 0.0822042 0)
(0.316804 0.0830294 0)
(0.299801 0.083813 0)
(0.282433 0.0845459 0)
(0.264791 0.0852264 0)
(0.247045 0.0859096 0)
(0.229334 0.0866777 0)
(0.211735 0.087592 0)
(0.19428 0.0886753 0)
(0.176964 0.0899209 0)
(0.159706 0.0913104 0)
(0.142348 0.0928394 0)
(0.124702 0.0945026 0)
(0.10664 0.0963174 0)
(0.0881219 0.0982821 0)
(0.0691783 0.10041 0)
(0.0498565 0.102902 0)
(0.0300823 0.104502 0)
(0.0102819 0.10693 0)
(3 -8.17429e-17 0)
(3 -2.28703e-16 0)
(3 -2.82369e-16 0)
(3 -1.37622e-16 0)
(3 1.1032e-16 0)
(3 8.21097e-16 0)
(3 1.1204e-15 0)
(3 1.64978e-15 0)
(3 2.16104e-15 0)
(3 2.41397e-15 0)
(3 2.15923e-15 0)
(3 2.07684e-15 0)
(3 1.25839e-15 0)
(3 1.04312e-15 0)
(3 1.68853e-15 0)
(3 2.08359e-15 0)
(3 2.28102e-15 0)
(3 7.54979e-16 0)
(3 3.52653e-16 0)
(3 6.15321e-16 0)
(3 1.13899e-15 0)
(3 1.4007e-15 0)
(3 2.49657e-15 0)
(3 1.55158e-15 0)
(3 8.98733e-16 0)
(3 -1.86606e-16 0)
(3 -3.91333e-17 0)
(3 1.28775e-16 0)
(3 3.33481e-16 0)
(3 7.04256e-16 0)
(3 9.19641e-16 0)
(3 9.01991e-16 0)
(3 1.52124e-16 0)
(3 -2.17902e-16 0)
(3 -7.12501e-16 0)
(3 -9.09329e-16 0)
(3 -7.47915e-16 0)
(3 -5.72054e-16 0)
(3 -9.82743e-16 0)
(3 -1.23517e-15 0)
(3 -1.01336e-15 0)
(3 -6.04009e-16 0)
(3 -5.71351e-16 0)
(3 -5.33089e-16 0)
(3 -8.59256e-16 0)
(3 -5.07318e-16 0)
(3 -2.70325e-16 0)
(3 -1.06525e-15 0)
(2.93721 0.0313714 0)
(1.03809 0.0968094 0)
(0.763361 0.0881469 0)
(0.750462 0.0796477 0)
(0.734044 0.0788888 0)
(0.718069 0.0801827 0)
(0.702197 0.0842227 0)
(0.687159 0.0889639 0)
(0.672373 0.0907021 0)
(0.65789 0.088704 0)
(0.643133 0.0854674 0)
(0.627648 0.0843486 0)
(0.612323 0.0873864 0)
(0.59742 0.0924171 0)
(0.5821 0.0944113 0)
(0.566982 0.0927469 0)
(0.551625 0.0923436 0)
(0.536217 0.0946307 0)
(0.520445 0.0966344 0)
(0.504554 0.0972824 0)
(0.488759 0.0981606 0)
(0.473072 0.0997634 0)
(0.457306 0.101196 0)
(0.441238 0.102125 0)
(0.424633 0.103065 0)
(0.407462 0.10435 0)
(0.389983 0.105798 0)
(0.372519 0.107173 0)
(0.355216 0.10846 0)
(0.337976 0.109698 0)
(0.320582 0.110873 0)
(0.30284 0.111973 0)
(0.284699 0.112979 0)
(0.266279 0.11387 0)
(0.24779 0.114693 0)
(0.229405 0.115536 0)
(0.211204 0.11648 0)
(0.193203 0.117571 0)
(0.175368 0.118832 0)
(0.157615 0.120276 0)
(0.139825 0.121932 0)
(0.121892 0.123818 0)
(0.103776 0.125955 0)
(0.0854686 0.128362 0)
(0.066948 0.130979 0)
(0.0482226 0.134116 0)
(0.0290613 0.136065 0)
(0.00991421 0.139063 0)
(3 2.29403e-16 0)
(3 5.21653e-16 0)
(3 1.12887e-15 0)
(3 2.00232e-15 0)
(3 2.06673e-15 0)
(3 1.84247e-15 0)
(3 1.41813e-15 0)
(3 5.39398e-16 0)
(3 7.75067e-16 0)
(3 7.22641e-16 0)
(3 6.23722e-16 0)
(3 5.22554e-16 0)
(3 7.13905e-17 0)
(3 -1.1775e-16 0)
(3 1.37432e-15 0)
(3 1.93008e-15 0)
(3 2.04559e-15 0)
(3 2.15578e-15 0)
(3 2.18672e-15 0)
(3 1.86007e-15 0)
(3 4.26292e-16 0)
(3 2.29249e-16 0)
(3 8.21878e-16 0)
(3 9.46769e-16 0)
(3 7.60386e-16 0)
(3 6.55266e-16 0)
(3 1.21484e-15 0)
(3 1.29681e-15 0)
(3 1.42385e-15 0)
(3 1.17099e-15 0)
(3 4.03338e-16 0)
(3 -5.90524e-16 0)
(3 -1.03131e-15 0)
(3 -1.70397e-15 0)
(3 -2.26169e-15 0)
(3 -2.12927e-15 0)
(3 -2.05412e-15 0)
(3 -1.50803e-15 0)
(3 -1.03576e-15 0)
(3 -8.04353e-16 0)
(3 3.82881e-16 0)
(3 6.42776e-16 0)
(3 8.86669e-16 0)
(3 1.80558e-16 0)
(3 -1.69674e-15 0)
(3 -2.7947e-15 0)
(3 -2.8327e-15 0)
(3 -2.92084e-15 0)
(2.99466 0.00249713 0)
(1.10111 0.118127 0)
(0.776038 0.0967359 0)
(0.761736 0.096551 0)
(0.746023 0.0999924 0)
(0.729323 0.10304 0)
(0.712694 0.106827 0)
(0.69691 0.110135 0)
(0.681929 0.11052 0)
(0.667604 0.108317 0)
(0.653125 0.105841 0)
(0.638035 0.105448 0)
(0.623111 0.108833 0)
(0.60871 0.114118 0)
(0.593781 0.116578 0)
(0.57875 0.115203 0)
(0.56337 0.114795 0)
(0.548077 0.117213 0)
(0.532622 0.119612 0)
(0.517025 0.120775 0)
(0.501406 0.122249 0)
(0.485769 0.124386 0)
(0.469989 0.126172 0)
(0.453937 0.127434 0)
(0.437399 0.128863 0)
(0.420303 0.130716 0)
(0.402838 0.132689 0)
(0.385282 0.134546 0)
(0.367767 0.136339 0)
(0.350197 0.138121 0)
(0.332356 0.139846 0)
(0.314065 0.141482 0)
(0.295287 0.143003 0)
(0.276169 0.144364 0)
(0.256953 0.145579 0)
(0.237835 0.146716 0)
(0.21889 0.147854 0)
(0.200095 0.149048 0)
(0.181371 0.150347 0)
(0.162616 0.151804 0)
(0.14375 0.153482 0)
(0.124763 0.155428 0)
(0.105728 0.15766 0)
(0.086719 0.160273 0)
(0.0676959 0.163113 0)
(0.0486935 0.166699 0)
(0.0292447 0.168839 0)
(0.00995795 0.172307 0)
(3 1.18295e-16 0)
(3 6.17836e-16 0)
(3 1.1095e-15 0)
(3 1.22652e-15 0)
(3 1.1238e-15 0)
(3 8.25738e-16 0)
(3 4.70723e-16 0)
(3 -3.70021e-16 0)
(3 -9.36854e-16 0)
(3 -1.0615e-15 0)
(3 -8.6455e-16 0)
(3 3.42501e-16 0)
(3 7.35623e-16 0)
(3 8.68968e-16 0)
(3 5.03683e-16 0)
(3 1.07137e-15 0)
(3 1.57769e-15 0)
(3 2.23046e-15 0)
(3 2.39921e-15 0)
(3 1.94923e-15 0)
(3 1.93616e-15 0)
(3 2.00172e-15 0)
(3 1.12656e-15 0)
(3 1.33114e-15 0)
(3 1.8129e-15 0)
(3 2.36905e-15 0)
(3 3.11249e-15 0)
(3 2.60895e-15 0)
(3 2.10226e-15 0)
(3 1.39583e-15 0)
(3 4.22716e-16 0)
(3 -4.74e-16 0)
(3 -1.14295e-15 0)
(3 -1.42018e-15 0)
(3 -1.4138e-15 0)
(3 -1.25655e-15 0)
(3 -1.27751e-15 0)
(3 -1.18386e-15 0)
(3 -1.06336e-15 0)
(3 -5.14696e-16 0)
(3 2.98063e-17 0)
(3 6.79481e-16 0)
(3 1.97235e-16 0)
(3 -1.31741e-15 0)
(3 -2.24857e-15 0)
(3 -2.81076e-15 0)
(3 -2.6444e-15 0)
(3 -3.5164e-15 0)
(3.00002 8.33159e-05 0)
(1.21939 0.13663 0)
(0.777716 0.11311 0)
(0.756235 0.117676 0)
(0.741469 0.124667 0)
(0.724394 0.128909 0)
(0.708166 0.132286 0)
(0.692701 0.133902 0)
(0.678015 0.132906 0)
(0.663825 0.130256 0)
(0.649477 0.128263 0)
(0.634763 0.128617 0)
(0.620311 0.132412 0)
(0.606466 0.138091 0)
(0.592036 0.141435 0)
(0.577204 0.140752 0)
(0.56196 0.140342 0)
(0.546856 0.142547 0)
(0.531862 0.145075 0)
(0.516819 0.146773 0)
(0.50173 0.149036 0)
(0.486532 0.151895 0)
(0.471098 0.154092 0)
(0.455428 0.155674 0)
(0.439376 0.157606 0)
(0.422844 0.160094 0)
(0.405928 0.16266 0)
(0.388853 0.165045 0)
(0.371733 0.167374 0)
(0.354462 0.169723 0)
(0.336826 0.172004 0)
(0.318655 0.17416 0)
(0.299939 0.17618 0)
(0.280839 0.178017 0)
(0.261607 0.179655 0)
(0.242438 0.181132 0)
(0.223388 0.182499 0)
(0.204395 0.183803 0)
(0.185336 0.185106 0)
(0.166082 0.186498 0)
(0.146575 0.188086 0)
(0.126876 0.189968 0)
(0.107159 0.192138 0)
(0.0876036 0.194826 0)
(0.0681634 0.197722 0)
(0.0488672 0.201635 0)
(0.0293125 0.203895 0)
(0.00996834 0.207784 0)
(3 -3.06835e-16 0)
(3 -6.00389e-16 0)
(3 -5.19025e-16 0)
(3 -5.47633e-16 0)
(3 -4.97691e-16 0)
(3 -4.02086e-16 0)
(3 -1.82878e-16 0)
(3 1.65854e-16 0)
(3 1.07774e-16 0)
(3 2.21334e-16 0)
(3 5.61423e-16 0)
(3 5.34938e-16 0)
(3 7.38787e-16 0)
(3 6.54778e-16 0)
(3 4.53174e-16 0)
(3 3.59011e-16 0)
(3 2.37047e-16 0)
(3 -7.76794e-16 0)
(3 -8.83083e-16 0)
(3 8.11378e-16 0)
(3 1.69642e-15 0)
(3 2.28113e-15 0)
(3 2.10023e-15 0)
(3 1.33194e-15 0)
(3 1.41586e-15 0)
(3 1.17445e-15 0)
(3 5.62461e-16 0)
(3 4.82575e-16 0)
(3 4.68777e-16 0)
(3 5.656e-16 0)
(3 2.03297e-16 0)
(3 -4.76333e-16 0)
(3 -1.36287e-15 0)
(3 -1.52438e-15 0)
(3 -1.35102e-15 0)
(3 -7.97865e-16 0)
(3 -3.23152e-16 0)
(3 -4.79675e-16 0)
(3 -6.63167e-16 0)
(3 -7.88482e-16 0)
(3 -9.56358e-16 0)
(3 -1.13611e-15 0)
(3 -1.5344e-15 0)
(3 -1.40288e-15 0)
(3 -1.25413e-15 0)
(3 -1.3125e-15 0)
(3 -1.71717e-15 0)
(3 -2.24517e-15 0)
(3 1.58942e-07 0)
(1.42664 0.164657 0)
(0.790816 0.137263 0)
(0.754972 0.139761 0)
(0.740958 0.149374 0)
(0.723559 0.15432 0)
(0.707899 0.156884 0)
(0.692869 0.157309 0)
(0.678222 0.155593 0)
(0.663668 0.152767 0)
(0.648951 0.151005 0)
(0.634258 0.15157 0)
(0.620144 0.155203 0)
(0.607008 0.160908 0)
(0.593503 0.165071 0)
(0.579272 0.165485 0)
(0.564496 0.165287 0)
(0.549767 0.16703 0)
(0.53538 0.169308 0)
(0.521117 0.171403 0)
(0.506851 0.174534 0)
(0.492379 0.178294 0)
(0.47749 0.180995 0)
(0.462354 0.182842 0)
(0.446936 0.185241 0)
(0.431115 0.188432 0)
(0.414863 0.191727 0)
(0.398332 0.194789 0)
(0.381624 0.197828 0)
(0.364632 0.20097 0)
(0.347136 0.204083 0)
(0.328987 0.207069 0)
(0.310204 0.209921 0)
(0.29096 0.212597 0)
(0.271493 0.215045 0)
(0.251979 0.217249 0)
(0.232461 0.219217 0)
(0.212874 0.220969 0)
(0.193091 0.222557 0)
(0.172981 0.224091 0)
(0.152493 0.225704 0)
(0.13173 0.22756 0)
(0.110921 0.229604 0)
(0.0903584 0.232277 0)
(0.0700126 0.235062 0)
(0.0500022 0.239188 0)
(0.0299039 0.24152 0)
(0.0101641 0.245783 0)
(3 -5.75466e-17 0)
(3 -5.51084e-16 0)
(3 -7.52205e-16 0)
(3 -7.25141e-16 0)
(3 -6.13316e-16 0)
(3 -4.01672e-16 0)
(3 4.26272e-17 0)
(3 8.28474e-16 0)
(3 1.37758e-15 0)
(3 1.20779e-15 0)
(3 9.95897e-16 0)
(3 2.10214e-16 0)
(3 -3.04924e-16 0)
(3 -2.36922e-16 0)
(3 -7.00807e-16 0)
(3 -1.07886e-15 0)
(3 -1.49448e-15 0)
(3 -2.66274e-15 0)
(3 -1.99069e-15 0)
(3 -5.9391e-16 0)
(3 1.12367e-16 0)
(3 1.30062e-16 0)
(3 2.44888e-16 0)
(3 3.47413e-16 0)
(3 3.08556e-16 0)
(3 9.79347e-17 0)
(3 -3.62986e-16 0)
(3 -1.27246e-15 0)
(3 -1.14082e-15 0)
(3 -2.78689e-16 0)
(3 -1.56344e-16 0)
(3 -1.0212e-15 0)
(3 -1.43618e-15 0)
(3 -1.71625e-15 0)
(3 -1.64764e-15 0)
(3 -1.32243e-15 0)
(3 -1.31577e-15 0)
(3 -1.14781e-15 0)
(3 -1.03125e-15 0)
(3 -6.41599e-16 0)
(3 -6.68559e-16 0)
(3 -8.96722e-16 0)
(3 -9.40401e-16 0)
(3 -7.90512e-16 0)
(3 -7.68125e-16 0)
(3 -2.4779e-16 0)
(3 5.01332e-16 0)
(3 2.04448e-17 0)
(3 3.43318e-10 0)
(1.74364 0.18512 0)
(0.819262 0.167987 0)
(0.760536 0.16563 0)
(0.745414 0.175136 0)
(0.727897 0.179075 0)
(0.712612 0.180714 0)
(0.6976 0.181056 0)
(0.682367 0.180213 0)
(0.666682 0.178247 0)
(0.650732 0.176756 0)
(0.635081 0.176745 0)
(0.620309 0.179156 0)
(0.606934 0.184067 0)
(0.59378 0.188838 0)
(0.57971 0.190796 0)
(0.564923 0.191332 0)
(0.550054 0.192595 0)
(0.535684 0.194236 0)
(0.521724 0.19645 0)
(0.508016 0.200447 0)
(0.49419 0.205314 0)
(0.479814 0.208711 0)
(0.465232 0.210791 0)
(0.450598 0.213595 0)
(0.435816 0.217569 0)
(0.420671 0.221785 0)
(0.405165 0.225698 0)
(0.38936 0.229585 0)
(0.373139 0.233676 0)
(0.356274 0.237822 0)
(0.338636 0.241859 0)
(0.32028 0.24577 0)
(0.301386 0.249521 0)
(0.282146 0.253027 0)
(0.262681 0.256214 0)
(0.243014 0.259041 0)
(0.223086 0.261498 0)
(0.202784 0.263618 0)
(0.181977 0.265512 0)
(0.160613 0.267308 0)
(0.138799 0.269247 0)
(0.11678 0.271183 0)
(0.0949467 0.273814 0)
(0.0733407 0.276368 0)
(0.0522616 0.280606 0)
(0.0311512 0.282982 0)
(0.0106013 0.287588 0)
(3 6.51358e-17 0)
(3 -2.5195e-17 0)
(3 -5.60288e-16 0)
(3 -7.92588e-16 0)
(3 -7.63354e-16 0)
(3 -5.96782e-16 0)
(3 -2.35206e-16 0)
(3 4.99159e-16 0)
(3 1.0688e-15 0)
(3 2.08358e-16 0)
(3 -6.69065e-16 0)
(3 -1.04314e-15 0)
(3 -7.04594e-16 0)
(3 -4.12234e-16 0)
(3 -6.90565e-16 0)
(3 -1.80884e-15 0)
(3 -2.11194e-15 0)
(3 -1.7118e-15 0)
(3 -1.57659e-15 0)
(3 -2.02371e-15 0)
(3 -2.35588e-15 0)
(3 -2.00428e-15 0)
(3 1.63449e-16 0)
(3 1.51061e-15 0)
(3 1.45271e-15 0)
(3 1.17799e-15 0)
(3 1.63407e-16 0)
(3 -1.25974e-15 0)
(3 -1.35988e-15 0)
(3 -1.83786e-15 0)
(3 -2.17389e-15 0)
(3 -2.61474e-15 0)
(3 -2.83968e-15 0)
(3 -2.23133e-15 0)
(3 -1.80644e-15 0)
(3 -2.09973e-15 0)
(3 -2.29446e-15 0)
(3 -2.19918e-15 0)
(3 -1.9742e-15 0)
(3 -1.75468e-15 0)
(3 -1.4188e-15 0)
(3 -1.55858e-15 0)
(3 -1.24983e-15 0)
(3 -7.91742e-16 0)
(3 -8.41973e-16 0)
(3 -3.95662e-16 0)
(3 1.61131e-15 0)
(3 1.24242e-15 0)
(3 6.8417e-13 0)
(2.16714 0.190229 0)
(0.862007 0.208412 0)
(0.757214 0.196057 0)
(0.742124 0.203014 0)
(0.727552 0.205038 0)
(0.714408 0.206526 0)
(0.701028 0.207796 0)
(0.68691 0.208611 0)
(0.671733 0.208122 0)
(0.655882 0.207061 0)
(0.640137 0.205975 0)
(0.625156 0.206242 0)
(0.611444 0.209455 0)
(0.598436 0.214389 0)
(0.584454 0.218126 0)
(0.569378 0.219968 0)
(0.553977 0.220937 0)
(0.539065 0.221514 0)
(0.524741 0.223157 0)
(0.510953 0.227472 0)
(0.497253 0.233224 0)
(0.482846 0.237282 0)
(0.468177 0.239306 0)
(0.45365 0.24208 0)
(0.439351 0.246598 0)
(0.424938 0.251749 0)
(0.410208 0.256582 0)
(0.395191 0.261339 0)
(0.379791 0.266437 0)
(0.363769 0.271774 0)
(0.346973 0.277105 0)
(0.329448 0.282359 0)
(0.311334 0.287508 0)
(0.292732 0.292454 0)
(0.273665 0.297077 0)
(0.254115 0.30129 0)
(0.234035 0.305032 0)
(0.213346 0.308264 0)
(0.191961 0.311045 0)
(0.169834 0.313444 0)
(0.147068 0.31578 0)
(0.123868 0.317797 0)
(0.100684 0.320459 0)
(0.07764 0.322723 0)
(0.0552534 0.326951 0)
(0.0328462 0.329322 0)
(0.0111994 0.334223 0)
(3 -2.24418e-17 0)
(3 -1.28543e-16 0)
(3 -2.70844e-16 0)
(3 -4.61628e-16 0)
(3 -5.26712e-16 0)
(3 -9.63574e-16 0)
(3 -1.02271e-15 0)
(3 -7.6348e-16 0)
(3 -2.66535e-16 0)
(3 -3.02218e-16 0)
(3 -1.49907e-15 0)
(3 -2.09444e-15 0)
(3 -2.10126e-15 0)
(3 -1.80728e-15 0)
(3 -1.36844e-15 0)
(3 -1.20069e-15 0)
(3 -1.34241e-15 0)
(3 -1.39752e-15 0)
(3 -1.28063e-15 0)
(3 -1.71013e-15 0)
(3 -2.52308e-15 0)
(3 -2.71066e-15 0)
(3 -2.78846e-15 0)
(3 -2.75917e-15 0)
(3 -2.7327e-15 0)
(3 -2.63031e-15 0)
(3 -2.22552e-15 0)
(3 -2.03661e-15 0)
(3 -2.19121e-15 0)
(3 -2.08665e-15 0)
(3 -1.76653e-15 0)
(3 -1.67345e-15 0)
(3 -1.56552e-15 0)
(3 -1.49184e-15 0)
(3 -1.06063e-15 0)
(3 -9.3269e-16 0)
(3 -4.66052e-16 0)
(3 -1.02861e-17 0)
(3 4.09196e-16 0)
(3 1.89667e-16 0)
(3 -1.09341e-15 0)
(3 -2.05284e-15 0)
(3 -2.27728e-15 0)
(3 -1.70274e-15 0)
(3 -1.64353e-15 0)
(3 -1.06381e-15 0)
(3 -6.14496e-16 0)
(3 -4.4625e-16 0)
(3 1.88767e-16 0)
(2.68693 0.169576 0)
(0.963062 0.253726 0)
(0.781707 0.232144 0)
(0.770291 0.223115 0)
(0.753546 0.22466 0)
(0.739165 0.226444 0)
(0.724893 0.229755 0)
(0.710343 0.233294 0)
(0.694896 0.23564 0)
(0.678749 0.236341 0)
(0.662487 0.235147 0)
(0.646658 0.233639 0)
(0.63154 0.235248 0)
(0.617479 0.240491 0)
(0.603077 0.246552 0)
(0.587471 0.250656 0)
(0.571293 0.252137 0)
(0.555411 0.251929 0)
(0.540011 0.252786 0)
(0.525291 0.257107 0)
(0.511023 0.263738 0)
(0.495916 0.268856 0)
(0.480242 0.27104 0)
(0.464692 0.273501 0)
(0.449674 0.278166 0)
(0.434935 0.28403 0)
(0.419992 0.289627 0)
(0.404795 0.294968 0)
(0.389324 0.300732 0)
(0.373389 0.307017 0)
(0.356826 0.31354 0)
(0.339675 0.320136 0)
(0.322079 0.326758 0)
(0.304095 0.333299 0)
(0.285672 0.339597 0)
(0.266712 0.34551 0)
(0.247093 0.350928 0)
(0.226659 0.355743 0)
(0.205265 0.359969 0)
(0.182789 0.363612 0)
(0.159281 0.367052 0)
(0.134859 0.369877 0)
(0.110011 0.373168 0)
(0.0849288 0.375544 0)
(0.0604526 0.379886 0)
(0.035884 0.382285 0)
(0.0122709 0.387515 0)
(3 2.82682e-17 0)
(3 4.31371e-17 0)
(3 2.70856e-16 0)
(3 3.85979e-16 0)
(3 1.90273e-16 0)
(3 1.0622e-16 0)
(3 -3.50308e-17 0)
(3 -5.01232e-16 0)
(3 -6.18055e-16 0)
(3 -1.41358e-16 0)
(3 1.05937e-16 0)
(3 2.34618e-16 0)
(3 3.56563e-16 0)
(3 -8.32602e-17 0)
(3 -6.59591e-17 0)
(3 -8.76681e-17 0)
(3 -3.40884e-16 0)
(3 -6.94266e-16 0)
(3 -1.10972e-15 0)
(3 -1.67448e-15 0)
(3 -2.30921e-15 0)
(3 -2.37617e-15 0)
(3 -2.74083e-15 0)
(3 -3.55858e-15 0)
(3 -3.90447e-15 0)
(3 -4.00045e-15 0)
(3 -3.79783e-15 0)
(3 -3.24628e-15 0)
(3 -1.88768e-15 0)
(3 -1.72357e-15 0)
(3 -1.44144e-15 0)
(3 -9.25114e-16 0)
(3 -5.69557e-16 0)
(3 -8.87822e-16 0)
(3 -1.38907e-15 0)
(3 -9.18683e-16 0)
(3 -5.28005e-16 0)
(3 -9.47863e-18 0)
(3 3.71387e-16 0)
(3 1.58312e-16 0)
(3 -5.57026e-16 0)
(3 -6.03312e-16 0)
(3 -4.91309e-16 0)
(3 -3.95899e-16 0)
(3 -4.48319e-16 0)
(3 -3.05937e-16 0)
(3 -3.25455e-16 0)
(3 -3.74835e-16 0)
(3 6.87983e-17 0)
(3.02022 0.0100969 0)
(1.14857 0.277883 0)
(0.808346 0.232763 0)
(0.795058 0.246687 0)
(0.778862 0.252481 0)
(0.763384 0.254862 0)
(0.748597 0.257671 0)
(0.734582 0.261157 0)
(0.720556 0.264213 0)
(0.705892 0.265884 0)
(0.690544 0.265315 0)
(0.674982 0.26307 0)
(0.659399 0.262946 0)
(0.64472 0.267279 0)
(0.630703 0.274228 0)
(0.615803 0.280228 0)
(0.599863 0.282948 0)
(0.583761 0.282687 0)
(0.567792 0.282709 0)
(0.552283 0.28651 0)
(0.537563 0.293782 0)
(0.522112 0.30059 0)
(0.505574 0.303924 0)
(0.48887 0.306326 0)
(0.47269 0.31098 0)
(0.457123 0.317569 0)
(0.441493 0.324205 0)
(0.425554 0.330284 0)
(0.409355 0.336631 0)
(0.39279 0.343712 0)
(0.375697 0.351343 0)
(0.358071 0.359256 0)
(0.340059 0.367359 0)
(0.321736 0.3756 0)
(0.303001 0.383863 0)
(0.283657 0.392009 0)
(0.263482 0.399897 0)
(0.242249 0.407324 0)
(0.219814 0.414154 0)
(0.196114 0.420219 0)
(0.17132 0.425766 0)
(0.145529 0.430213 0)
(0.119166 0.434678 0)
(0.092211 0.437558 0)
(0.0655193 0.441928 0)
(0.0388308 0.444119 0)
(0.0131787 0.449389 0)
(3 -8.41407e-17 0)
(3 1.07091e-16 0)
(3 1.5761e-16 0)
(3 3.11473e-16 0)
(3 2.43367e-16 0)
(3 4.83102e-16 0)
(3 7.90424e-16 0)
(3 5.89519e-16 0)
(3 -1.23757e-17 0)
(3 3.49748e-16 0)
(3 8.31439e-16 0)
(3 1.70024e-15 0)
(3 2.11298e-15 0)
(3 2.25817e-15 0)
(3 1.62006e-15 0)
(3 6.3092e-16 0)
(3 2.69008e-16 0)
(3 1.11306e-16 0)
(3 -8.34434e-16 0)
(3 -2.62001e-15 0)
(3 -3.12261e-15 0)
(3 -2.94927e-15 0)
(3 -2.91393e-15 0)
(3 -3.36785e-15 0)
(3 -3.71709e-15 0)
(3 -3.70519e-15 0)
(3 -3.91524e-15 0)
(3 -3.75852e-15 0)
(3 -3.30978e-15 0)
(3 -2.64507e-15 0)
(3 -1.84238e-15 0)
(3 -9.67408e-16 0)
(3 -7.42848e-16 0)
(3 -6.5028e-16 0)
(3 4.43772e-16 0)
(3 5.56523e-16 0)
(3 7.38011e-16 0)
(3 1.40706e-16 0)
(3 -1.40418e-16 0)
(3 -3.4777e-16 0)
(3 3.2865e-16 0)
(3 5.15739e-16 0)
(3 1.1549e-15 0)
(3 1.65157e-15 0)
(3 1.75894e-15 0)
(3 1.73108e-15 0)
(3 1.70692e-15 0)
(3 1.47363e-15 0)
(3 1.33531e-15 0)
(3.00029 9.90144e-06 0)
(1.55766 0.309176 0)
(0.825475 0.274468 0)
(0.781183 0.281883 0)
(0.765861 0.287694 0)
(0.751817 0.287767 0)
(0.7392 0.287945 0)
(0.727393 0.290222 0)
(0.71582 0.294015 0)
(0.703628 0.297711 0)
(0.690409 0.299401 0)
(0.676515 0.298468 0)
(0.662216 0.297729 0)
(0.648221 0.300685 0)
(0.635393 0.307513 0)
(0.62257 0.315108 0)
(0.608601 0.319727 0)
(0.594064 0.320505 0)
(0.579357 0.320339 0)
(0.564712 0.323279 0)
(0.551032 0.330403 0)
(0.537215 0.338511 0)
(0.521919 0.343452 0)
(0.505897 0.346055 0)
(0.490004 0.350241 0)
(0.47483 0.356913 0)
(0.459848 0.36432 0)
(0.44448 0.371093 0)
(0.428707 0.377789 0)
(0.412499 0.385285 0)
(0.395688 0.393706 0)
(0.378229 0.402767 0)
(0.360293 0.412233 0)
(0.342124 0.422113 0)
(0.32373 0.432326 0)
(0.304937 0.442743 0)
(0.285439 0.453136 0)
(0.264985 0.463298 0)
(0.243261 0.472881 0)
(0.22001 0.481526 0)
(0.195282 0.489479 0)
(0.168775 0.496387 0)
(0.140538 0.503726 0)
(0.110138 0.509773 0)
(0.0786326 0.516166 0)
(0.0464743 0.519126 0)
(0.0155821 0.524204 0)
(3 7.5965e-17 0)
(3 8.53197e-17 0)
(3 -1.80558e-16 0)
(3 -4.60382e-16 0)
(3 -4.68454e-16 0)
(3 -4.95303e-16 0)
(3 -5.91976e-16 0)
(3 -9.18686e-16 0)
(3 -1.09753e-15 0)
(3 -9.03469e-16 0)
(3 -4.4075e-16 0)
(3 -6.75732e-17 0)
(3 7.20332e-16 0)
(3 1.40679e-15 0)
(3 1.43955e-15 0)
(3 1.14198e-15 0)
(3 7.82351e-16 0)
(3 5.66339e-16 0)
(3 6.86121e-16 0)
(3 8.4625e-16 0)
(3 5.97153e-16 0)
(3 -1.87381e-15 0)
(3 -2.32715e-15 0)
(3 -2.51071e-15 0)
(3 -2.74224e-15 0)
(3 -3.00844e-15 0)
(3 -3.1446e-15 0)
(3 -2.47999e-15 0)
(3 -1.94504e-15 0)
(3 -1.52753e-15 0)
(3 -1.65304e-15 0)
(3 -1.5305e-15 0)
(3 -6.1069e-16 0)
(3 -3.90677e-16 0)
(3 -2.18394e-16 0)
(3 1.23257e-16 0)
(3 1.17308e-16 0)
(3 -2.38089e-16 0)
(3 -4.80642e-16 0)
(3 -7.56775e-16 0)
(3 -7.48681e-16 0)
(3 -8.11722e-16 0)
(3 -4.06738e-16 0)
(3 2.32482e-16 0)
(3 6.60599e-16 0)
(3 8.45722e-17 0)
(3 -7.06357e-16 0)
(3 -8.39475e-16 0)
(3 -6.91914e-16 0)
(3 1.84429e-08 0)
(2.38501 0.279542 0)
(0.921369 0.333839 0)
(0.792194 0.323268 0)
(0.779281 0.315596 0)
(0.764514 0.315354 0)
(0.75178 0.314547 0)
(0.739895 0.316305 0)
(0.728605 0.320426 0)
(0.71721 0.325501 0)
(0.704952 0.329349 0)
(0.691774 0.3304 0)
(0.678089 0.329899 0)
(0.66428 0.331578 0)
(0.651485 0.337284 0)
(0.639641 0.345196 0)
(0.627124 0.351467 0)
(0.613736 0.353984 0)
(0.599948 0.354491 0)
(0.585906 0.356903 0)
(0.5726 0.363543 0)
(0.559957 0.372692 0)
(0.546039 0.380107 0)
(0.530811 0.384242 0)
(0.515229 0.388573 0)
(0.500198 0.395396 0)
(0.485771 0.403829 0)
(0.471198 0.412066 0)
(0.456118 0.419776 0)
(0.440537 0.428156 0)
(0.424216 0.437602 0)
(0.407079 0.448117 0)
(0.38919 0.459316 0)
(0.370952 0.471174 0)
(0.352478 0.48363 0)
(0.333672 0.496677 0)
(0.314149 0.510259 0)
(0.293255 0.524141 0)
(0.270737 0.538215 0)
(0.24583 0.552044 0)
(0.21848 0.565797 0)
(0.188494 0.578907 0)
(0.156758 0.592165 0)
(0.123723 0.604052 0)
(0.0897744 0.613638 0)
(0.054572 0.618475 0)
(0.0174516 0.621752 0)
(3 2.34862e-16 0)
(3 3.53635e-16 0)
(3 2.47613e-16 0)
(3 5.46638e-17 0)
(3 1.55163e-16 0)
(3 4.93195e-17 0)
(3 -4.27061e-16 0)
(3 -1.02361e-15 0)
(3 -1.07298e-15 0)
(3 -1.11184e-15 0)
(3 -1.0879e-15 0)
(3 -1.04077e-15 0)
(3 -6.66889e-16 0)
(3 -1.09801e-16 0)
(3 5.74816e-16 0)
(3 5.78347e-16 0)
(3 3.1679e-16 0)
(3 -1.68171e-16 0)
(3 2.25794e-16 0)
(3 8.62422e-16 0)
(3 1.36072e-15 0)
(3 1.20247e-15 0)
(3 9.91202e-16 0)
(3 4.56089e-16 0)
(3 -1.4374e-16 0)
(3 -3.90758e-16 0)
(3 -4.43536e-16 0)
(3 -2.74761e-16 0)
(3 -4.15279e-17 0)
(3 -5.79103e-17 0)
(3 -4.43662e-16 0)
(3 -5.64789e-16 0)
(3 -5.80152e-16 0)
(3 -6.60265e-16 0)
(3 -1.01271e-15 0)
(3 -1.6272e-15 0)
(3 -1.24963e-15 0)
(3 -8.75188e-16 0)
(3 -1.09325e-15 0)
(3 -2.16158e-15 0)
(3 -2.27121e-15 0)
(3 -1.98045e-15 0)
(3 -2.21066e-15 0)
(3 -2.68859e-15 0)
(3 -2.6594e-15 0)
(3 -2.71828e-15 0)
(3 -2.53246e-15 0)
(3 -2.11409e-15 0)
(3 -1.66491e-15 0)
(3 -7.1841e-09 0)
(3.02716 0.0171645 0)
(1.25781 0.373481 0)
(0.842836 0.331126 0)
(0.819148 0.340082 0)
(0.803293 0.338707 0)
(0.788851 0.336803 0)
(0.775206 0.337974 0)
(0.762207 0.342318 0)
(0.749659 0.348729 0)
(0.736874 0.355055 0)
(0.723298 0.359161 0)
(0.709128 0.360544 0)
(0.694813 0.361727 0)
(0.681129 0.36586 0)
(0.668758 0.373001 0)
(0.656629 0.380393 0)
(0.643695 0.385375 0)
(0.630106 0.387903 0)
(0.616163 0.390677 0)
(0.602589 0.396738 0)
(0.590115 0.40621 0)
(0.57731 0.41589 0)
(0.56299 0.422657 0)
(0.54786 0.42794 0)
(0.532941 0.434884 0)
(0.518781 0.443953 0)
(0.505144 0.453914 0)
(0.491065 0.463335 0)
(0.476772 0.473032 0)
(0.461584 0.483742 0)
(0.445425 0.495924 0)
(0.428255 0.509274 0)
(0.410429 0.523602 0)
(0.392345 0.538954 0)
(0.374074 0.555371 0)
(0.355587 0.572982 0)
(0.336352 0.591728 0)
(0.315814 0.611563 0)
(0.293377 0.632022 0)
(0.268648 0.652375 0)
(0.241475 0.671387 0)
(0.211641 0.68784 0)
(0.179572 0.703637 0)
(0.142164 0.722341 0)
(0.0959024 0.74449 0)
(0.0365993 0.764026 0)
(3 -3.55287e-17 0)
(3 -1.54506e-16 0)
(3 1.72229e-17 0)
(3 2.66664e-16 0)
(3 4.00464e-16 0)