/*--------------------------------*- C++ -*----------------------------------*\
  =========                 |
  \\      /  F ield         | OpenFOAM: The Open Source CFD Toolbox
   \\    /   O peration     | Website:  https://openfoam.org
    \\  /    A nd           | Version:  7
     \\/     M anipulation  |
\*---------------------------------------------------------------------------*/
FoamFile
{
    version     2.0;
    format      ascii;
    class       volScalarField;
    location    "0.43";
    object      T;
}
// * * * * * * * * * * * * * * * * * * * * * * * * * * * * * * * * * * * * * //

dimensions      [0 0 0 1 0 0 0];

internalField   nonuniform List<scalar> 
1000
(
3.51227e-07
3.51912e-07
3.53292e-07
3.55376e-07
3.58174e-07
3.61699e-07
3.65964e-07
3.70983e-07
3.76772e-07
3.83349e-07
3.90733e-07
3.98945e-07
4.08006e-07
4.1794e-07
4.28773e-07
4.40532e-07
4.53245e-07
4.66945e-07
4.81662e-07
4.97432e-07
5.14293e-07
5.32281e-07
5.5144e-07
5.71812e-07
5.93443e-07
6.1638e-07
6.40676e-07
6.66383e-07
6.93557e-07
7.22258e-07
7.52547e-07
7.84489e-07
8.18153e-07
8.5361e-07
8.90935e-07
9.30207e-07
9.71508e-07
1.01492e-06
1.06054e-06
1.10847e-06
1.15878e-06
1.21161e-06
1.26704e-06
1.32519e-06
1.38618e-06
1.45014e-06
1.51719e-06
1.58746e-06
1.66111e-06
1.73826e-06
1.81909e-06
1.90374e-06
1.99238e-06
2.08519e-06
2.18235e-06
2.28405e-06
2.39048e-06
2.50185e-06
2.61838e-06
2.74029e-06
2.86781e-06
3.00119e-06
3.14068e-06
3.28653e-06
3.43904e-06
3.59848e-06
3.76516e-06
3.93937e-06
4.12146e-06
4.31175e-06
4.5106e-06
4.71837e-06
4.93544e-06
5.1622e-06
5.39908e-06
5.6465e-06
5.9049e-06
6.17475e-06
6.45654e-06
6.75076e-06
7.05794e-06
7.37863e-06
7.71338e-06
8.06279e-06
8.42746e-06
8.80804e-06
9.20519e-06
9.61958e-06
1.00519e-05
1.0503e-05
1.09736e-05
1.14644e-05
1.19763e-05
1.25102e-05
1.3067e-05
1.36476e-05
1.4253e-05
1.48842e-05
1.55421e-05
1.6228e-05
1.6943e-05
1.76881e-05
1.84647e-05
1.92739e-05
2.01171e-05
2.09957e-05
2.1911e-05
2.28646e-05
2.38578e-05
2.48924e-05
2.59698e-05
2.70919e-05
2.82603e-05
2.94769e-05
3.07436e-05
3.20622e-05
3.34349e-05
3.48637e-05
3.63508e-05
3.78985e-05
3.9509e-05
4.11848e-05
4.29284e-05
4.47424e-05
4.66295e-05
4.85924e-05
5.0634e-05
5.27573e-05
5.49654e-05
5.72615e-05
5.96488e-05
6.21308e-05
6.47111e-05
6.73932e-05
7.0181e-05
7.30784e-05
7.60895e-05
7.92183e-05
8.24693e-05
8.5847e-05
8.93559e-05
9.30008e-05
9.67868e-05
0.000100719
0.000104802
0.000109043
0.000113445
0.000118016
0.000122762
0.000127688
0.000132801
0.000138107
0.000143614
0.000149329
0.000155258
0.00016141
0.000167792
0.000174411
0.000181278
0.000188399
0.000195784
0.000203441
0.000211381
0.000219613
0.000228146
0.000236992
0.00024616
0.000255661
0.000265507
0.00027571
0.000286281
0.000297232
0.000308577
0.000320327
0.000332498
0.000345102
0.000358153
0.000371667
0.000385658
0.000400143
0.000415136
0.000430654
0.000446715
0.000463336
0.000480534
0.000498327
0.000516736
0.000535779
0.000555476
0.000575848
0.000596916
0.000618702
0.000641227
0.000664515
0.00068859
0.000713475
0.000739195
0.000765776
0.000793244
0.000821626
0.00085095
0.000881242
0.000912534
0.000944854
0.000978233
0.0010127
0.00104829
0.00108504
0.00112298
0.00116214
0.00120256
0.00124427
0.00128732
0.00133174
0.00137756
0.00142484
0.00147361
0.00152392
0.00157579
0.00162929
0.00168446
0.00174133
0.00179997
0.00186041
0.00192271
0.00198691
0.00205307
0.00212124
0.00219148
0.00226384
0.00233837
0.00241514
0.0024942
0.00257561
0.00265944
0.00274574
0.00283459
0.00292604
0.00302016
0.00311703
0.0032167
0.00331925
0.00342476
0.00353329
0.00364493
0.00375974
0.00387781
0.00399921
0.00412403
0.00425235
0.00438425
0.00451982
0.00465915
0.00480232
0.00494942
0.00510056
0.00525581
0.00541527
0.00557905
0.00574723
0.00591993
0.00609723
0.00627926
0.0064661
0.00665786
0.00685466
0.00705661
0.00726381
0.00747638
0.00769443
0.00791809
0.00814746
0.00838267
0.00862385
0.0088711
0.00912457
0.00938437
0.00965064
0.0099235
0.0102031
0.0104895
0.010783
0.0110836
0.0113914
0.0117067
0.0120295
0.01236
0.0126983
0.0130446
0.0133991
0.0137618
0.014133
0.0145127
0.0149012
0.0152986
0.015705
0.0161207
0.0165457
0.0169802
0.0174244
0.0178784
0.0183425
0.0188167
0.0193013
0.0197964
0.0203022
0.0208188
0.0213464
0.0218852
0.0224354
0.0229971
0.0235705
0.0241557
0.024753
0.0253625
0.0259844
0.0266189
0.0272662
0.0279263
0.0285995
0.029286
0.029986
0.0306995
0.0314269
0.0321682
0.0329236
0.0336934
0.0344777
0.0352766
0.0360903
0.0369191
0.037763
0.0386223
0.039497
0.0403875
0.0412938
0.0422161
0.0431545
0.0441093
0.0450806
0.0460685
0.0470732
0.0480949
0.0491336
0.0501896
0.0512631
0.052354
0.0534627
0.0545891
0.0557335
0.056896
0.0580767
0.0592758
0.0604933
0.0617294
0.0629842
0.0642578
0.0655503
0.0668618
0.0681925
0.0695424
0.0709115
0.0723001
0.0737081
0.0751356
0.0765828
0.0780497
0.0795363
0.0810427
0.0825689
0.084115
0.0856811
0.0872671
0.0888731
0.0904991
0.0921451
0.0938111
0.0954972
0.0972033
0.0989294
0.100676
0.102442
0.104228
0.106033
0.107859
0.109705
0.11157
0.113455
0.115359
0.117283
0.119227
0.121189
0.123171
0.125172
0.127192
0.12923
0.131287
0.133363
0.135457
0.137569
0.1397
0.141848
0.144013
0.146196
0.148396
0.150614
0.152847
0.155098
0.157364
0.159647
0.161945
0.164259
0.166588
0.168932
0.17129
0.173662
0.176049
0.178448
0.180862
0.183288
0.185726
0.188177
0.190639
0.193113
0.195598
0.198093
0.200598
0.203114
0.205638
0.208171
0.210713
0.213263
0.21582
0.218384
0.220955
0.223532
0.226114
0.228701
0.231293
0.233889
0.236488
0.239091
0.241695
0.244302
0.24691
0.249519
0.252127
0.254736
0.257343
0.259949
0.262553
0.265154
0.267751
0.270345
0.272934
0.275518
0.278096
0.280668
0.283232
0.285789
0.288338
0.290878
0.293408
0.295928
0.298437
0.300935
0.30342
0.305893
0.308352
0.310797
0.313228
0.315643
0.318042
0.320424
0.322789
0.325136
0.327464
0.329773
0.332063
0.334331
0.336579
0.338804
0.341008
0.343188
0.345344
0.347476
0.349583
0.351665
0.35372
0.355749
0.35775
0.359724
0.361669
0.363584
0.365471
0.367326
0.369151
0.370945
0.372707
0.374436
0.376133
0.377796
0.379425
0.38102
0.382579
0.384104
0.385592
0.387044
0.388459
0.389837
0.391177
0.39248
0.393743
0.394968
0.396154
0.3973
0.398406
0.399471
0.400496
0.40148
0.402423
0.403324
0.404183
0.405001
0.405775
0.406507
0.407197
0.407843
0.408446
0.409005
0.409521
0.409993
0.410422
0.410806
0.411146
0.411441
0.411693
0.4119
0.412062
0.41218
0.412254
0.412283
0.412267
0.412207
0.412102
0.411953
0.41176
0.411522
0.41124
0.410914
0.410544
0.41013
0.409672
0.409171
0.408627
0.408039
0.407408
0.406735
0.406019
0.405261
0.40446
0.403618
0.402735
0.40181
0.400845
0.399839
0.398792
0.397706
0.396581
0.395416
0.394212
0.392971
0.391691
0.390373
0.389019
0.387628
0.3862
0.384737
0.383239
0.381705
0.380138
0.378536
0.376901
0.375234
0.373534
0.371802
0.370039
0.368245
0.366421
0.364567
0.362685
0.360774
0.358835
0.356868
0.354875
0.352856
0.350811
0.348741
0.346647
0.344529
0.342388
0.340224
0.338038
0.335831
0.333604
0.331356
0.329089
0.326803
0.324499
0.322178
0.319839
0.317485
0.315114
0.312729
0.310329
0.307916
0.305489
0.30305
0.300599
0.298137
0.295664
0.293181
0.290689
0.288188
0.285679
0.283162
0.280639
0.278109
0.275573
0.273032
0.270487
0.267938
0.265385
0.26283
0.260272
0.257713
0.255152
0.252591
0.25003
0.24747
0.24491
0.242353
0.239797
0.237244
0.234694
0.232148
0.229606
0.227069
0.224537
0.22201
0.219489
0.216975
0.214468
0.211969
0.209477
0.206994
0.204519
0.202054
0.199598
0.197151
0.194716
0.192291
0.189877
0.187474
0.185083
0.182704
0.180338
0.177985
0.175644
0.173317
0.171004
0.168705
0.16642
0.164149
0.161894
0.159653
0.157428
0.155218
0.153025
0.150847
0.148685
0.14654
0.144412
0.1423
0.140206
0.138128
0.136068
0.134026
0.132001
0.129994
0.128005
0.126034
0.124081
0.122147
0.120231
0.118333
0.116454
0.114594
0.112752
0.110929
0.109125
0.10734
0.105574
0.103827
0.102099
0.10039
0.0987003
0.0970294
0.0953777
0.093745
0.0921315
0.090537
0.0889616
0.0874052
0.0858678
0.0843494
0.0828499
0.0813693
0.0799076
0.0784647
0.0770404
0.0756349
0.074248
0.0728795
0.0715296
0.070198
0.0688847
0.0675895
0.0663125
0.0650535
0.0638124
0.0625891
0.0613835
0.0601955
0.0590249
0.0578718
0.0567358
0.055617
0.0545151
0.0534301
0.0523619
0.0513102
0.050275
0.0492562
0.0482535
0.0472669
0.0462962
0.0453412
0.0444019
0.043478
0.0425695
0.0416761
0.0407977
0.0399342
0.0390855
0.0382512
0.0374314
0.0366258
0.0358343
0.0350567
0.0342929
0.0335427
0.032806
0.0320826
0.0313722
0.0306749
0.0299903
0.0293184
0.028659
0.0280119
0.027377
0.0267541
0.026143
0.0255436
0.0249558
0.0243793
0.023814
0.0232598
0.0227164
0.0221838
0.0216618
0.0211502
0.0206489
0.0201576
0.0196764
0.0192049
0.0187431
0.0182909
0.0178479
0.0174142
0.0169896
0.0165739
0.0161669
0.0157686
0.0153787
0.0149972
0.0146239
0.0142587
0.0139014
0.0135519
0.0132101
0.0128757
0.0125488
0.0122291
0.0119166
0.011611
0.0113124
0.0110204
0.0107351
0.0104563
0.0101839
0.00991776
0.00965775
0.00940377
0.0091557
0.00891343
0.00867684
0.00844583
0.00822028
0.00800009
0.00778515
0.00757536
0.00737061
0.0071708
0.00697583
0.00678561
0.00660003
0.00641899
0.00624241
0.00607019
0.00590224
0.00573846
0.00557878
0.00542309
0.00527133
0.00512339
0.0049792
0.00483868
0.00470175
0.00456832
0.00443832
0.00431167
0.0041883
0.00406813
0.0039511
0.00383713
0.00372614
0.00361808
0.00351287
0.00341045
0.00331076
0.00321372
0.00311929
0.00302738
0.00293796
0.00285095
0.0027663
0.00268396
0.00260386
0.00252596
0.00245019
0.00237651
0.00230487
0.00223522
0.0021675
0.00210167
0.00203768
0.00197549
0.00191505
0.00185632
0.00179925
0.0017438
0.00168993
0.0016376
0.00158677
0.0015374
0.00148945
0.00144289
0.00139768
0.00135378
0.00131116
0.00126979
0.00122963
0.00119066
0.00115283
0.00111612
0.0010805
0.00104594
0.00101241
0.000979876
0.000948322
0.000917717
0.000888034
0.000859247
0.000831333
0.000804267
0.000778026
0.000752586
0.000727925
0.000704021
0.000680853
0.000658399
0.000636641
0.000615557
0.00059513
0.000575339
0.000556167
0.000537596
0.000519608
0.000502187
0.000485316
0.000468979
0.000453161
0.000437847
0.00042302
0.000408668
0.000394776
0.000381331
0.000368319
0.000355727
0.000343544
0.000331755
0.000320351
0.000309319
0.000298647
0.000288326
0.000278345
0.000268692
0.000259359
0.000250335
0.000241611
0.000233178
0.000225027
0.000217149
0.000209536
0.000202179
0.000195071
0.000188204
0.000181571
0.000175164
0.000168976
0.000163001
0.000157232
0.000151662
0.000146285
0.000141096
0.000136088
0.000131255
0.000126594
0.000122097
0.00011776
0.000113577
0.000109545
0.000105659
0.000101913
9.83042e-05
9.48276e-05
9.14796e-05
8.8256e-05
8.51531e-05
8.21673e-05
7.92952e-05
7.65332e-05
7.38783e-05
7.13272e-05
6.88769e-05
6.65245e-05
6.42674e-05
6.21028e-05
6.00281e-05
5.8041e-05
5.61391e-05
5.43201e-05
5.25821e-05
5.09229e-05
4.93406e-05
4.78334e-05
4.63997e-05
4.50377e-05
4.3746e-05
4.25232e-05
4.13678e-05
4.02788e-05
3.92548e-05
3.8295e-05
3.73983e-05
3.65639e-05
3.57909e-05
3.50788e-05
3.4427e-05
3.38349e-05
3.33022e-05
3.28286e-05
3.24138e-05
3.20578e-05
3.17606e-05
3.15222e-05
3.13428e-05
3.12227e-05
3.11624e-05
)
;

boundaryField
{
    sides
    {
        type            zeroGradient;
    }
    empty
    {
        type            empty;
    }
}


// ************************************************************************* //
