/*--------------------------------*- C++ -*----------------------------------*\
  =========                 |
  \\      /  F ield         | OpenFOAM: The Open Source CFD Toolbox
   \\    /   O peration     | Website:  https://openfoam.org
    \\  /    A nd           | Version:  7
     \\/     M anipulation  |
\*---------------------------------------------------------------------------*/
FoamFile
{
    version     2.0;
    format      ascii;
    class       volScalarField;
    location    "3.04";
    object      T;
}
// * * * * * * * * * * * * * * * * * * * * * * * * * * * * * * * * * * * * * //

dimensions      [0 0 0 1 0 0 0];

internalField   nonuniform List<scalar> 
1000
(
0
0
0
0
0
0
0
0
0
0
0
0
0
0
0
0
0
0
0
0
0
0
0
0
0
0
0
0
0
0
0
0
0
0
0
0
0
0
0
0
0
0
0
0
0
0
0
0
0
0
0
0
0
0
0
0
0
0
0
0
0
0
0
0
0
0
0
0
0
0
0
0
0
0
0
0
0
0
0
0
0
0
0
0
0
0
0
0
0
0
0
0
0
0
0
0
0
0
0
0
0
0
0
0
0
0
0
0
0
0
0
0
0
0
0
-2.96439e-323
-2.30729e-321
-3.96438e-320
1.0688e-318
6.61291e-317
7.49337e-316
-4.25679e-314
-1.78351e-312
-4.45551e-312
1.56065e-309
4.12013e-308
-5.03657e-307
-4.98483e-305
-6.28219e-304
3.29888e-302
1.27381e-300
-4.85124e-300
-1.28016e-297
-1.99687e-296
8.18533e-295
3.32001e-293
-1.83277e-292
-3.38102e-290
-3.75384e-289
2.54342e-287
7.25435e-286
-1.31175e-284
-8.47818e-283
1.04456e-282
7.93126e-280
8.35976e-279
-6.35588e-277
-1.43232e-275
4.42022e-274
1.7168e-272
-2.5834e-271
-1.77173e-269
1.08665e-268
1.68663e-266
-6.12506e-268
-1.53533e-263
-6.80648e-263
1.36854e-260
1.03987e-259
-1.21519e-257
-1.14591e-256
1.08735e-254
1.06341e-253
-9.85478e-252
-8.41928e-251
9.0266e-249
5.1841e-248
-8.2759e-246
-1.23701e-245
7.46834e-243
-3.09336e-242
-6.47019e-240
7.38227e-239
5.1763e-237
-1.10638e-235
-3.54759e-234
1.34499e-232
1.65381e-231
-1.38504e-229
2.93507e-229
1.18118e-226
-1.94575e-225
-7.43828e-224
2.89237e-222
1.66321e-221
-2.82199e-219
3.75806e-218
1.73331e-216
-6.76655e-215
-8.13378e-215
6.04413e-212
-1.30755e-210
-2.12362e-209
1.64924e-207
-2.37496e-206
-7.89715e-205
4.19191e-203
-5.07654e-202
-2.09854e-200
1.064e-198
-1.51828e-197
-4.16928e-196
2.65891e-194
-5.49666e-193
-3.22765e-192
5.77918e-190
-1.85979e-188
2.20625e-187
6.94799e-186
-4.60841e-184
1.30832e-182
-1.6701e-181
-3.63042e-180
2.97479e-178
-1.04313e-176
2.37765e-175
-2.70849e-174
-6.28175e-173
5.30434e-171
-2.17125e-169
6.92985e-168
-1.90911e-166
4.73092e-165
-1.07768e-163
2.28671e-162
-4.55985e-161
8.59929e-160
-1.54103e-158
2.63391e-157
-4.30643e-156
6.75164e-155
-1.01707e-153
1.47459e-152
-2.06066e-151
2.77902e-150
-3.62073e-149
4.56169e-148
-5.5621e-147
6.56822e-146
-7.5167e-145
8.34098e-144
-8.97904e-143
9.38098e-142
-9.51551e-141
9.37385e-140
-8.97058e-139
8.34133e-138
-7.53768e-137
6.62042e-136
-5.65219e-135
4.69087e-134
-3.78439e-133
2.96777e-132
-2.26213e-131
1.67573e-130
-1.20618e-129
8.43406e-129
-5.72736e-128
3.77579e-127
-2.41551e-126
1.49876e-125
-9.01393e-125
5.25091e-124
-2.96017e-123
1.61328e-122
-8.48934e-122
4.30677e-121
-2.1025e-120
9.85415e-120
-4.42095e-119
1.89121e-118
-7.6736e-118
2.93107e-117
-1.04195e-116
3.38186e-116
-9.65945e-116
2.21719e-115
-2.74246e-115
-8.57197e-115
8.40682e-114
-4.11111e-113
1.50445e-112
-4.25723e-112
8.06344e-112
3.51987e-113
-8.82931e-111
4.81456e-110
-1.67945e-109
3.95362e-109
-3.50515e-109
-2.20274e-108
1.47143e-107
-5.17338e-107
1.10137e-106
-3.05505e-107
-9.1567e-106
4.59847e-105
-1.26474e-104
1.46661e-104
5.12867e-104
-3.61365e-103
1.10793e-102
-1.50041e-102
-3.53696e-102
2.79566e-101
-8.35764e-101
9.49005e-101
3.40413e-100
-2.13855e-99
5.36862e-99
-2.50605e-99
-3.5062e-98
1.49499e-97
-2.56448e-97
-2.8972e-97
3.0646e-96
-8.30152e-96
4.21501e-96
5.04323e-95
-1.98881e-94
2.60491e-94
6.7424e-94
-4.07953e-93
7.61655e-93
6.91025e-93
-7.65438e-92
1.75941e-91
3.99366e-92
-1.37156e-90
3.57912e-90
-2.75345e-91
-2.42061e-89
6.68341e-89
-1.02882e-89
-4.28189e-88
1.16288e-87
-5.23828e-89
-7.59921e-87
1.88058e-86
4.79525e-87
-1.33344e-85
2.77025e-85
2.23466e-85
-2.25576e-84
3.54042e-84
6.46048e-84
-3.56301e-83
3.43884e-83
1.47279e-82
-5.04137e-82
1.08187e-82
2.80073e-81
-5.96661e-81
-5.33999e-81
4.46313e-80
-4.92995e-80
-1.69884e-79
5.75803e-79
-1.41508e-80
-3.21932e-78
5.33693e-78
9.32754e-78
-4.40581e-77
1.67105e-77
2.14263e-76
-4.06458e-76
-5.60609e-76
2.95641e-75
-1.13344e-75
-1.39782e-74
2.44479e-74
4.06325e-74
-1.77212e-73
1.22802e-74
8.83687e-73
-1.10769e-72
-3.14022e-72
9.04608e-72
5.53955e-72
-5.02933e-71
2.56764e-71
2.17079e-70
-3.39134e-70
-7.08019e-70
2.27502e-69
1.25128e-69
-1.17619e-68
4.36008e-69
5.06713e-68
-6.13301e-68
-1.82568e-67
4.1778e-67
5.11854e-67
-2.23626e-66
-7.22655e-67
1.03607e-65
-3.53206e-66
-4.2978e-65
4.1118e-65
1.61323e-64
-2.65478e-64
-5.44748e-64
1.39979e-63
1.60544e-63
-6.59074e-63
-3.73623e-63
2.87524e-62
3.79963e-63
-1.18555e-61
2.70253e-62
4.67979e-61
-2.55814e-61
-1.78517e-60
1.50047e-60
6.63225e-60
-7.40694e-60
-2.41673e-59
3.32485e-59
8.69568e-59
-1.40132e-58
-3.10964e-58
5.63689e-58
1.11192e-57
-2.18404e-57
-3.99582e-57
8.1927e-57
1.4481e-56
-2.98237e-56
-5.29893e-56
1.05367e-55
1.95552e-55
-3.60505e-55
-7.25371e-55
1.18866e-54
2.69112e-54
-3.74353e-54
-9.92743e-54
1.10834e-53
3.61871e-53
-2.99016e-53
-1.29507e-52
6.82047e-53
4.52009e-52
-9.84202e-53
-1.5273e-51
-1.62196e-52
4.95206e-51
2.27117e-51
-1.52247e-50
-1.3185e-50
4.35745e-50
6.02773e-50
-1.12273e-49
-2.40915e-49
2.40801e-49
8.69299e-49
-3.17146e-49
-2.85357e-48
-5.30872e-49
8.45577e-48
6.34813e-48
-2.20056e-47
-3.21467e-47
4.66487e-47
1.2503e-46
-5.93202e-47
-4.08686e-46
-9.71363e-47
1.13207e-45
1.07004e-45
-2.52806e-45
-4.92323e-45
3.63507e-45
1.68332e-44
2.56225e-45
-4.5745e-44
-4.36577e-44
9.31921e-44
1.98994e-43
-9.26815e-44
-6.30803e-43
-2.90821e-43
1.47757e-42
2.11721e-42
-2.10271e-42
-7.68132e-42
-1.50648e-42
1.92281e-41
2.25431e-41
-2.92722e-41
-8.88299e-41
-1.16692e-41
2.22098e-40
2.59238e-40
-3.09935e-40
-1.00174e-39
-2.67459e-40
2.29657e-39
3.20215e-39
-2.33515e-39
-1.07875e-38
-6.29196e-39
2.01053e-38
3.91764e-38
-4.6339e-39
-1.03602e-37
-1.12439e-37
1.21609e-37
4.2718e-37
2.27056e-37
-7.67936e-37
-1.52365e-36
-6.065e-38
3.63289e-36
4.85503e-36
-2.43888e-36
-1.4928e-35
-1.4025e-35
1.69186e-35
5.64491e-35
3.69423e-35
-8.304e-35
-2.03034e-34
-8.90265e-35
3.51769e-34
7.10961e-34
1.9995e-34
-1.36883e-33
-2.46672e-33
-4.58842e-34
5.02732e-33
8.58356e-33
1.37096e-33
-1.7628e-32
-3.01266e-32
-6.18083e-33
5.90699e-32
1.06479e-31
3.37851e-32
-1.87391e-31
-3.75761e-31
-1.82406e-31
5.49315e-31
1.30523e-30
9.1345e-31
-1.40623e-30
-4.37635e-30
-4.19948e-30
2.64168e-30
1.37893e-29
1.76908e-29
-7.03744e-32
-3.91209e-29
-6.7861e-29
-3.27549e-29
9.11942e-29
2.33138e-28
2.15737e-28
-1.22505e-28
-6.908e-28
-9.84755e-28
-2.92891e-28
1.60013e-27
3.58207e-27
3.17212e-27
-1.83346e-27
-1.02785e-26
-1.53947e-26
-7.00195e-27
1.97839e-26
5.28647e-26
5.91521e-26
9.68969e-28
-1.24747e-25
-2.45459e-25
-2.14771e-25
1.00708e-25
6.57346e-25
1.09324e-24
7.86236e-25
-7.4578e-25
-3.17553e-24
-4.85424e-24
-3.14926e-24
3.8475e-24
1.45787e-23
2.19514e-23
1.46773e-23
-1.58392e-23
-6.41434e-23
-1.01314e-22
-7.84031e-23
4.75586e-23
2.66476e-22
4.69197e-22
4.45544e-22
-2.77356e-23
-9.9745e-22
-2.10816e-21
-2.50039e-21
-1.04404e-21
2.95787e-21
8.71955e-21
1.3106e-20
1.08444e-20
-3.29102e-21
-3.01211e-20
-6.08435e-20
-7.42011e-20
-4.05903e-20
6.3196e-20
2.29285e-19
3.92803e-19
4.22697e-19
1.52465e-19
-5.32202e-19
-1.55561e-18
-2.51212e-18
-2.6196e-18
-8.89787e-19
3.38798e-18
9.86821e-18
1.63045e-17
1.81281e-17
9.13535e-18
-1.60722e-17
-5.77267e-17
-1.05459e-16
-1.34086e-16
-1.04376e-16
2.68253e-17
2.83996e-16
6.38945e-16
9.73946e-16
1.0602e-15
5.78606e-16
-7.87622e-16
-3.16938e-15
-6.24789e-15
-8.97329e-15
-9.39594e-15
-4.80694e-15
7.58451e-15
2.92579e-14
5.82701e-14
8.67627e-14
9.89181e-14
7.07674e-14
-2.6273e-14
-2.16167e-13
-5.02009e-13
-8.43256e-13
-1.13015e-12
-1.16366e-12
-6.54888e-13
7.37286e-13
3.30884e-12
7.13575e-12
1.18168e-11
1.61559e-11
1.78478e-11
1.32902e-11
-2.28843e-12
-3.41276e-11
-8.6366e-11
-1.59325e-10
-2.45493e-10
-3.24315e-10
-3.56414e-10
-2.78539e-10
-1.57849e-12
5.84832e-10
1.59629e-09
3.12012e-09
5.15774e-09
7.53652e-09
9.78703e-09
1.09868e-08
9.58048e-09
3.20169e-09
-1.14574e-08
-3.86511e-08
-8.33411e-08
-1.50543e-07
-2.44022e-07
-3.64016e-07
-5.03583e-07
-6.43059e-07
-7.41994e-07
-7.27821e-07
-4.80396e-07
1.88574e-07
1.5623e-06
4.05299e-06
8.24453e-06
1.49448e-05
2.52488e-05
4.0614e-05
6.29478e-05
9.47083e-05
0.000139019
0.000199796
0.000281889
0.000391228
0.00053499
0.000721758
0.000961697
0.00126672
0.00165064
0.00212935
0.00272093
0.00344577
0.00432667
0.00538888
0.0066601
0.00817047
0.00995247
0.0120408
0.0144721
0.0172849
0.020519
0.0242155
0.0284159
0.0331621
0.0384956
0.0444568
0.051085
0.0584171
0.0664875
0.0753273
0.0849637
0.0954194
0.106712
0.118855
0.131854
0.145709
0.160416
0.175961
0.192326
0.209484
0.227404
0.246047
0.26537
0.285321
0.305845
0.326884
0.348372
0.370244
0.392428
0.414853
0.437446
0.460132
0.482839
0.505492
0.528022
0.550358
0.572435
0.594188
0.615559
0.636493
0.656937
0.676847
0.696181
0.714903
0.732982
0.750392
0.767113
0.783128
0.798428
0.813005
0.826858
0.83999
0.852405
0.864115
0.875132
0.885472
0.895152
0.904194
0.912618
0.92045
0.927714
0.934435
0.94064
0.946356
0.95161
0.956428
0.960837
0.964863
0.968531
0.971866
0.974891
0.97763
0.980104
0.982334
0.984339
0.986136
0.987743
0.989174
0.990443
0.991562
0.992542
0.993389
0.994112
0.994715
0.9952
0.995567
0.995814
0.995937
0.995927
0.995777
0.995471
0.994996
0.994332
0.993459
0.992351
0.990983
0.989323
0.987341
0.985
0.982266
0.979099
0.97546
0.971309
0.966605
0.961308
0.955377
0.948775
0.941465
0.933413
0.924589
0.914967
0.904522
0.893239
0.881104
0.868112
0.854262
0.839561
0.824019
0.807658
0.790503
0.772585
0.753943
0.734623
0.714673
0.69415
0.673112
0.651624
0.629753
0.60757
0.585145
0.562553
0.539867
0.51716
0.494507
0.471977
0.449641
0.427565
0.405811
0.38444
0.363507
0.343062
0.323152
0.303819
0.285097
0.267018
0.249608
0.232887
0.216872
0.201572
0.186995
0.173142
0.16001
0.147595
0.135885
0.124868
0.114528
0.104848
0.0958064
0.0873817
0.0795499
0.0722864
0.0655651
0.0593599
0.053644
0.0483905
0.0435725
0.0391638
0.0351381
0.0314701
0.0281351
0.0251092
0.0223695
0.019894
0.0176617
0.0156529
0.0138488
0.0122318
0.0107852
0.00949374
0.0083429
0.00731936
0.00641075
0.0056057
0.00489373
0.00426524
0.00371145
0.00322438
0.00279676
0.002422
0.00209414
0.00180783
0.00155823
0.00134102
0.0011523
0.000988631
0.000846918
0.000724422
0.000618713
0.000527641
0.000449307
0.000382039
0.000324366
0.000274998
0.000232807
0.000196806
0.000166134
0.000140043
0.000117883
9.90902e-05
8.31773e-05
6.97231e-05
5.83647e-05
4.87897e-05
4.07301e-05
3.39559e-05
2.82704e-05
2.35054e-05
1.95175e-05
1.61849e-05
1.34037e-05
1.10859e-05
9.1571e-06
7.55411e-06
6.22375e-06
5.12115e-06
4.20856e-06
3.45424e-06
2.83158e-06
2.31827e-06
1.89567e-06
1.5482e-06
1.26288e-06
1.02889e-06
8.37244e-07
6.80477e-07
5.52403e-07
4.47902e-07
3.62742e-07
2.93429e-07
2.37084e-07
1.91337e-07
1.54239e-07
1.24191e-07
9.98829e-08
8.02418e-08
6.43903e-08
5.16124e-08
4.13241e-08
3.305e-08
2.64035e-08
2.10705e-08
1.67963e-08
1.33747e-08
1.06386e-08
8.45322e-09
6.70958e-09
5.31996e-09
4.21369e-09
3.33398e-09
2.63517e-09
2.08068e-09
1.64117e-09
1.29317e-09
1.01792e-09
8.00449e-10
6.28801e-10
4.93466e-10
3.86872e-10
3.03002e-10
2.3708e-10
1.85317e-10
1.44715e-10
1.12898e-10
8.79916e-11
6.85137e-11
5.32957e-11
4.1423e-11
3.21309e-11
2.51468e-11
1.78647e-11
)
;

boundaryField
{
    sides
    {
        type            zeroGradient;
    }
    empty
    {
        type            empty;
    }
}


// ************************************************************************* //
