/*--------------------------------*- C++ -*----------------------------------*\
  =========                 |
  \\      /  F ield         | OpenFOAM: The Open Source CFD Toolbox
   \\    /   O peration     | Website:  https://openfoam.org
    \\  /    A nd           | Version:  7
     \\/     M anipulation  |
\*---------------------------------------------------------------------------*/
FoamFile
{
    version     2.0;
    format      ascii;
    class       volScalarField;
    location    "20";
    object      p;
}
// * * * * * * * * * * * * * * * * * * * * * * * * * * * * * * * * * * * * * //

dimensions      [0 2 -2 0 0 0 0];

internalField   nonuniform List<scalar> 
16000
(
8.6105797e-06
-0.00013169636
-0.00044317848
-0.00084551747
-0.0012637033
-0.0016523466
-0.0019805765
-0.0022295538
-0.0023886415
-0.0024521348
-0.0024170938
-0.002282062
-0.0020464696
-0.0017105605
-0.0012756923
-0.00074487426
-0.00012341813
0.00058040897
0.0013548302
0.0021841931
0.0030488715
0.0039255068
0.0047876167
0.0056066114
0.0063531688
0.0069989124
0.0075182874
0.0078904968
0.0081013392
0.0081447753
0.0080240535
0.0077522861
0.0073524623
0.006856995
0.0063067173
0.0057491613
0.0052394192
0.0048338199
0.0045940357
0.0045553417
0.00015318987
8.2823822e-06
-0.00024179076
-0.00055065342
-0.00087282783
-0.0011740056
-0.0014299425
-0.0016244595
-0.0017471973
-0.0017917139
-0.0017540688
-0.0016318988
-0.0014239501
-0.0011299914
-0.00075101416
-0.00028962373
0.00024947062
0.00085895803
0.0015285039
0.002244474
0.0029898687
0.0037446616
0.0044861471
0.00518997
0.0058312783
0.0063861772
0.0068333467
0.0071556881
0.0073418605
0.0073875708
0.0072964827
0.007080628
0.0067602515
0.0063631207
0.005923403
0.0054800472
0.0050742098
0.004749387
0.0045508489
0.0045155855
0.00047182955
0.000253955
-1.8673469e-06
-0.0002808969
-0.0005611214
-0.00081803813
-0.0010338586
-0.001196525
-0.0012978318
-0.0013322596
-0.0012960901
-0.0011867909
-0.0010027219
-0.0007431289
-0.00040835862
-2.2788802e-07
0.00047752637
0.0010187881
0.0016146648
0.0022532249
0.0029194653
0.0035954337
0.0042607712
0.0048934803
0.0054710187
0.0059716533
0.006375979
0.0066684707
0.006838913
0.0068835649
0.0068059397
0.0066171073
0.0063354434
0.0059858028
0.0055981896
0.0052060035
0.0048437656
0.0045457029
0.0043482312
0.0042810217
0.00089342359
0.0005621785
0.00026150218
-2.4264436e-05
-0.00029484711
-0.00053397572
-0.00073008576
-0.00087596266
-0.0009665349
-0.00099810781
-0.00096786876
-0.00087353148
-0.00071322446
-0.00048560972
-0.00019017945
0.00017232404
0.00059942174
0.0010864047
0.0016258975
0.0022075511
0.0028179353
0.0034406026
0.0040565943
0.0046451253
0.0051846326
0.0056540937
0.0060345332
0.0063105915
0.0064719816
0.0065146571
0.0064415453
0.0062627621
0.0059952669
0.0056619449
0.0052901361
0.004909758
0.0045514261
0.0042449819
0.0040169694
0.0038813762
0.0013441956
0.0008845482
0.0005214129
0.00021111764
-6.6570531e-05
-0.00030260818
-0.00049131976
-0.00063044284
-0.00071832027
-0.00075338682
-0.00073398054
-0.00065820048
-0.00052396386
-0.00032926085
-7.2559007e-05
0.00024668851
0.00062747856
0.0010666895
0.0015585655
0.0020943202
0.002661927
0.0032461542
0.0038289259
0.0043900036
0.0049080084
0.0053617396
0.0057317129
0.0060017927
0.0061607474
0.006203516
0.0061319938
0.005955216
0.005688915
0.0053544909
0.0049774197
0.0045853105
0.0042064551
0.0038679584
0.0035852628
0.0033616039
0.0017710152
0.0011779154
0.00074327605
0.00039724891
0.00010070836
-0.00014356049
-0.00033524955
-0.00047681101
-0.00056993481
-0.00061519636
-0.0006121066
-0.00055914073
-0.00045394337
-0.00029371599
-7.5739266e-05
0.00020200969
0.00054018761
0.00093741099
0.0013896326
0.0018896314
0.0024266875
0.002986524
0.0035515601
0.0041015597
0.0046146445
0.0050686488
0.0054427295
0.0057191022
0.0058847331
0.0059327725
0.0058634955
0.0056845672
0.005410571
0.0050618583
0.0046627979
0.0042397746
0.0038202721
0.0034308067
0.0030782787
0.0027509636
0.0021286816
0.00140374
0.00089418018
0.00050597238
0.00018272442
-7.8232354e-05
-0.00028141351
-0.00043359942
-0.00053957237
-0.00060187643
-0.00062106228
-0.0005958567
-0.0005234968
-0.00040024077
-0.0002220077
1.4888875e-05
0.00031295101
0.00067269656
0.0010919054
0.0015649756
0.0020824646
0.0026309126
0.0031929735
0.0037480063
0.0042730676
0.0047443182
0.0051387416
0.0054360323
0.0056204699
0.0056825645
0.0056202304
0.0054392551
0.0051529334
0.0047808726
0.0043470553
0.0038777125
0.0034009422
0.0029444648
0.0025082676
0.0020667339
0.002378634
0.0015272715
0.0009432286
0.00051007852
0.00015551653
-0.00012801539
-0.00034938503
-0.0005192778
-0.00064522545
-0.00073146343
-0.00077934897
-0.00078765401
-0.00075301443
-0.00067055307
-0.00053462976
-0.00033968834
-8.1169517e-05
0.0002435541
0.00063427771
0.0010871665
0.0015941413
0.0021425668
0.0027152269
0.0032908336
0.003844963
0.0043514935
0.0047844477
0.0051200792
0.0053389996
0.0054281041
0.0053820449
0.0052040044
0.0049055788
0.004505686
0.0040284994
0.0035011314
0.0029536881
0.0024167719
0.0018853852
0.0013228862
0.0024870676
0.0015168202
0.00086112281
0.00038268846
-5.5905466e-06
-0.00031578887
-0.00056074363
-0.00075464086
-0.00090739807
-0.001024624
-0.001108203
-0.0011567036
-0.0011659311
-0.0011296523
-0.001040444
-0.00089064478
-0.00067338396
-0.00038365159
-1.9353608e-05
0.00041771575
0.00092107543
0.0014790915
0.0020747407
0.0026860176
0.0032867573
0.0038480624
0.0043402415
0.0047351198
0.0050084928
0.0051424429
0.0051272235
0.0049624395
0.0046573063
0.0042298157
0.0037046673
0.0031107686
0.0024816179
0.0018523708
0.0012144563
0.00052098921
0.002423512
0.0013433082
0.00062030071
9.775904e-05
-0.00032525002
-0.0006650706
-0.00093820283
-0.0011619696
-0.0013483284
-0.0015039463
-0.0016309509
-0.0017274499
-0.0017881791
-0.0018053132
-0.0017694006
-0.0016704042
-0.0014988365
-0.001246955
-0.0009099738
-0.00048722814
1.6810457e-05
0.00059191895
0.0012215057
0.0018829751
0.002548333
0.0031855417
0.0037605073
0.0042395932
0.0045924519
0.0047948564
0.0048311664
0.0046960848
0.0043954387
0.0039457449
0.0033722742
0.0027064358
0.0019864491
0.0012537321
0.00049724585
-0.00033987718
0.0021601928
0.00098010228
0.00019516551
-0.00036935914
-0.00082727709
-0.001199025
-0.0015045158
-0.0017638907
-0.0019908386
-0.0021928007
-0.0023718887
-0.0025255122
-0.0026471106
-0.0027270347
-0.0027535466
-0.0027139338
-0.0025957308
-0.0023880303
-0.0020828459
-0.0016764767
-0.0011707759
-0.00057386728
9.8541009e-05
0.00082364888
0.0015717615
0.0023075029
0.0029917814
0.0035844602
0.0040475738
0.004348775
0.0044645808
0.004382958
0.004104862
0.0036443845
0.0030270792
0.0022873096
0.0014692408
0.00062230424
-0.00026617185
-0.0012633198
0.0016719156
0.00040308608
-0.00043763412
-0.0010414395
-0.0015339929
-0.0019396726
-0.00228159
-0.0025824264
-0.0028573411
-0.0031143137
-0.0033552265
-0.0035765951
-0.0037703698
-0.0039248684
-0.0040258164
-0.0040575075
-0.004004091
-0.0038509821
-0.0035863653
-0.0032027311
-0.0026983681
-0.0020788921
-0.001357833
-0.00055760828
0.00029078479
0.001148674
0.0019715308
0.0027117224
0.0033220867
0.0037600538
0.0039918565
0.0039962458
0.0037671411
0.0033146625
0.002663905
0.0018523344
0.00093116416
-4.0355975e-05
-0.0010759281
-0.0022537393
0.00093628239
-0.00040907524
-0.0012988294
-0.0019388681
-0.0024655746
-0.0029071135
-0.0032895982
-0.0036380079
-0.0039687626
-0.0042902045
-0.004603836
-0.0049051414
-0.0051844434
-0.0054278608
-0.00561836
-0.0057369287
-0.0057638985
-0.0056804288
-0.0054701375
-0.0051208267
-0.0046262508
-0.0039880459
-0.0032167084
-0.0023331223
-0.0013687404
-0.0003651199
0.00062761197
0.0015534712
0.0023544842
0.0029755068
0.0033695484
0.0035029321
0.0033594997
0.0029429938
0.0022766211
0.0014006612
0.00037432665
-0.00073141779
-0.001930862
-0.0033144492
-6.5883527e-05
-0.0014745381
-0.0024060826
-0.0030790957
-0.0036393878
-0.0041187294
-0.0045460476
-0.0049484099
-0.0053433421
-0.0057394423
-0.0061377573
-0.0065326794
-0.0069128356
-0.0072620431
-0.0075603382
-0.0077851244
-0.0079124903
-0.0079187309
-0.0077820799
-0.0074846276
-0.0070143844
-0.0063674669
-0.0055499278
-0.0045795809
-0.0034870033
-0.0023157128
-0.0011211401
3.1842006e-05
0.0010729397
0.0019319182
0.002545154
0.002862542
0.0028537617
0.0025126339
0.0018580347
0.00093207515
-0.00019734785
-0.0014455448
-0.0028270131
-0.0044459482
-0.0013499999
-0.0028078182
-0.0037735113
-0.0044760899
-0.0050693295
-0.0055883927
-0.0060648368
-0.0065276421
-0.0069953443
-0.0074767673
-0.0079725126
-0.0084759095
-0.0089739096
-0.0094480092
-0.0098752184
-0.010229142
-0.010481247
-0.010602372
-0.010564526
-0.010342967
-0.0099185481
-0.0092802723
-0.0084278189
-0.0073739825
-0.0061465824
-0.0047895276
-0.0033625965
-0.001939519
-0.00060406314
0.00055596093
0.001456517
0.002026273
0.0022154778
0.0020030678
0.0013997533
0.00044742246
-0.00077717044
-0.0021735454
-0.0037559995
-0.0056441315
-0.0029271607
-0.0044193313
-0.0054112401
-0.0061398301
-0.0067652216
-0.0073257199
-0.0078553393
-0.0083848385
-0.0089337351
-0.0095111326
-0.010117293
-0.010744611
-0.011378486
-0.011998177
-0.012577669
-0.013086649
-0.013491666
-0.013757588
-0.013849397
-0.013734394
-0.013384788
-0.012780658
-0.011913133
-0.010787598
-0.0094266397
-0.0078722479
-0.0061867451
-0.0044518338
-0.0027652076
-0.0012343641
3.2351239e-05
0.00093688415
0.001403518
0.0013896505
0.00089216792
-5.0879715e-05
-0.0013546188
-0.0029008439
-0.0047031811
-0.0068982879
-0.0048036233
-0.0063150081
-0.0073250425
-0.0080759034
-0.0087323057
-0.0093354202
-0.0099215667
-0.010523206
-0.01116089
-0.011844149
-0.012573115
-0.013339485
-0.014127343
-0.014913903
-0.01567025
-0.016362149
-0.016951067
-0.017395499
-0.017652723
-0.01768104
-0.01744257
-0.016906576
-0.016053291
-0.014877937
-0.013394838
-0.011640978
-0.0096784319
-0.0075948681
-0.0055012552
-0.0035260417
-0.0018054401
-0.00047011061
0.00037053098
0.00064378495
0.00032476453
-0.00055810188
-0.0019140431
-0.0036056815
-0.0056455034
-0.0081887497
-0.0069804236
-0.0084960534
-0.0095161409
-0.010285265
-0.010970903
-0.011616802
-0.012261481
-0.012939107
-0.013671421
-0.01446864
-0.015331084
-0.016250102
-0.017208807
-0.018182689
-0.019140178
-0.020043258
-0.020848295
-0.02150719
-0.021969011
-0.022182211
-0.022097529
-0.021671627
-0.020871441
-0.019679117
-0.018097242
-0.016153982
-0.013907336
-0.011447604
-0.0088968871
-0.0064044365
-0.004136904
-0.0022632434
-0.00093516236
-0.00026595644
-0.00031295794
-0.0010660321
-0.0024329952
-0.0042569187
-0.0065488968
-0.0094840506
-0.0094531936
-0.010958926
-0.011981236
-0.012764231
-0.013476305
-0.014163506
-0.014866523
-0.015621358
-0.016451229
-0.017367431
-0.01837091
-0.019453131
-0.020596691
-0.021775782
-0.022956544
-0.024097467
-0.025149966
-0.026059322
-0.026766131
-0.027208412
-0.027324527
-0.027056996
-0.026357279
-0.025191562
-0.023547013
-0.021438646
-0.0189156
-0.016066064
-0.01301934
-0.0099433573
-0.0070360057
-0.0045091586
-0.0025655567
-0.0013712248
-0.0010295889
-0.0015611287
-0.0028800001
-0.0048112864
-0.0073650845
-0.010737444
-0.01221225
-0.013695604
-0.014712836
-0.01550477
-0.016238956
-0.016963516
-0.017721424
-0.018550819
-0.019476866
-0.020512488
-0.02165984
-0.022911071
-0.024248813
-0.025646472
-0.027068369
-0.028469893
-0.029797824
-0.030991003
-0.031981552
-0.032696802
-0.033062128
-0.033004779
-0.032458915
-0.031372448
-0.029713365
-0.027479019
-0.024704248
-0.021469127
-0.017904315
-0.014191877
-0.010559148
-0.0072633947
-0.0045661613
-0.0026991781
-0.0018284498
-0.0020216784
-0.0032115575
-0.0052099173
-0.0080276453
-0.011882627
-0.01524302
-0.016694221
-0.017699954
-0.018495161
-0.019244983
-0.019999514
-0.020804344
-0.021700323
-0.022715277
-0.023864518
-0.025152137
-0.026571651
-0.028106347
-0.029729412
-0.031403865
-0.033082472
-0.034707797
-0.036212603
-0.03752079
-0.038549088
-0.039209702
-0.039414023
-0.039077653
-0.038128821
-0.036512746
-0.03420495
-0.031220356
-0.027624053
-0.023540505
-0.019158766
-0.014730577
-0.010557751
-0.006965956
-0.0042650716
-0.0027022563
-0.0024135822
-0.0033681264
-0.0053739763
-0.0084471716
-0.012828528
-0.018526862
-0.01994012
-0.020929242
-0.021721059
-0.022477103
-0.023249569
-0.02408735
-0.025034966
-0.026123967
-0.027373065
-0.028789202
-0.030368038
-0.032094179
-0.033941161
-0.035871213
-0.037834953
-0.039771199
-0.041607094
-0.043258769
-0.04463274
-0.045628301
-0.046141206
-0.046068834
-0.045315423
-0.043804394
-0.04148521
-0.038347478
-0.034434216
-0.029854989
-0.024796362
-0.019525902
-0.014384817
-0.009764117
-0.0060618106
-0.0036253308
-0.0026843639
-0.0032688139
-0.0051991978
-0.0085053664
-0.013453031
-0.022042339
-0.023417446
-0.024386641
-0.025167022
-0.025915925
-0.026688176
-0.027537203
-0.028512731
-0.029651553
-0.030977135
-0.032500367
-0.034219916
-0.036122363
-0.038182102
-0.040360991
-0.042607891
-0.044858281
-0.047034153
-0.049044397
-0.050785924
-0.05214574
-0.053004314
-0.053240379
-0.052737073
-0.051392012
-0.049126899
-0.045902058
-0.041732015
-0.036702522
-0.030986637
-0.024855968
-0.018681175
-0.012914252
-0.008046568
-0.0045431116
-0.0027550585
-0.0028044893
-0.0045491203
-0.0080479089
-0.013595504
-0.025767045
-0.027111356
-0.028059634
-0.028818541
-0.029541621
-0.030287554
-0.031116378
-0.032085349
-0.033238655
-0.034606261
-0.036204319
-0.038035401
-0.04008865
-0.042339679
-0.044750212
-0.047267551
-0.049824074
-0.052336958
-0.054708346
-0.056826203
-0.058566084
-0.05979412
-0.060371415
-0.06016014
-0.059033017
-0.056882805
-0.053637999
-0.049279707
-0.043861889
-0.037532814
-0.030554212
-0.023311816
-0.016307831
-0.010125275
-0.0053590929
-0.0025098001
-0.0018290803
-0.0032467994
-0.0068758911
-0.013048023
-0.029680083
-0.031011063
-0.031940243
-0.032664609
-0.033335935
-0.034019128
-0.034784165
-0.035699278
-0.036818976
-0.038181938
-0.039811059
-0.041713699
-0.043881971
-0.046292816
-0.048907758
-0.051672435
-0.054516069
-0.057351112
-0.060073255
-0.062562062
-0.064682466
-0.06628737
-0.067221628
-0.067327722
-0.066454517
-0.064466692
-0.061260151
-0.056779776
-0.0510418
-0.044159705
-0.036371018
-0.028059119
-0.019759493
-0.012136684
-0.0059199493
-0.0017832131
-0.00014888828
-0.0010647632
-0.0047355566
-0.011545074
-0.0337655
-0.035114015
-0.036029006
-0.036700921
-0.037284453
-0.037855022
-0.038497698
-0.039296605
-0.040320441
-0.041619259
-0.043224276
-0.045148352
-0.047386668
-0.049917201
-0.052700792
-0.055680881
-0.058783083
-0.061914842
-0.064965369
-0.067806101
-0.070291978
-0.072263697
-0.073551334
-0.073979647
-0.073374417
-0.07157507
-0.068445776
-0.063894704
-0.05789724
-0.050524817
-0.041978105
-0.032619925
-0.022997613
-0.01383863
-0.0060003758
-0.00034616755
0.0024901114
0.0022870802
-0.0013059104
-0.0087513786
-0.038017149
-0.039431781
-0.040340296
-0.040933792
-0.041379067
-0.041769387
-0.042212675
-0.042815707
-0.043666232
-0.044828664
-0.046343998
-0.048230914
-0.050487236
-0.053091122
-0.056001684
-0.059159095
-0.062484422
-0.065879373
-0.06922623
-0.072388178
-0.075210449
-0.077522242
-0.079139925
-0.079871761
-0.079524272
-0.077912332
-0.074871128
-0.0702739
-0.064055056
-0.056240372
-0.046984554
-0.036613623
-0.025663715
-0.014899846
-0.005290029
0.0021089867
0.0064167932
0.0071759766
0.0038165594
-0.0042470409
-0.04244603
-0.04399867
-0.044909634
-0.045385022
-0.045620518
-0.045739359
-0.045883583
-0.046191505
-0.046775642
-0.047717726
-0.049069462
-0.05085493
-0.053073369
-0.055701486
-0.05869492
-0.061988904
-0.065498466
-0.069118352
-0.072723035
-0.076166866
-0.079285214
-0.081896024
-0.083802674
-0.084798225
-0.084671423
-0.083215361
-0.08023907
-0.075583855
-0.069145463
-0.060904121
-0.050964087
-0.039602702
-0.027323727
-0.014901036
-0.0033858107
0.0059817792
0.012050819
0.014063928
0.011137433
0.0024916773
-0.04709207
-0.048884856
-0.049804031
-0.050097988
-0.050020928
-0.049745404
-0.049463244
-0.049355268
-0.049564763
-0.050193019
-0.051302214
-0.052920155
-0.055045101
-0.057649686
-0.060683535
-0.064074589
-0.067729804
-0.071535243
-0.075356588
-0.079037834
-0.082404194
-0.085262056
-0.087401907
-0.088602213
-0.088635124
-0.087273637
-0.084303315
-0.079536856
-0.072834947
-0.064135125
-0.053491162
-0.041125423
-0.027493002
-0.013348837
0.00020642652
0.011772599
0.019919059
0.023529344
0.021290732
0.012119638
-0.052044269
-0.054217182
-0.055136965
-0.055145367
-0.054606155
-0.053770845
-0.052901597
-0.052233996
-0.051947156
-0.052162221
-0.052949499
-0.054336938
-0.056317856
-0.058856964
-0.061894651
-0.065348259
-0.069114322
-0.073067998
-0.077066086
-0.080938343
-0.084500415
-0.087546244
-0.089852902
-0.091184108
-0.091296416
-0.089942404
-0.086886161
-0.081914448
-0.074856238
-0.065610195
-0.054182377
-0.040738843
-0.025675875
-0.0097061141
0.0060556513
0.020082611
0.030670419
0.03629404
0.035076562
0.025465869
-0.057476967
-0.060213055
-0.061090345
-0.060638791
-0.059417573
-0.057800174
-0.056143576
-0.054749476
-0.053834615
-0.053536516
-0.053927892
-0.05503059
-0.056827071
-0.059268829
-0.062283714
-0.065773431
-0.069622503
-0.073693231
-0.077827849
-0.081846981
-0.085551731
-0.088723081
-0.091124203
-0.092503538
-0.092599659
-0.091147405
-0.087888392
-0.082583845
-0.075032876
-0.065097934
-0.052740147
-0.038070187
-0.021419972
-0.0034419163
0.014768662
0.031597508
0.045084747
0.053256618
0.053516948
0.043607651
-0.063717854
-0.067236685
-0.067946363
-0.066740078
-0.064512126
-0.061815249
-0.059125545
-0.056816649
-0.055137727
-0.054232882
-0.054166629
-0.054945111
-0.05653196
-0.058859303
-0.06183505
-0.065345436
-0.06925768
-0.073419292
-0.077658084
-0.08178157
-0.085576856
-0.088810935
-0.091232108
-0.092572576
-0.092552689
-0.090887205
-0.087294404
-0.081508954
-0.073298945
-0.062489812
-0.048997493
-0.032875787
-0.01438643
0.0058948103
0.026924396
0.047044831
0.064067579
0.075531279
0.077939457
0.068005276
-0.071380114
-0.07589289
-0.076131827
-0.073671754
-0.069957725
-0.065786965
-0.061768439
-0.058339725
-0.05576469
-0.054174714
-0.053609089
-0.054044871
-0.055415942
-0.05762789
-0.060564254
-0.064090405
-0.068054687
-0.072287993
-0.076602856
-0.080792319
-0.084629247
-0.08786611
-0.090235771
-0.091453494
-0.091220589
-0.089230017
-0.085174533
-0.07875935
-0.069717305
-0.057831421
-0.04296549
-0.025108162
-0.0044392647
0.018569967
0.042964675
0.067104888
0.088610693
0.10448322
0.11010477
0.10076058
-0.081630847
-0.087181132
-0.086269722
-0.081715849
-0.075814257
-0.069654501
-0.063960981
-0.059200303
-0.055613366
-0.053286481
-0.052209044
-0.052310415
-0.053483552
-0.055598677
-0.058510124
-0.062058972
-0.066073111
-0.070365863
-0.074734129
-0.078956493
-0.082791789
-0.08597822
-0.088233446
-0.089255854
-0.088727427
-0.086318301
-0.081693318
-0.074524516
-0.06450285
-0.051358872
-0.034889724
-0.014997997
0.0082484153
0.03451505
0.063013185
0.092225724
0.11965976
0.14172239
0.15240435
0.1451245
-0.096759338
-0.1027377
-0.099197538
-0.091154944
-0.082062309
-0.073261365
-0.065507794
-0.059217011
-0.054540184
-0.051469333
-0.04991003
-0.049722696
-0.050745381
-0.052805387
-0.055723729
-0.059315373
-0.06338732
-0.067735691
-0.072142621
-0.076373397
-0.080174145
-0.083270222
-0.085365505
-0.086142817
-0.085265901
-0.082382289
-0.077127971
-0.069138462
-0.058055733
-0.04354503
-0.025315639
-0.0031512974
0.023040923
0.053141292
0.086633335
0.122283
0.15778089
0.18895175
0.20809798
0.20632776
-0.12133904
-0.12518671
-0.11587254
-0.10208075
-0.088416989
-0.076198073
-0.066005614
-0.05805212
-0.052291193
-0.048550058
-0.046608108
-0.046232603
-0.047194224
-0.049271978
-0.052252134
-0.055924284
-0.060076383
-0.0644897
-0.068934192
-0.073164532
-0.076916926
-0.079906741
-0.081827012
-0.082347953
-0.081118058
-0.077763951
-0.071895565
-0.063110221
-0.05099624
-0.035142017
-0.01514577
0.0093690672
0.038725406
0.07312961
0.11251968
0.15626249
0.2026308
0.2475231
0.28130093
0.2923565
-0.16445661
-0.15843236
-0.13714792
-0.11415711
-0.094107086
-0.0776311
-0.064737857
-0.055161805
-0.048489911
-0.044291506
-0.042172712
-0.041787152
-0.04283204
-0.045039121
-0.048164053
-0.051976228
-0.056249828
-0.06075628
-0.065258036
-0.06950356
-0.073223413
-0.076127266
-0.077901802
-0.078209688
-0.076689837
-0.072947284
-0.066577387
-0.057140495
-0.044172396
-0.027180567
-0.0056363962
0.02103482
0.053464052
0.092331481
0.13829609
0.19182671
0.25266784
0.31751128
0.37626844
0.4153706
-0.24629356
-0.2063176
-0.16212996
-0.12552872
-0.097143617
-0.075878253
-0.060487717
-0.049752543
-0.042660432
-0.038436327
-0.036490355
-0.03636526
-0.03769707
-0.04018471
-0.043566645
-0.047603473
-0.052065034
-0.056720723
-0.061332102
-0.065647223
-0.069396264
-0.072288251
-0.07400871
-0.074219053
-0.072557864
-0.068605071
-0.061961362
-0.052155734
-0.038682932
-0.020981301
0.0015959128
0.029825358
0.064686438
0.1074649
0.15987109
0.22417785
0.3029055
0.39553224
0.49624348
0.60321235
-0.42543835
-0.2657297
-0.17722099
-0.12463573
-0.089116494
-0.065102752
-0.049324048
-0.039185564
-0.032983943
-0.029674272
-0.028570808
-0.029186717
-0.031156631
-0.034189538
-0.038037085
-0.042472645
-0.047277347
-0.052230265
-0.057101244
-0.061645508
-0.065599551
-0.06867797
-0.07057073
-0.070939729
-0.06940717
-0.065629198
-0.059131928
-0.049452567
-0.03607467
-0.01840327
0.004271665
0.032847494
0.068542859
0.11314223
0.16943678
0.2420173
0.33806618
0.46591593
0.64305474
0.92086232
-0.79331226
-0.32444148
-0.14899679
-0.087724881
-0.055345436
-0.035999274
-0.025091413
-0.019200919
-0.01635545
-0.015618976
-0.016494115
-0.018653796
-0.021852755
-0.025887948
-0.030574788
-0.035733015
-0.041178083
-0.046715207
-0.052134825
-0.057208959
-0.06168827
-0.065299694
-0.067744767
-0.068699904
-0.067823635
-0.06470723
-0.058941223
-0.050072063
-0.03759318
-0.020927115
0.0006105851
0.02788115
0.062058742
0.10491326
0.15945116
0.2315278
0.33385124
0.49409199
0.79001615
1.3837781
1.2125866e-05
-0.00013073174
-0.00044290871
-0.00084544563
-0.0012638238
-0.0016525975
-0.001980913
-0.0022299506
-0.0023890812
-0.002452603
-0.0024175784
-0.0022825519
-0.0020469543
-0.0017110296
-0.0012761351
-0.00074527946
-0.00012377363
0.00058011542
0.0013546101
0.0021840562
0.0030488255
0.003925558
0.0047877699
0.0056068676
0.0063535222
0.0069993489
0.0075187876
0.0078910412
0.0081019108
0.0081453543
0.0080246096
0.0077527786
0.0073528543
0.0068572697
0.0063068837
0.0057492449
0.0052393924
0.0048336185
0.0045936281
0.0045551315
0.00015405806
8.7948264e-06
-0.00024134581
-0.0005501851
-0.0008723217
-0.0011734481
-0.0014293369
-0.0016238193
-0.0017465379
-0.0017910505
-0.0017534158
-0.0016312699
-0.0014233581
-0.0011294489
-0.00075053384
-0.00028921834
0.00024978891
0.00085917823
0.001528617
0.0022444729
0.0029897475
0.0037444151
0.0044857764
0.0051894835
0.0058306908
0.0063855058
0.0068326069
0.0071548957
0.0073410389
0.0073867559
0.0072957154
0.0070799373
0.0067596441
0.0063625931
0.0059229669
0.0054797417
0.0050740819
0.0047493525
0.0045507563
0.0045156557
0.00047231042
0.00025422291
-1.5556355e-06
-0.00028063591
-0.00056093016
-0.00081788533
-0.0010337308
-0.0011964179
-0.001297742
-0.0013321852
-0.0012960303
-0.0011867458
-0.0010026916
-0.00074311317
-0.00040835732
-2.4102342e-07
0.00047749863
0.001018746
0.00161461
0.0022531604
0.0029193934
0.0035953555
0.0042606859
0.004893388
0.0054709234
0.005971562
0.0063758964
0.006668393
0.0068388297
0.0068834698
0.0068058408
0.0066170213
0.006335375
0.0059857307
0.005598082
0.0052058566
0.0048436234
0.0045455859
0.0043480891
0.0042810002
0.00089391027
0.00056223807
0.0002617489
-2.4040985e-05
-0.00029471499
-0.00053389055
-0.0007300318
-0.00087593665
-0.00096653183
-0.00099812319
-0.00096789957
-0.00087357558
-0.00071328004
-0.00048567481
-0.00019025166
0.00017224724
0.00059934253
0.0010863248
0.0016258191
0.0022074776
0.0028178707
0.0034405517
0.0040565582
0.0046451016
0.0051846187
0.0056540908
0.0060345469
0.0063106243
0.0064720247
0.0065146916
0.0064415568
0.0062627546
0.0059952578
0.0056619395
0.0052901109
0.0049096782
0.004551285
0.0042448182
0.0040168235
0.003881255
0.0013447359
0.00088439936
0.0005216281
0.00021137034
-6.6400469e-05
-0.00030246372
-0.00049118748
-0.00063032709
-0.00071822075
-0.00075330217
-0.00073391027
-0.00065814465
-0.00052392287
-0.00032923516
-7.2548662e-05
0.00024668415
0.00062746039
0.0010666579
0.0015585202
0.002094261
0.002661856
0.0032460759
0.0038288452
0.0043899217
0.0049079222
0.0053616461
0.0057316149
0.0060017002
0.0061606685
0.0062034455
0.0061319139
0.005955113
0.0056887973
0.0053543836
0.0049773358
0.0045852255
0.0042063221
0.0038678121
0.0035852339
0.0033613903
0.0017716468
0.0011775786
0.00074345709
0.00039750455
0.00010086995
-0.0001434186
-0.00033511215
-0.00047668636
-0.00056982434
-0.00061509951
-0.00061202345
-0.00055907158
-0.00045388875
-0.00029367673
-7.5716253e-05
0.00020201624
0.00054017849
0.00093738739
0.0013895949
0.001889579
0.0024266198
0.0029864428
0.0035514708
0.0041014686
0.0046145532
0.0050685532
0.0054426242
0.0057189894
0.0058846247
0.0059326793
0.0058634132
0.0056844759
0.0054104547
0.0050617268
0.0046626807
0.0042396757
0.0038201401
0.0034306804
0.0030783349
0.0027506488
0.0021294151
0.0014032369
0.00089433463
0.00050622927
0.00018287026
-7.8104973e-05
-0.00028128602
-0.00043348279
-0.00053946877
-0.0006017855
-0.00062098442
-0.00059579225
-0.00052344593
-0.00040020392
-0.00022198582
1.4894835e-05
0.00031294101
0.00067267197
0.0010918681
0.0015649267
0.0020824033
0.0026308374
0.0031928863
0.0037479134
0.0042729766
0.0047442313
0.0051386532
0.0054359342
0.0056203626
0.0056824604
0.0056201421
0.0054391782
0.0051528459
0.0047807599
0.0043469324
0.003877594
0.0034007883
0.0029443482
0.0025084279
0.0020663433
0.0023794702
0.0015266202
0.0009433657
0.00051034374
0.00015565481
-0.00012789389
-0.00034925855
-0.00051915975
-0.00064511872
-0.0007313679
-0.00077926554
-0.0007875836
-0.00075295743
-0.00067050965
-0.00053460046
-0.00033967439
-8.1172229e-05
0.0002435346
0.00063424319
0.0010871197
0.0015940838
0.0021424972
0.0027151433
0.0032907375
0.0038448614
0.0043513955
0.0047843565
0.0051199882
0.0053388987
0.0054279923
0.0053819349
0.0052039093
0.0049054935
0.0045055914
0.0040283896
0.0035010056
0.0029535042
0.0024166528
0.0018856521
0.0013224092
0.0024880038
0.0015160362
0.00086124847
0.00038296543
-5.4559603e-06
-0.00031566981
-0.00056061532
-0.00075451891
-0.00090728588
-0.0010245214
-0.0011081113
-0.0011566242
-0.0011658651
-0.0011296001
-0.0010404057
-0.00089062104
-0.0006733763
-0.00038366178
-1.9382015e-05
0.00041767138
0.00092101902
0.0014790246
0.0020746623
0.0026859249
0.0032866513
0.0038479505
0.0043401343
0.0047350217
0.0050083968
0.0051423375
0.005127107
0.004962324
0.004657203
0.0042297212
0.003704573
0.0031106514
0.0024814125
0.0018522439
0.0012148251
0.00052042031
0.0024245436
0.0013424057
0.00062041924
9.8049583e-05
-0.0003251166
-0.0006649522
-0.00093807164
-0.0011618432
-0.0013482107
-0.0015038369
-0.0016308509
-0.0017273611
-0.0017881031
-0.0018052513
-0.0017693531
-0.0016703712
-0.0014988185
-0.0012469539
-0.00090999185
-0.00048726563
1.6756919e-05
0.00059185199
0.0012214289
0.0018828878
0.0025482318
0.0031854268
0.0037603864
0.0042394779
0.0045923473
0.0047947556
0.0048310578
0.0046959662
0.0043953199
0.0039456371
0.0033721829
0.0027063293
0.0019862313
0.0012536023
0.00049772135
-0.00034054658
0.0021613133
0.00097909521
0.00019528053
-0.00036905359
-0.00082714237
-0.001198905
-0.0015043801
-0.0017637584
-0.0019907139
-0.0021926835
-0.0023717799
-0.0025254133
-0.0026470232
-0.0027269608
-0.0027534878
-0.0027138903
-0.0025957025
-0.0023880178
-0.0020828511
-0.0016765018
-0.0011708199
-0.00057393194
9.8462718e-05
0.00082356159
0.0015716647
0.002307393
0.0029916583
0.0035843316
0.0040474515
0.0043486644
0.0044644755
0.0043828469
0.0041047419
0.0036442662
0.0030269818
0.0022872053
0.0014690095
0.00062217642
-0.00026557587
-0.0012641022
0.0016731173
0.00040198858
-0.00043751964
-0.0010411181
-0.0015338546
-0.0019395491
-0.0022814481
-0.0025822866
-0.002857208
-0.0031141873
-0.0033551079
-0.0035764853
-0.0037702702
-0.0039247809
-0.0040257434
-0.0040574507
-0.0040040508
-0.0038509581
-0.0035863578
-0.0032027426
-0.0026984028
-0.0020789484
-0.001357909
-0.00055769818
0.00029068619
0.001148567
0.0019714121
0.002711592
0.003321952
0.0037599264
0.0039917416
0.003996137
0.0037670273
0.0033145446
0.0026638044
0.0018522266
0.00093091115
-4.0482256e-05
-0.0010751934
-0.0022546496
0.00093755581
-0.00041024855
-0.0012987131
-0.0019385307
-0.0024654308
-0.0029069846
-0.0032894488
-0.0036378594
-0.0039686198
-0.0042900674
-0.004603706
-0.0049050198
-0.0051843312
-0.0054277592
-0.0056182712
-0.0057368554
-0.0057638429
-0.0056803913
-0.0054701175
-0.0051208247
-0.0046262705
-0.003988087
-0.0032167737
-0.0023332093
-0.0013688423
-0.00036523036
0.00062749426
0.0015533439
0.0023543479
0.0029753687
0.0033694192
0.0035028153
0.0033593876
0.0029428817
0.0022765255
0.0014005521
0.00037404491
-0.00073154651
-0.0019299684
-0.0033155066
-6.4549205e-05
-0.0014757719
-0.0024059626
-0.0030787428
-0.003639237
-0.0041185935
-0.0045458895
-0.0049482519
-0.0053431888
-0.0057392935
-0.0061376146
-0.0065325447
-0.0069127101
-0.0072619276
-0.007560234
-0.0077850338
-0.0079124164
-0.0079186762
-0.0077820449
-0.0074846121
-0.0070143887
-0.0063674917
-0.0055499769
-0.0045796562
-0.0034871016
-0.0023158268
-0.0011212626
3.1713691e-05
0.0010728049
0.0019317783
0.0025450163
0.0028624146
0.0028536442
0.0025125244
0.0018579485
0.0009319702
-0.00019766134
-0.0014456788
-0.0028259374
-0.0044471776
-0.0013486169
-0.0028090963
-0.0037733861
-0.0044757226
-0.0050691707
-0.0055882485
-0.0060646691
-0.0065274738
-0.00699518
-0.0074766065
-0.0079723567
-0.0084757608
-0.0089737698
-0.0094478794
-0.0098750994
-0.010229035
-0.010481154
-0.010602298
-0.010564473
-0.010342936
-0.0099185382
-0.0092802832
-0.0084278524
-0.0073740418
-0.0061466689
-0.004789638
-0.0033627228
-0.0019396532
-0.0006042009
0.00055582089
0.0014563776
0.00202614
0.0022153539
0.0020029571
0.0013996759
0.00044732476
-0.00077751778
-0.0021736851
-0.0037547132
-0.005645563
-0.0029257424
-0.0044206372
-0.0054111086
-0.00613945
-0.006765054
-0.0073255664
-0.007855161
-0.0083846591
-0.0089335595