/*--------------------------------*- C++ -*----------------------------------*\
  =========                 |
  \\      /  F ield         | OpenFOAM: The Open Source CFD Toolbox
   \\    /   O peration     | Website:  https://openfoam.org
    \\  /    A nd           | Version:  7
     \\/     M anipulation  |
\*---------------------------------------------------------------------------*/
FoamFile
{
    version     2.0;
    format      ascii;
    class       surfaceScalarField;
    location    "20";
    object      phi;
}
// * * * * * * * * * * * * * * * * * * * * * * * * * * * * * * * * * * * * * //

dimensions      [0 3 -1 0 0 0 0];

internalField   nonuniform List<scalar> 
45600
(
2.7501423e-07
-2.8236272e-07
-8.2588927e-11
4.0323274e-07
-1.281928e-07
-2.6042864e-11
1.3248927e-07
2.7075016e-07
-7.2833584e-12
-5.6234569e-07
6.9483629e-07
-1.9395531e-12
-1.6393044e-06
1.0769549e-06
3.2531168e-12
-3.027561e-06
1.3882494e-06
6.7742522e-12
-4.6523401e-06
1.6247694e-06
9.0843326e-12
-6.4449015e-06
1.79255e-06
1.0713298e-11
-8.3451519e-06
1.9002379e-06
1.1869081e-11
-1.0301092e-05
1.9559268e-06
1.264051e-11
-1.2266971e-05
1.9658652e-06
1.3082297e-11
-1.4201071e-05
1.9340859e-06
1.322583e-11
-1.6063652e-05
1.8625668e-06
1.3085687e-11
-1.7815368e-05
1.7517029e-06
1.2664868e-11
-1.941633e-05
1.6009492e-06
1.1955464e-11
-2.0825878e-05
1.4095366e-06
1.0939547e-11
-2.2003083e-05
1.1771936e-06
9.5976184e-12
-2.2907913e-05
9.048206e-07
7.9254406e-12
-2.3502995e-05
5.9507428e-07
5.9430675e-12
-2.3755827e-05
2.5282739e-07
3.6965004e-12
-2.3641283e-05
-1.1454594e-07
1.2414439e-12
-2.3144187e-05
-4.9709538e-07
-1.3824729e-12
-2.2261805e-05
-8.8237886e-07
-4.1352918e-12
-2.1005916e-05
-1.2558851e-06
-6.9170343e-12
-1.9404243e-05
-1.6016673e-06
-9.5416788e-12
-1.7501025e-05
-1.9032071e-06
-1.1784907e-11
-1.5356535e-05
-2.1444752e-06
-1.3503346e-11
-1.3045418e-05
-2.3111004e-06
-1.4698355e-11
-1.0653858e-05
-2.3915464e-06
-1.5432091e-11
-8.2756653e-06
-2.3781845e-06
-1.5632469e-11
-6.0074996e-06
-2.2681576e-06
-1.5014108e-11
-3.9435323e-06
-2.0639534e-06
-1.3298421e-11
-2.1698328e-06
-1.77368e-06
-1.0582978e-11
-7.5861289e-07
-1.4112052e-06
-7.4179816e-12
2.381276e-07
-9.9674278e-07
-4.4931216e-12
7.9646262e-07
-5.5835223e-07
-2.2573709e-12
9.2920113e-07
-1.3275102e-07
7.2156424e-13
7.0552593e-07
2.2368569e-07
5.4373766e-12
2.9043849e-07
4.1511458e-07
1.1003736e-11
2.904574e-07
5.3064766e-12
1.3280371e-07
-4.1514332e-07
-2.3439302e-11
-3.0176805e-07
3.0639274e-07
-1.4862151e-11
-1.6154354e-06
1.5844294e-06
-1.2904781e-11
-3.8746531e-06
2.9540664e-06
-1.3582697e-11
-7.0071611e-06
4.2094764e-06
-1.4678904e-11
-1.0879412e-05
5.260515e-06
-1.6168287e-11
-1.533464e-05
6.0800143e-06
-1.7563777e-11
-2.0215274e-05
6.673201e-06
-1.8567916e-11
-2.5373115e-05
7.0580972e-06
-1.9124463e-11
-3.0672104e-05
7.2549339e-06
-1.9240665e-11
-3.5987147e-05
7.2809257e-06
-1.8937138e-11
-4.1201215e-05
7.148171e-06
-1.8239792e-11
-4.620215e-05
6.8635166e-06
-1.7169362e-11
-5.0880085e-05
6.4296518e-06
-1.5733828e-11
-5.5126045e-05
5.8469216e-06
-1.3930286e-11
-5.8831988e-05
5.1154888e-06
-1.1757314e-11
-6.1892359e-05
4.2375727e-06
-9.2312731e-12
-6.420709e-05
3.2195558e-06
-6.3862222e-12
-6.5685805e-05
2.0737905e-06
-3.2807444e-12
-6.6252925e-05
8.1994391e-07
3.2869652e-14
-6.5853496e-05
-5.1398254e-07
3.5155947e-12
-6.4458422e-05
-1.8921793e-06
7.1497032e-12
-6.2070234e-05
-3.2705788e-06
1.0751593e-11
-5.8727027e-05
-4.5991067e-06
1.4109826e-11
-5.4505229e-05
-5.8234847e-06
1.7039082e-11
-4.9520301e-05
-6.8881617e-06
1.9473265e-11
-4.3925051e-05
-7.7397531e-06
2.1456126e-11
-3.7905367e-05
-8.3308094e-06
2.2981103e-11
-3.1673316e-05
-8.6236178e-06
2.3827753e-11
-2.5457811e-05
-8.5937072e-06
2.3635597e-11
-1.949324e-05
-8.2327553e-06
2.225342e-11
-1.4006537e-05
-7.5506912e-06
2.0031003e-11
-9.2032569e-06
-6.5769922e-06
1.7615177e-11
-5.2529695e-06
-5.3615037e-06
1.5303915e-11
-2.2740956e-06
-3.9756068e-06
1.2648138e-11
-3.1739252e-07
-2.5150484e-06
8.8596123e-12
6.5695469e-07
-1.1071229e-06
3.7091819e-12
8.0359464e-07
7.6988287e-08
1.0019427e-12
4.1778981e-07
8.0085597e-07
2.6863655e-12
7.0826937e-07
-1.895034e-12
-2.7361406e-07
-1.4151686e-07
-1.2982543e-11
-1.6274881e-06
1.6602734e-06
-7.7701422e-12
-4.289315e-06
4.2462643e-06
-9.0404034e-12
-8.2744289e-06
6.9391869e-06
-7.5693769e-12
-1.3473952e-05
9.409004e-06
-5.5464342e-12
-1.970799e-05
1.1494556e-05
-4.4314627e-12
-2.6764716e-05
1.3136743e-05
-3.7078222e-12
-3.4425251e-05
1.4333738e-05
-3.106771e-12
-4.2476917e-05
1.5109765e-05
-2.6037533e-12
-5.0718381e-05
1.5496399e-05
-2.1590609e-12
-5.8959871e-05
1.5522417e-05
-1.7329157e-12
-6.7020924e-05
1.5209223e-05
-1.3070382e-12
-7.4727442e-05
1.4570034e-05
-8.7993727e-13
-8.1909334e-05
1.3611543e-05
-4.5621679e-13
-8.8399503e-05
1.2337089e-05
-3.7683448e-14
-9.4034617e-05
1.07506e-05
3.8095922e-13
-9.8657775e-05
8.8607273e-06
8.0472995e-13
-0.00010212297
6.6847482e-06
1.22034e-12
-0.00010430106
4.2518782e-06
1.5890693e-12
-0.00010508687
1.6057445e-06
1.8730654e-12
-0.0001044066
-1.1942544e-06
2.0836191e-12
-0.00010222558
-4.0732064e-06
2.2690331e-12
-9.8554866e-05
-6.9412952e-06
2.4745329e-12
-9.3456633e-05
-9.6973442e-06
2.676035e-12
-8.7047352e-05
-1.2232767e-05
2.7644055e-12
-7.9498325e-05
-1.4437193e-05
2.6477526e-12
-7.1033001e-05
-1.6205085e-05
2.3970301e-12
-6.1920846e-05
-1.7442975e-05
2.2547708e-12
-5.2467661e-05
-1.8076809e-05
2.4159635e-12
-4.3002563e-05
-1.8058804e-05
2.7581573e-12
-3.3862043e-05
-1.7373271e-05
2.8694391e-12
-2.5371741e-05
-1.6040995e-05
2.4957666e-12
-1.782664e-05
-1.412211e-05
1.9846212e-12
-1.1470342e-05
-1.1717821e-05
2.0906165e-12
-6.4739117e-06
-8.9720413e-06
3.1203908e-12
-2.9141385e-06
-6.0748017e-06
4.2580544e-12
-7.5132082e-07
-3.2699131e-06
4.1230438e-12
1.9429094e-07
-8.6861789e-07
3.3945552e-12
2.654555e-07
7.2965292e-07
4.1212894e-12
9.7372996e-07
5.8024068e-13
-7.4584019e-07
6.0433586e-07
-1.3139271e-11
-3.1795519e-06
4.0939855e-06
-1.727922e-12
-7.3458587e-06
8.4125771e-06
-7.1554183e-12
-1.3162568e-05
1.2755901e-05
-6.4806371e-12
-2.0455015e-05
1.6701454e-05
-3.8319327e-12
-2.8991457e-05
2.0031e-05
-2.4702837e-12
-3.8512278e-05
2.2657564e-05
-1.5651152e-12
-4.8750624e-05
2.4572084e-05
-7.54525e-13
-5.9444459e-05
2.5803598e-05
-8.9024503e-14
-7.0341833e-05
2.6393771e-05
4.4607158e-13
-8.1201656e-05
2.6382238e-05
8.9344931e-13
-9.1792057e-05
2.5799621e-05
1.2789686e-12
-0.00010188806
2.4666039e-05
1.6118893e-12
-0.0001112699
2.2993375e-05
1.8876316e-12
-0.00011972272
2.0789906e-05
2.0945087e-12
-0.00012703828
1.8066153e-05
2.2275372e-12
-0.00013301863
1.4841073e-05
2.2973964e-12
-0.00013748176
1.1147878e-05
2.3162345e-12
-0.00014026882
7.0389327e-06
2.2730749e-12
-0.00014125241
2.5893262e-06
2.1326187e-12
-0.00014034526
-2.1014041e-06
1.8719736e-12
-0.00013750909
-6.9093813e-06
1.4778345e-12
-0.00013276203
-1.1688364e-05
1.0474202e-12
-0.00012618468
-1.6274696e-05
6.8693647e-13
-0.00011792368
-2.0493763e-05
4.0568043e-13
-0.00010819218
-2.4168695e-05
8.4176398e-14
-9.7266645e-05
-2.713062e-05
-3.9694863e-13
-8.5479701e-05
-2.9229922e-05
-9.5142081e-13
-7.3208752e-05
-3.0347766e-05
-1.2501394e-12
-6.086056e-05
-3.0407002e-05
-1.0018622e-12
-4.8852191e-05
-2.9381635e-05
-3.3281463e-13
-3.7589031e-05
-2.7304145e-05
2.1714591e-13
-2.7440768e-05
-2.427037e-05
2.6368757e-13
-1.8716405e-05
-2.0442199e-05
1.55962e-13
-1.1639361e-05
-1.604911e-05
7.331028e-13
-6.3235885e-06
-1.1390586e-05
2.315054e-12
-2.7515915e-06
-6.8418991e-06
4.0924298e-12
-7.5718969e-07
-2.8630019e-06
4.7480003e-12
-9.5500797e-09
-1.8001827e-08
4.2308389e-12
9.6417242e-07
3.2701179e-12
-1.2279277e-06
1.8322776e-06
-1.4588568e-11
-4.7879305e-06
7.6539827e-06
4.3166768e-12
-1.0521118e-05
1.414577e-05
-6.2413745e-12
-1.8213568e-05
2.0448357e-05
-7.3289785e-12
-2.7602749e-05
2.6090638e-05
-4.9322368e-12
-3.8394619e-05
3.0822873e-05
-4.1895395e-12
-5.0280838e-05
3.4543786e-05
-3.8364509e-12
-6.2951996e-05
3.7243244e-05
-3.3570034e-12
-7.6105663e-05
3.8957267e-05
-2.8862182e-12
-8.944981e-05
3.973792e-05
-2.4551835e-12
-0.00010270293
3.9635362e-05
-2.0381904e-12
-0.00011559244
3.8689132e-05
-1.6193274e-12
-0.00012785275
3.6926343e-05
-1.1889629e-12
-0.00013922415
3.4364774e-05
-7.4510638e-13
-0.00014945331
3.1019065e-05
-3.0002276e-13
-0.00015829572
2.6908565e-05
1.2638352e-13
-0.00016552026
2.2065607e-05
5.2697846e-13
-0.00017091563
1.6543249e-05
9.1658769e-13
-0.00017429844
1.0421741e-05
1.3154429e-12
-0.00017552227
3.8131515e-06
1.7147197e-12
-0.00017448721
-3.1364656e-06
2.0591786e-12
-0.00017114924
-1.0247361e-05
2.2696948e-12
-0.00016552851
-1.7309092e-05
2.3427012e-12
-0.00015771606
-2.408716e-05
2.3766293e-12
-0.00014787786
-3.0331966e-05
2.497891e-12
-0.00013625582
-3.5790735e-05
2.712452e-12
-0.00012316478
-4.0221659e-05
2.8426817e-12
-0.00010898516
-4.3409551e-05
2.6847429e-12
-9.4150856e-05
-4.5182074e-05
2.2901891e-12
-7.9132503e-05
-4.5425367e-05
2.0434529e-12
-6.4416266e-05
-4.4097882e-05
2.3178195e-12
-5.0479059e-05
-4.1241351e-05
2.9874093e-12
-3.7761246e-05
-3.6988173e-05
3.4121262e-12
-2.6638266e-05
-3.1565174e-05
3.109456e-12
-1.7392876e-05
-2.5294513e-05
2.4337076e-12
-1.0189804e-05
-1.8593683e-05
2.4657078e-12
-5.0547245e-06
-1.197699e-05
3.856686e-12
-1.8598517e-06
-6.0578652e-06
4.244512e-12
-3.2223991e-07
-1.5556068e-06
8.4072227e-13
6.4192015e-07
5.767088e-12
-1.6930982e-06
3.5253922e-06
-1.7050663e-11
-6.3711334e-06
1.2332007e-05
9.7678982e-12
-1.3670843e-05
2.1445484e-05
-5.250678e-12
-2.3233008e-05
3.0010528e-05
-7.4144016e-12
-3.469366e-05
3.7551293e-05
-4.6864427e-12
-4.7687637e-05
4.3816853e-05
-4.1150661e-12
-6.1854688e-05
4.871084e-05
-3.985104e-12
-7.6844552e-05
5.2233109e-05
-3.6150694e-12
-9.2319662e-05
5.4432379e-05
-3.2038134e-12
-0.00010795538
5.5373636e-05
-2.8089245e-12
-0.0001234384
5.5118392e-05
-2.4114993e-12
-0.0001384645
5.3715228e-05
-2.0053317e-12
-0.00015273645
5.1198296e-05
-1.5843089e-12
-0.00016596325
4.7591572e-05
-1.1386744e-12
-0.00017786102
4.2916828e-05
-6.6741773e-13
-0.00018815598
3.7203529e-05
-1.9004156e-13
-0.00019658957
3.0499197e-05
2.645245e-13
-0.00020292538
2.2879051e-05
6.8436784e-13
-0.00020695765
1.4454011e-05
1.0913063e-12
-0.00020852089
5.3763853e-06
1.519814e-12
-0.00020749991
-4.1574494e-06
1.9645073e-12
-0.00020383977
-1.3907499e-05
2.3544626e-12
-0.00019755497
-2.35939e-05
2.5872955e-12
-0.00018873696
-3.2905169e-05
2.6438723e-12
-0.00017755946
-4.1509476e-05
2.6472198e-12
-0.00016428047
-4.9069737e-05
2.7738491e-12
-0.0001492404
-5.5261731e-05
3.0542573e-12
-0.00013285549
-5.979446e-05
3.2712544e-12
-0.00011560596
-6.24316e-05
3.1461512e-12
-9.8018736e-05
-6.3012602e-05
2.7026975e-12
-8.0644852e-05
-6.1471782e-05
2.3849219e-12
-6.4032395e-05
-5.7853822e-05
2.648948e-12
-4.8696175e-05
-5.2324393e-05
3.3729424e-12
-3.508605e-05
-4.5175288e-05
3.8128732e-12
-2.3556155e-05
-3.6824403e-05
3.4000849e-12
-1.4337598e-05
-2.7812253e-05
2.8696605e-12
-7.5173813e-06
-1.8797226e-05
3.8282836e-12
-3.0267017e-06
-1.0548549e-05
3.6630177e-12
-6.424916e-07
-3.9398062e-06
-1.6306422e-12
-5.8157066e-10
8.4991287e-12
-2.1328386e-06
5.6582498e-06
-1.9803351e-11
-7.8907066e-06
1.8089859e-05
1.459085e-11
-1.6716617e-05
3.0271397e-05
-4.4794266e-12
-2.8104413e-05
4.139833e-05
-7.450274e-12
-4.1583125e-05
5.1030009e-05
-4.229694e-12
-5.6711466e-05
5.8945196e-05
-3.6943862e-12
-7.3074856e-05
6.5074233e-05
-3.6974502e-12
-9.0282885e-05
6.9441141e-05
-3.3827933e-12
-0.00010796633
7.2115828e-05
-3.004838e-12
-0.0001257735
7.3180807e-05
-2.6369885e-12
-0.00014336623
7.2711119e-05
-2.2581016e-12
-0.0001604162
7.0765203e-05
-1.8692625e-12
-0.00017660233
6.7384427e-05
-1.4753303e-12
-0.00019160972
6.2598957e-05
-1.068678e-12
-0.00020513062
5.6437726e-05
-6.3460728e-13
-0.00021686757
4.8940479e-05
-1.7283065e-13
-0.00022653861
4.0170237e-05
2.8993621e-13
-0.00023388438
3.0224821e-05
7.1314662e-13
-0.00023867679
1.9246415e-05
1.0790118e-12
-0.0002407288
7.4283954e-06
1.4172555e-12
-0.00023990497
-4.9812921e-06
1.7796041e-12
-0.00023613195
-1.7680515e-05
2.1810307e-12
-0.00022940884
-3.0317013e-05
2.5285955e-12
-0.00021981607
-4.2497945e-05
2.6929719e-12
-0.00020752246
-5.3803093e-05
2.6397555e-12
-0.00019278933
-6.3802873e-05
2.5189165e-12
-0.00017597068
-7.2080392e-05
2.5654827e-12
-0.00015750839
-7.8256753e-05
2.8455155e-12
-0.00013792166
-8.2018329e-05
3.1117179e-12
-0.00011779002
-8.3144232e-05
3.0176801e-12
-9.7729984e-05
-8.1531824e-05
2.5606725e-12
-7.8365839e-05
-7.7217981e-05
2.2321131e-12
-6.0296186e-05
-7.0394061e-05
2.5353326e-12
-4.4058359e-05
-6.1413117e-05
3.2691581e-12
-3.0093677e-05
-5.0789076e-05
3.5659269e-12
-1.8716828e-05
-3.9189098e-05
3.4349012e-12
-1.0092844e-05
-2.7421224e-05
4.4635998e-12
-4.2252405e-06
-1.6416164e-05
3.3832102e-12
-9.5847443e-07
-7.2065656e-06
-4.6493281e-12
-9.5906435e-07
1.0544856e-11
-2.5449299e-06
8.2032015e-06
-2.2575025e-11
-9.3283906e-06
2.4873299e-05
1.8888462e-11
-1.9614408e-05
4.0557418e-05
-3.9761191e-12
-3.2755262e-05
5.4539191e-05
-7.6921101e-12
-4.8173568e-05
6.6448318e-05
-4.010579e-12
-6.535097e-05
7.6122601e-05
-3.5238288e-12
-8.3818172e-05
8.3541437e-05
-3.6682934e-12
-0.00010314579
8.8768758e-05
-3.4235987e-12
-0.00012293592
9.190596e-05
-3.0955833e-12
-0.0001428144
9.3059293e-05
-2.7707228e-12
-0.00016242398
9.2320696e-05
-2.4195091e-12
-0.00018141875
8.975998e-05
-2.0420729e-12
-0.00019946044
8.5426109e-05
-1.6531984e-12
-0.00021621663
7.935515e-05
-1.2594322e-12
-0.00023136138
7.158248e-05
-8.4971936e-13
-0.00024457801
6.21571e-05
-4.0435038e-13
-0.000255564
5.1156229e-05
7.8638465e-14
-0.00026403792
3.8698745e-05
5.653667e-13
-0.0002697479
2.4956385e-05
1.0011691e-12
-0.00027248142
1.0161912e-05
1.357072e-12
-0.00027207623
-5.3864858e-06
1.6665202e-12
-0.00026843162
-2.1325131e-05
2.0179776e-12
-0.0002615201
-3.7228531e-05
2.4234986e-12
-0.00025139831
-5.2619741e-05
2.787156e-12
-0.00023821655
-6.6984851e-05
2.9466433e-12
-0.00022222594
-7.9793486e-05
2.8425124e-12
-0.00020378173
-9.0524609e-05
2.6435091e-12
-0.00018334156
-9.8696942e-05
2.6379767e-12
-0.00016145719
-0.0001039027
2.9272755e-12
-0.00013875889
-0.00010584253
3.2425598e-12
-0.00011593178
-0.00010435893
3.1890483e-12
-9.3684748e-05
-9.9465019e-05
2.7586132e-12
-7.2713334e-05
-9.1365488e-05
2.4736006e-12
-5.3659253e-05
-8.0467211e-05
2.7453858e-12
-3.7070094e-05
-6.7378237e-05
3.1841988e-12
-2.3363348e-05
-5.2895838e-05
3.6495671e-12
-1.2799006e-05
-3.7985569e-05
5.3321059e-12
-5.4647583e-06
-2.3750421e-05
3.4544658e-12
-1.2772326e-06
-1.1394088e-05
-7.7401783e-12
-2.2363078e-06
1.2879219e-11
-2.9283345e-06
1.113156e-05
-2.5275334e-11
-1.067314e-05
3.2618081e-05
2.2738095e-11
-2.2335072e-05
5.2219352e-05
-3.6443521e-12
-3.713416e-05
6.9338285e-05
-8.0326966e-12
-5.4391479e-05
8.3705639e-05
-3.9033375e-12
-7.351411e-05
9.5245235e-05
-3.4529654e-12
-9.3979856e-05
0.00010400718
-3.7215273e-12
-0.00011532257
0.00011011148
-3.5368555e-12
-0.00013711885
0.00011370224
-3.253868e-12
-0.0001589763
0.00011491674
-2.9742852e-12
-0.00018052369
0.00011386808
-2.6604601e-12
-0.00020140325
0.00011063955
-2.3032768e-12
-0.00022126541
0.00010528827
-1.9152978e-12
-0.00023976593
9.785567e-05
-1.514746e-12
-0.0002565656
8.8382147e-05
-1.1106081e-12
-0.00027133227
7.6923771e-05
-6.8851524e-13
-0.00028374511
6.3569062e-05
-2.2198021e-13
-0.00029350079
4.8454424e-05
2.956331e-13
-0.00030032154
3.1777137e-05
8.2389214e-13
-0.00030396477
1.3805144e-05
1.2869276e-12
-0.00030423421
-5.11705e-06
1.6359193e-12
-0.00030099196
-2.4567385e-05
1.9401549e-12
-0.00029417197
-4.4048525e-05
2.2746231e-12
-0.00028379328
-6.2998436e-05
2.6861033e-12
-0.00026997291
-8.0805224e-05
3.0743372e-12
-0.00025293695
-9.6829451e-05
3.243353e-12
-0.00023302828
-0.00011043328
3.1067067e-12
-0.00021070916
-0.00012101607
2.8442325e-12
-0.00018655673
-0.00012805514
2.7852837e-12
-0.0001612498
-0.00013114947
3.0568951e-12
-0.00013554583
-0.0001300629
3.3784594e-12
-0.00011024817
-0.00012476267
3.3509516e-12
-8.616486e-05
-0.0001154488
2.9971492e-12
-6.4061906e-05
-0.00010257018
2.7409851e-12
-4.4615433e-05
-8.6824721e-05
2.7366828e-12
-2.8367766e-05
-6.9143505e-05
3.3977634e-12
-1.5692743e-05
-5.0660592e-05
5.955843e-12
-6.7750511e-06
-3.2668116e-05
3.6798481e-12
-1.6069968e-06
-1.6562135e-05
-1.0696948e-11
-3.8433201e-06
1.5359201e-11
-3.2815335e-06
1.4413121e-05
-2.7848553e-11
-1.1915276e-05
4.1251795e-05
2.6174979e-11
-2.4854288e-05
6.5158365e-05
-3.4376993e-12
-4.1197915e-05
8.568192e-05
-8.4264661e-12
-6.0173422e-05
0.00010268115
-3.8694552e-12
-8.1118409e-05
0.00011619022
-3.4339926e-12
-0.00010346147
0.00012635025
-3.8046188e-12
-0.00012670305
0.00013335306
-3.6658583e-12
-0.00015039783
0.00013739702
-3.415595e-12
-0.00017413937
0.00013865828
-3.172679e-12
-0.00019754728
0.00013727599
-2.8983444e-12
-0.00022025719
0.00013334946
-2.5757407e-12
-0.00024191365
0.00012694473
-2.20438e-12
-0.00026216579
0.00011810781
-1.7969775e-12
-0.00028066574
0.0001068821
-1.3771098e-12
-0.00029706944
9.3327478e-05
-9.5768025e-13
-0.0003110398
7.7539413e-05
-5.2151735e-13
-0.00032225181
5.9666435e-05
-3.22413e-14
-0.00033039982
3.992515e-05
5.2335838e-13
-0.00033520668
1.8611997e-05
1.0871774e-12
-0.00033643505
-3.888682e-06
1.552712e-12
-0.00033389998
-2.7102448e-05
1.9421708e-12
-0.00032748468
-5.0463839e-05
2.2262333e-12
-0.00031715616
-7.332696e-05
2.5327926e-12
-0.00030298225
-9.4979138e-05
2.9360937e-12
-0.00028514753
-0.00011466417
3.3337278e-12
-0.00026396672
-0.00013161409
3.5058205e-12
-0.00023989306
-0.00014508973
3.3441738e-12
-0.00021351921
-0.00015442899
3.0336125e-12
-0.00018556812
-0.00015910057
2.9240062e-12
-0.00015687187
-0.00015875916
3.1489239e-12
-0.00012833784
-0.0001532967
3.4389676e-12
-0.00010090312
-0.00014288351
3.446375e-12
-7.548031e-05
-0.00012799299
3.1258868e-12
-5.2899659e-05
-0.00010940538
2.6466638e-12
-3.3854181e-05
-8.8188991e-05
3.0867471e-12
-1.8854274e-05
-6.5660503e-05
6.3151581e-12
-8.1980454e-06
-4.3324345e-05
3.7665345e-12
-1.9611121e-06
-2.2799054e-05
-1.3790807e-11
-5.8044515e-06
1.8072486e-11
-3.6021223e-06
1.8015273e-05
-3.0251111e-11
-1.3044231e-05
5.0693873e-05
2.9207569e-11
-2.7147974e-05
7.9262111e-05
-3.3358351e-12
-4.4905025e-05
0.00010343898
-8.861623e-12
-6.5458426e-05
0.00012323455
-3.9072845e-12
-8.8083153e-05
0.00013881495
-3.4779238e-12
-0.00011216369
0.00015043079
-3.9366613e-12
-0.00013717127
0.00015836064
-3.8381046e-12
-0.00016264271
0.00016286847
-3.614332e-12
-0.00018816179
0.00016417736
-3.3976358e-12
-0.00021334358
0.00016245778
-3.1540368e-12
-0.00023782212
0.000157828
-2.8696778e-12
-0.00026124124
0.00015036385
-2.5345817e-12
-0.00028324851
0.00014011508
-2.1424228e-12
-0.00030349195
0.00012712554
-1.7074873e-12
-0.00032161936
0.00011145488
-1.2606108e-12
-0.00033727983
9.3199885e-05
-8.1948435e-13
-0.00035012758
7.2514187e-05
-3.6430095e-13
-0.00035982793
4.9625499e-05
1.5002545e-13
-0.00036606564
2.4849699e-05
7.2656366e-13
-0.00036855637
-1.3979522e-06
1.2762631e-12
-0.00036705906
-2.8599758e-05
1.8753202e-12
-0.00036139451
-5.6128385e-05
2.2706284e-12
-0.00035146327
-8.3258209e-05
2.531418e-12
-0.00033726717
-0.00010917525
2.8073676e-12
-0.000318931
-0.00013300035
3.1862891e-12
-0.00029672266
-0.00015382243
3.5711742e-12
-0.00027106908
-0.00017074331
3.7312626e-12
-0.0002425644
-0.00018293368
3.5484028e-12
-0.00021196703
-0.00018969794
3.2077109e-12
-0.00018018235
-0.00019054385
3.0543976e-12
-0.00014822905
-0.00018525001
3.2219955e-12
-0.00011718942
-0.00017392314
3.4824625e-12
-8.8146461e-05
-0.00015703595
3.4311906e-12
-6.2113646e-05
-0.0001354382
2.8251872e-12
-3.9965385e-05
-0.00011033726
3.0238437e-12
-2.2376998e-05
-8.3248899e-05
6.7095081e-12
-9.7824248e-06
-5.5918921e-05
3.7070142e-12
-2.3546322e-06
-3.0226828e-05
-1.7284857e-11
-8.1591052e-06
2.1123497e-11
-3.8868605e-06
2.1902165e-05
-3.2441973e-11
-1.4047988e-05
6.0854967e-05
3.183041e-11
-2.919068e-05
9.4404805e-05
-3.3201293e-12
-4.8213032e-05
0.00012246134
-9.3214682e-12
-7.0184646e-05
0.00014520617
-4.0110214e-12
-9.4325837e-05
0.00016295615
-3.5819872e-12
-0.00011998293
0.00017608789
-4.116256e-12
-0.00014660275
0.00018498046
-4.0559725e-12
-0.00017370852
0.00018997424
-3.8601934e-12
-0.00020087851
0.00019134735
-3.6662622e-12
-0.00022772781
0.00018930709
-3.4419894e-12
-0.00025389369
0.00018399389
-3.1843465e-12
-0.00027902433
0.00017549449
-2.8891685e-12
-0.00030277079
0.00016386155
-2.5377619e-12
-0.0003247819
0.00014913665
-2.1188393e-12
-0.00034470154
0.00013137453
-1.6490251e-12
-0.00036216844
0.00011066679
-1.1663559e-12
-0.00037681813
8.7163872e-05
-6.9587126e-13
-0.00038828734
6.1094708e-05
-2.1780596e-13
-0.00039622124
3.2783601e-05
3.3334672e-13
-0.00040028352
2.66432e-06
1.006735e-12
-0.00040017129
-2.8711983e-05
1.6326906e-12
-0.00039563186
-6.0667817e-05
2.2055558e-12
-0.00038648567
-9.2404403e-05
2.607544e-12
-0.00037265155
-0.00012300937
2.8595172e-12
-0.0003541746
-0.0001514773
3.1035463e-12
-0.00033125423
-0.0001767428
3.4409809e-12
-0.00030426915
-0.0001977284
3.7838127e-12
-0.00027379525
-0.00021340757
3.9059341e-12
-0.00024061156
-0.00022288164
3.6952596e-12
-0.00020568947
-0.00022546594
3.3342656e-12
-0.00017016168
-0.00022077781
3.1577045e-12
-0.00013526946
-0.00020881537
3.3015829e-12
-0.00010229052
-0.00019001489
3.4194171e-12
-7.2453956e-05
-0.00016527477
2.9195469e-12
-4.6852019e-05
-0.0001359392
3.1271965e-12
-2.6360649e-05
-0.00010374028
7.3379665e-12
-1.1580128e-05
-7.0699446e-05
3.6624709e-12
-2.8032382e-06
-3.9003695e-05
-2.1308425e-11
-1.0962367e-05
2.4576239e-11
-4.1319233e-06
2.6034122e-05
-3.4379745e-11
-1.4913414e-05
7.1636422e-05
3.4028746e-11
-3.0955737e-05
0.00011044713
-3.3735297e-12
-5.1078393e-05
0.000142584
-9.7864754e-12
-7.4289041e-05
0.00016841682
-4.170018e-12
-9.9761863e-05
0.00018842897
-3.7383651e-12
-0.00012681137
0.00020313741
-4.3338323e-12
-0.00015486494
0.00021303402
-4.3071812e-12
-0.00018343655
0.00021854586
-4.142728e-12
-0.00021210314
0.00022001394
-3.9772048e-12
-0.00024048417
0.00021768813
-3.7707018e-12
-0.00026822484
0.00021173455
-3.5259288e-12
-0.00029498269
0.00020225235
-3.254352e-12
-0.00032041758
0.00018929645
-2.945736e-12
-0.00034418441
0.00017290347
-2.5741777e-12
-0.00036592832
0.00015311845
-2.1238967e-12
-0.00038528232
0.00013002079
-1.6131413e-12
-0.00040186709
0.00010374864
-1.087982e-12
-0.00041529343
7.4521052e-05
-5.8100982e-13
-0.00042516779
4.2657958e-05
-5.5948187e-14
-0.00043110112
8.5976477e-06
5.7244146e-13
-0.00043272361
-2.708949e-05
1.1923449e-12
-0.0004297019
-6.3689531e-05
1.8948125e-12
-0.00042176436
-0.00010034194
2.5236833e-12
-0.00040873045
-0.00013604328
2.9535449e-12
-0.00039054477
-0.00016966298
3.2033803e-12
-0.00036731364
-0.00019997394
3.4138521e-12
-0.00033934078
-0.00022570127
3.6903548e-12
-0.00030715726
-0.00024559109
3.9556855e-12
-0.0002715397
-0.0002584992
4.0046123e-12
-0.00023350989
-0.00026349575
3.7487723e-12
-0.0001943099
-0.0002599778
3.3884473e-12
-0.00015534886
-0.00024777643
3.250536e-12
-0.00011812218
-0.00022724156
3.2534663e-12
-8.410963e-05
-0.00019928732
2.7735527e-12
-5.4664046e-05
-0.00016538479
3.1654483e-12
-3.0906526e-05
-0.00012749781
8.1710878e-12
-1.3644335e-05
-8.7961641e-05
3.7330849e-12
-3.3229027e-06
-4.9325102e-05
-2.5915646e-11
-1.4285298e-05
2.8546803e-11
-4.333263e-06
3.036742e-05
-3.6023971e-11
-1.562712e-05
8.2930241e-05
3.57824e-11
-3.2416536e-05
0.00012723655
-3.4810568e-12
-5.3458079e-05
0.00016362556
-1.0236869e-11
-7.7709277e-05
0.00019266802
-4.3731177e-12
-0.00010430681
0.00021502651
-3.9410437e-12
-0.00013253969
0.00023137029
-4.5844054e-12
-0.00016182069
0.00024231503
-4.5826567e-12
-0.00019165864
0.00024838381
-4.4469349e-12
-0.00022163307
0.00024998837
-4.3159513e-12
-0.00025137192
0.00024742699
-4.1370087e-12
-0.00028053281
0.00024089544
-3.9052426e-12
-0.00030878768
0.00023050722
-3.6399481e-12
-0.00033581064
0.00021631941
-3.3509592e-12
-0.00036126853
0.00019836137
-3.024534e-12
-0.00038481391
0.00017666383
-2.628995e-12
-0.00040608021
0.0001512871
-2.1438082e-12
-0.00042467925
0.00012234768
-1.588283e-12
-0.00044020122
9.0043028e-05
-1.0130257e-12
-0.00045221803
5.4674767e-05
-4.4966003e-13
-0.00046029052
1.6670135e-05
1.2474621e-13
-0.00046398125
-2.3398755e-05
7.1963719e-13
-0.00046287245
-6.4798332e-05
1.4247508e-12
-0.00045659176
-0.00010662263
2.1834565e-12
-0.00044484492
-0.00014779013
2.8517934e-12
-0.00042745553
-0.00018705237
3.3061164e-12
-0.00040441029
-0.00022301918
3.5530555e-12
-0.00037590645
-0.00025420512
3.7214348e-12
-0.00034239627
-0.00027910128
3.9114965e-12
-0.00030462124
-0.00029627423
4.0578137e-12
-0.00026362698
-0.00030449
3.9930782e-12
-0.00022074976
-0.00030285503
3.696133e-12
-0.0001775673
-0.00029095889
3.4068394e-12
-0.00013581168
-0.00026899719
3.1740213e-12
-9.7249531e-05
-0.00023784947
2.5010104e-12
-6.3543257e-05
-0.00019909106
3.0440217e-12
-3.6113781e-05
-0.00015492729
9.0920752e-12
-1.6028149e-05
-0.00010804728
3.8855841e-12
-3.9297331e-06
-6.1423487e-05
-3.119723e-11
-1.8215064e-05
3.3191045e-11
-4.4870408e-06
3.4854497e-05
-3.7337754e-11
-1.6176678e-05
9.4619841e-05
3.7069647e-11
-3.3548584e-05
0.00014460846
-3.6307237e-12
-5.5312422e-05
0.0001853894
-1.0654025e-11
-8.0387322e-05
0.00021774292
-4.6074392e-12
-0.00010788079
0.00024251998
-4.1822085e-12
-0.00013706226
0.00026055176
-4.8652159e-12
-0.0001673343
0.00027258708
-4.8804524e-12
-0.00019820429
0.0002792538
-4.7639116e-12
-0.00022925782
0.00028104191
-4.6634932e-12
-0.00026013507
0.00027830424
-4.5200533e-12
-0.00029051032
0.0002712707
-4.3147095e-12
-0.00032007483
0.00026007173
-4.0572643e-12
-0.00034852262
0.00024476721
-3.7665117e-12
-0.00037553892
0.00022537767
-3.4534868e-12
-0.00040079081
0.00020191571
-3.1030785e-12
-0.00042391995
0.00017441625
-2.6787339e-12
-0.00044453748
0.0001429652
-2.1553211e-12
-0.0004622213
0.00010772685
-1.5492593e-12
-0.0004765167
6.8970173e-05
-9.1129127e-13
-0.00048694103
2.7094467e-05
-2.8637249e-13
-0.00049299395
-1.7345837e-05
3.1821877e-13
-0.00049417418
-6.3618104e-05
9.7200375e-13
-0.00049000468
-0.00011079213
1.7193356e-12
-0.00048006699
-0.00015772782
2.5094708e-12
-0.00046404538
-0.00020307398
3.2008309e-12
-0.00044178004
-0.00024528453
3.6634507e-12
-0.00041332669
-0.00028265847
3.891555e-12
-0.00037901766
-0.00031341032
3.9955948e-12
-0.00033951588
-0.00033577601
4.0616483e-12
-0.00029585099
-0.0003481549
4.0416139e-12
-0.00024942425
-0.00034928177
3.8574344e-12
-0.00020197043
-0.00033841271
3.594072e-12
-0.00015546931
-0.00031549831
3.2128209e-12
-0.00011200902
-0.00028130977
2.2462055e-12
-7.3615782e-05
-0.0002374843
2.8334909e-12
-4.2076007e-05
-0.00018646707
1.0073876e-11
-1.8783549e-05
-0.00013133974
4.0502059e-12
-4.6398944e-06
-7.5567103e-05
-3.7306991e-11
-2.2854996e-05
3.8649326e-11
-4.5901146e-06
3.944465e-05
-3.8290734e-11
-1.6552093e-05
0.00010658178
3.7872687e-11
-3.4332132e-05
0.0001623885
-3.8141192e-12
-5.6608912e-05
0.00020766619
-1.1023743e-11
-8.2274362e-05
0.00024340838
-4.8607892e-12
-0.00011041447
0.00027066009
-4.4510487e-12
-0.00014028429
0.00029042158
-5.1704063e-12
-0.00017127998
0.00030358278
-5.2011286e-12
-0.00020291049
0.00031088432
-5.0947417e-12
-0.00023477048
0.0003129019
-5.0107333e-12
-0.00026651563
0.00031004939
-4.8954448e-12
-0.00029784084
0.00030259591
-4.724421e-12
-0.00032846141
0.00029069231
-4.490748e-12
-0.00035809703
0.00027440283
-4.2009902e-12
-0.00038645816
0.0002537388
-3.875942e-12
-0.00041323445
0.00022869201
-3.529514e-12
-0.00043808504
0.00019926684
-3.1462092e-12
-0.00046063073
0.00016551091
-2.6860492e-12
-0.00048044845
0.00012754458
-2.11869e-12
-0.00049706858
8.5590309e-05
-1.4554629e-12
-0.00050997637
4.0002261e-05
-7.5096944e-13
-0.00051861868
-8.7035284e-06
-6.1744225e-14
-0.00052241781
-5.9818971e-05
6.0530222e-13
-0.00052079433
-0.00011241561
1.3100145e-12
-0.0005132009
-0.00016532125
2.0906226e-12
-0.00049916859
-0.00021710629
2.8941708e-12
-0.00047836631
-0.00026608681
3.5795639e-12
-0.00045067194
-0.00031035284
4.0168575e-12
-0.00041625088
-0.00034783138
4.1900643e-12
-0.00037563356
-0.00037639334
4.1846884e-12
-0.00032977884
-0.00039400963
4.0728205e-12
-0.00028010632
-0.00039895429
3.8783313e-12
-0.0002284791
-0.00039003993
3.6611323e-12
-0.00017712251
-0.0003668549
3.23616e-12
-0.00012847496
-0.00032995732
2.0045289e-12
-8.4983763e-05
-0.0002809755
2.6067422e-12
-4.8877569e-05
-0.00022257328
1.1179391e-11
-2.196033e-05
-0.00015825698
4.2105375e-12
-5.4695491e-06
-9.2057838e-05
-4.4408325e-11
-2.832459e-05
4.5034719e-11
-4.6405707e-06
4.4085258e-05
-3.8863765e-11
-1.674746e-05
0.00011868863
3.8183925e-11
-3.4755232e-05
0.00018039627
-4.025091e-12
-5.7326705e-05
0.00023023768
-1.1338481e-11
-8.3336747e-05
0.00026941843
-5.1263383e-12
-0.0001118564
0.00029917974
-4.7385367e-12
-0.00014213061
0.0003206958
-5.4911153e-12
-0.00017355208
0.00033500425
-5.5414523e-12
-0.00020563373
0.00034296597
-5.4439535e-12
-0.00023798167
0.00034524985
-5.3628227e-12
-0.00027026993
0.00034233765
-5.2549951e-12
-0.00030221754
0.00033454352
-5.1050289e-12
-0.00033356838
0.00032204315
-4.9005441e-12
-0.0003640735
0.00030490796
-4.6285858e-12
-0.00039347569
0.000283141
-4.2950744e-12
-0.00042149586
0.00025671218
-3.9237708e-12
-0.000447821
0.00022559199
-3.5312335e-12
-0.00047209379
0.00018978371
-3.1027303e-12
-0.00049390405
0.00014935484
-2.5966088e-12
-0.0005127826
0.00010446886
-1.9772866e-12
-0.00052819864
5.5418311e-05
-1.251988e-12
-0.00053956205
2.6598794e-06
-4.7379323e-13
-0.00054623261
-5.3148409e-05
2.7777091e-13
-0.00054753834
-0.00011110987
1.0115924e-12
-0.00054280613
-0.00017005346
1.7671123e-12
-0.00053140718
-0.00022850524
2.5680921e-12
-0.00051281973
-0.00028467427
3.3543687e-12
-0.00048670944
-0.00033646313
3.9881936e-12
-0.00045302499
-0.00038151583
4.3447832e-12
-0.00041210134
-0.000417317
4.3968324e-12
-0.00036475652
-0.00044135445
4.208032e-12
-0.00031236136
-0.00045134945
3.9007088e-12
-0.00025685621
-0.00044554508
3.6293233e-12
-0.00020069012
-0.00042302099
3.1464343e-12
-0.00014666837
-0.00038397908
1.6718078e-12
-9.7715513e-05
-0.00032992835
2.337819e-12
-5.6589203e-05
-0.0002636996
1.2460799e-11
-2.5604798e-05
-0.00018924139
4.3938314e-12