/*--------------------------------*- C++ -*----------------------------------*\
  =========                 |
  \\      /  F ield         | OpenFOAM: The Open Source CFD Toolbox
   \\    /   O peration     | Website:  https://openfoam.org
    \\  /    A nd           | Version:  7
     \\/     M anipulation  |
\*---------------------------------------------------------------------------*/
FoamFile
{
    version     2.0;
    format      ascii;
    class       surfaceScalarField;
    location    "20";
    object      phi_0;
}
// * * * * * * * * * * * * * * * * * * * * * * * * * * * * * * * * * * * * * //

dimensions      [0 3 -1 0 0 0 0];

internalField   nonuniform List<scalar> 
45600
(
2.7501496e-07
-2.823619e-07
-8.2560399e-11
4.0323303e-07
-1.281924e-07
-2.6026865e-11
1.324895e-07
2.707503e-07
-7.2771727e-12
-5.623453e-07
6.9483623e-07
-1.9358329e-12
-1.6393037e-06
1.0769546e-06
3.2529986e-12
-3.0275601e-06
1.388249e-06
6.7702477e-12
-4.6523388e-06
1.624769e-06
9.0799627e-12
-6.4448997e-06
1.7925497e-06
1.0711871e-11
-8.3451497e-06
1.9002375e-06
1.1868625e-11
-1.0301089e-05
1.9559264e-06
1.2638243e-11
-1.2266968e-05
1.9658648e-06
1.3079204e-11
-1.4201067e-05
1.9340856e-06
1.3227335e-11
-1.6063648e-05
1.8625664e-06
1.3094293e-11
-1.7815364e-05
1.7517024e-06
1.267309e-11
-1.9416325e-05
1.6009487e-06
1.1950691e-11
-2.0825874e-05
1.4095362e-06
1.0921178e-11
-2.2003078e-05
1.1771937e-06
9.5884492e-12
-2.2907908e-05
9.0482099e-07
7.9555667e-12
-2.3502989e-05
5.9507443e-07
6.0087357e-12
-2.3755821e-05
2.5282678e-07
3.7444839e-12
-2.3641278e-05
-1.1454701e-07
1.204257e-12
-2.3144183e-05
-4.970957e-07
-1.5002803e-12
-2.2261803e-05
-8.823773e-07
-4.2171637e-12
-2.1005914e-05
-1.2558823e-06
-6.8213629e-12
-1.9404239e-05
-1.6016657e-06
-9.2798664e-12
-1.750102e-05
-1.9032091e-06
-1.1598736e-11
-1.5356531e-05
-2.1444795e-06
-1.367025e-11
-1.3045419e-05
-2.311102e-06
-1.5178263e-11
-1.0653863e-05
-2.3915411e-06
-1.574891e-11
-8.2756684e-06
-2.3781753e-06
-1.528751e-11
-6.0074962e-06
-2.268154e-06
-1.4150727e-11
-3.943524e-06
-2.0639623e-06
-1.2824764e-11
-2.1698293e-06
-1.7736944e-06
-1.1294958e-11
-7.5862247e-07
-1.4112074e-06
-8.8473841e-12
2.3811062e-07
-9.9672373e-07
-4.9729739e-12
7.9645684e-07
-5.5832842e-07
-7.1549363e-13
9.292197e-07
-1.3275575e-07
3.0251647e-12
7.0555304e-07
2.2364437e-07
5.4342966e-12
2.9045268e-07
4.1505444e-07
6.9903716e-12
2.9042778e-07
-8.1669918e-13
1.3280407e-07
-4.1514289e-07
-2.3433463e-11
-3.0176763e-07
3.0639301e-07
-1.4859526e-11
-1.6154348e-06
1.5844293e-06
-1.2905296e-11
-3.874652e-06
2.954066e-06
-1.3580925e-11
-7.0071592e-06
4.2094756e-06
-1.4675968e-11
-1.0879409e-05
5.2605139e-06
-1.6168165e-11
-1.5334636e-05
6.0800129e-06
-1.7567507e-11
-2.0215269e-05
6.6731996e-06
-1.8571147e-11
-2.5373109e-05
7.0580956e-06
-1.9125373e-11
-3.0672097e-05
7.2549323e-06
-1.924211e-11
-3.5987139e-05
7.2809241e-06
-1.8943673e-11
-4.1201206e-05
7.1481695e-06
-1.8248682e-11
-4.6202139e-05
6.8635151e-06
-1.7168817e-11
-5.0880073e-05
6.4296505e-06
-1.5715383e-11
-5.5126033e-05
5.8469203e-06
-1.3905197e-11
-5.8831974e-05
5.1154875e-06
-1.1754402e-11
-6.1892346e-05
4.2375716e-06
-9.2664109e-12
-6.4207076e-05
3.2195553e-06
-6.4306989e-12
-6.5685792e-05
2.0737907e-06
-3.2674625e-12
-6.6252912e-05
8.1994462e-07
1.3768451e-13
-6.5853482e-05
-5.1398221e-07
3.6423769e-12
-6.4458408e-05
-1.8921797e-06
7.1544686e-12
-6.2070222e-05
-3.2705792e-06
1.05632e-11
-5.8727017e-05
-4.5991053e-06
1.3875252e-11
-5.4505222e-05
-5.8234808e-06
1.705118e-11
-4.9520293e-05
-6.8881571e-06
1.9862677e-11
-4.3925042e-05
-7.7397514e-06
2.1922953e-11
-3.7905358e-05
-8.3308119e-06
2.2962905e-11
-3.1673311e-05
-8.6236208e-06
2.3119856e-11
-2.5457815e-05
-8.5937047e-06
2.2853172e-11
-1.9493246e-05
-8.2327456e-06
2.2403825e-11
-1.4006537e-05
-7.5506818e-06
2.1323205e-11
-9.2032466e-06
-6.576994e-06
1.8793235e-11
-5.252959e-06
-5.3615179e-06
1.4712574e-11
-2.2741004e-06
-3.9756182e-06
1.0361161e-11
-3.1741617e-07
-2.5150382e-06
7.3452745e-12
6.5693102e-07
-1.1070905e-06
5.5290384e-12
8.0359725e-07
7.7024694e-08
5.5653582e-12
4.1783792e-07
8.0086357e-07
5.8664995e-12
7.0824855e-07
-4.146424e-12
-2.7361384e-07
-1.4151658e-07
-1.2980903e-11
-1.6274875e-06
1.6602733e-06
-7.7699877e-12
-4.2893138e-06
4.2462636e-06
-9.0445392e-12
-8.2744268e-06
6.9391856e-06
-7.5728391e-12
-1.3473949e-05
9.4090021e-06
-5.5466018e-12
-1.9707985e-05
1.1494554e-05
-4.4300867e-12
-2.6764709e-05
1.313674e-05
-3.7088161e-12
-3.4425242e-05
1.4333735e-05
-3.110337e-12
-4.2476907e-05
1.5109761e-05
-2.6046324e-12
-5.0718369e-05
1.5496395e-05
-2.1558642e-12
-5.8959857e-05
1.5522413e-05
-1.7322719e-12
-6.7020908e-05
1.520922e-05
-1.3166451e-12
-7.4727424e-05
1.4570031e-05
-8.95311e-13
-8.1909315e-05
1.361154e-05
-4.5754945e-13
-8.8399483e-05
1.2337087e-05
-8.3825547e-15
-9.4034596e-05
1.0750598e-05
4.2694795e-13
-9.8657752e-05
8.8607254e-06
8.1897653e-13
-0.00010212295
6.6847467e-06
1.1687291e-12
-0.00010430104
4.2518776e-06
1.506192e-12
-0.00010508684
1.6057453e-06
1.8608278e-12
-0.00010440658
-1.1942525e-06
2.2147401e-12
-0.00010222556
-4.0732045e-06
2.4694452e-12
-9.8554846e-05
-6.9412942e-06
2.5312856e-12
-9.3456614e-05
-9.6973435e-06
2.4426128e-12
-8.7047338e-05
-1.2232764e-05
2.3941501e-12
-7.9498314e-05
-1.4437187e-05
2.5595359e-12
-7.1032991e-05
-1.6205077e-05
2.8592903e-12
-6.1920834e-05
-1.7442969e-05
2.9439481e-12
-5.2467648e-05
-1.8076809e-05
2.5448246e-12
-4.3002555e-05
-1.8058808e-05
1.907096e-12
-3.3862045e-05
-1.7373269e-05
1.7382137e-12
-2.537175e-05
-1.6040983e-05
2.475464e-12
-1.7826642e-05
-1.4122096e-05
3.5620944e-12
-1.147033e-05
-1.1717819e-05
3.7845961e-12
-6.4738944e-06
-8.9720577e-06
2.6793722e-12
-2.9141364e-06
-6.0748237e-06
1.3686132e-12
-7.5134301e-07
-3.2699192e-06
1.472257e-12
1.9426722e-07
-8.6860158e-07
3.9955507e-12
2.6548171e-07
7.2967274e-07
7.1864559e-12
9.7372256e-07
1.1824837e-12
-7.4583996e-07
6.0433595e-07
-1.3139752e-11
-3.1795509e-06
4.093985e-06
-1.7264212e-12
-7.3458567e-06
8.4125756e-06
-7.1581024e-12
-1.3162564e-05
1.2755899e-05
-6.4860974e-12
-2.0455009e-05
1.670145e-05
-3.8363912e-12
-2.899145e-05
2.0030995e-05
-2.4713574e-12
-3.8512268e-05
2.2657559e-05
-1.5672769e-12
-4.8750612e-05
2.4572078e-05
-7.6025141e-13
-5.9444444e-05
2.5803592e-05
-9.4471006e-14
-7.0341816e-05
2.6393765e-05
4.477155e-13
-8.1201637e-05
2.6382232e-05
9.0201904e-13
-9.1792035e-05
2.5799615e-05
1.2825366e-12
-0.00010188804
2.4666033e-05
1.5975426e-12
-0.00011126987
2.299337e-05
1.8615043e-12
-0.00011972269
2.0789902e-05
2.0874183e-12
-0.00012703825
1.806615e-05
2.2682223e-12
-0.0001330186
1.4841071e-05
2.3678521e-12
-0.00013748173
1.1147876e-05
2.3475842e-12
-0.00014026879
7.0389313e-06
2.2049018e-12
-0.00014125238
2.5893263e-06
2.0014773e-12
-0.00014034523
-2.1014018e-06
1.8232002e-12
-0.00013750906
-6.9093771e-06
1.6368615e-12
-0.000132762
-1.1688359e-05
1.3386327e-12
-0.00012618465
-1.6274693e-05
8.1705055e-13
-0.00011792366
-2.0493761e-05
1.2916867e-13
-0.00010819216
-2.416869e-05
-4.4329778e-13
-9.7266632e-05
-2.713061e-05
-6.1030471e-13
-8.5479691e-05
-2.922991e-05
-4.1737189e-13
-7.3208738e-05
-3.0347756e-05
-3.1380698e-13
-6.0860544e-05
-3.0407e-05
-7.0130003e-13
-4.8852181e-05
-2.9381638e-05
-1.322972e-12
-3.7589033e-05
-2.7304144e-05
-1.2800769e-12
-2.7440779e-05
-2.4270356e-05
3.1718482e-14
-1.871641e-05
-2.0442179e-05
1.9562617e-12
-1.1639349e-05
-1.6049101e-05
2.9654529e-12
-6.3235706e-06
-1.1390597e-05
2.4369046e-12
-2.7515912e-06
-6.8419177e-06
1.7617278e-12
-7.5721125e-07
-2.8630088e-06
2.7423958e-12
-9.5436955e-09
-1.7990629e-08
4.8547109e-12
9.6417782e-07
4.455195e-12
-1.2279274e-06
1.8322773e-06
-1.4593683e-11
-4.7879292e-06
7.6539813e-06
4.3159264e-12
-1.0521116e-05
1.4145767e-05
-6.2425824e-12
-1.8213563e-05
2.0448353e-05
-7.333145e-12
-2.7602742e-05
2.6090632e-05
-4.9384275e-12
-3.8394609e-05
3.0822866e-05
-4.1931237e-12
-5.0280825e-05
3.4543778e-05
-3.8374178e-12
-6.295198e-05
3.7243235e-05
-3.3612646e-12
-7.6105644e-05
3.8957258e-05
-2.8953486e-12
-8.9449788e-05
3.9737911e-05
-2.4619365e-12
-0.00010270291
3.9635353e-05
-2.0323144e-12
-0.00011559242
3.8689123e-05
-1.6020305e-12
-0.00012785272
3.6926335e-05
-1.1795737e-12
-0.00013922412
3.4364766e-05
-7.6497578e-13
-0.00014945327
3.1019058e-05
-3.4200838e-13
-0.00015829569
2.690856e-05
1.0846193e-13
-0.00016552022
2.2065604e-05
5.7894569e-13
-0.00017091559
1.6543247e-05
1.0212424e-12
-0.0001742984
1.0421739e-05
1.3742581e-12
-0.00017552223
3.8131513e-06
1.6294555e-12
-0.00017448718
-3.1364637e-06
1.8634386e-12
-0.0001711492
-1.0247356e-05
2.1628834e-12
-0.00016552848
-1.7309084e-05
2.5225861e-12
-0.00015771603
-2.4087152e-05
2.7777192e-12
-0.00014787783
-3.0331959e-05
2.7323729e-12
-0.0001362558
-3.579073e-05
2.4072156e-12
-0.00012316476
-4.0221651e-05
2.1373543e-12
-0.00010898514
-4.3409538e-05
2.3038841e-12
-9.4150845e-05
-4.5182057e-05
2.8659361e-12
-7.9132489e-05
-4.5425353e-05
3.2354437e-12
-6.4416248e-05
-4.4097878e-05
2.8427725e-12
-5.0479046e-05
-4.1241355e-05
1.9345751e-12
-3.7761247e-05
-3.6988173e-05
1.5873379e-12
-2.6638278e-05
-3.1565162e-05
2.5299276e-12
-1.7392881e-05
-2.5294494e-05
3.9949494e-12
-1.0189791e-05
-1.8593673e-05
4.5153617e-12
-5.0547105e-06
-1.1976997e-05
4.0023728e-12
-1.8598598e-06
-6.0578774e-06
2.6310965e-12
-3.2225129e-07
-1.5556078e-06
8.979168e-15
6.4192624e-07
6.1645476e-12
-1.6930978e-06
3.5253915e-06
-1.705897e-11
-6.3711317e-06
1.2332004e-05
9.7617902e-12
-1.367084e-05
2.1445479e-05
-5.2541431e-12
-2.3233002e-05
3.0010521e-05
-7.4178651e-12
-3.469365e-05
3.7551285e-05
-4.6927602e-12
-4.7687625e-05
4.3816843e-05
-4.1191946e-12
-6.1854673e-05
4.8710829e-05
-3.9859205e-12
-7.6844532e-05
5.2233097e-05
-3.615231e-12
-9.2319639e-05
5.4432367e-05
-3.2103485e-12
-0.00010795535
5.5373623e-05
-2.8228022e-12
-0.00012343837
5.511838e-05
-2.4207987e-12
-0.00013846447
5.3715216e-05
-1.9943035e-12
-0.00015273642
5.1198285e-05
-1.5546355e-12
-0.00016596321
4.7591562e-05
-1.1197116e-12
-0.00017786097
4.2916818e-05
-6.9324435e-13
-0.00018815594
3.7203521e-05
-2.5394865e-13
-0.00019658953
3.0499192e-05
2.2757336e-13
-0.00020292533
2.2879048e-05
7.469854e-13
-0.0002069576
1.445401e-05
1.2402106e-12
-0.00020852084
5.3763861e-06
1.6209052e-12
-0.00020749986
-4.1574472e-06
1.8679568e-12
-0.00020383973
-1.3907494e-05
2.081125e-12
-0.00019755493
-2.3593891e-05
2.3969643e-12
-0.00018873693
-3.2905156e-05
2.8281015e-12
-0.00017755943
-4.1509462e-05
3.1686172e-12
-0.00016428044
-4.9069725e-05
3.1466704e-12
-0.00014924037
-5.5261723e-05
2.751887e-12
-0.00013285547
-5.979445e-05
2.3896761e-12
-0.00011560595
-6.2431584e-05
2.5603518e-12
-9.8018727e-05
-6.301258e-05
3.2573261e-12
-8.0644838e-05
-6.1471762e-05
3.7815633e-12
-6.4032375e-05
-5.7853813e-05
3.4289137e-12
-4.8696161e-05
-5.2324396e-05
2.4534077e-12
-3.5086052e-05
-4.5175289e-05
2.0062079e-12
-2.3556167e-05
-3.6824394e-05
2.7459972e-12
-1.43376e-05
-2.7812237e-05
4.1035084e-12
-7.5173691e-06
-1.8797219e-05
5.2745693e-12
-3.0266969e-06
-1.0548554e-05
3.5869196e-12
-6.4249997e-07
-3.9398122e-06
-2.4544251e-12
-5.8088614e-10
8.2213273e-12
-2.1328379e-06
5.6582486e-06
-1.9811289e-11
-7.8907044e-06
1.8089855e-05
1.4581207e-11
-1.6716612e-05
3.0271391e-05
-4.4868231e-12
-2.8104405e-05
4.139832e-05
-7.4539559e-12
-4.1583114e-05
5.1029997e-05
-4.234728e-12
-5.6711451e-05
5.8945183e-05
-3.7013697e-12
-7.3074837e-05
6.5074217e-05
-3.7010043e-12
-9.0282862e-05
6.9441125e-05
-3.3801713e-12
-0.00010796631
7.2115812e-05
-3.0023249e-12
-0.00012577347
7.318079e-05
-2.6454743e-12
-0.00014336619
7.2711103e-05
-2.2784668e-12
-0.00016041616
7.0765188e-05
-1.8832292e-12
-0.00017660229
6.7384412e-05
-1.4587051e-12
-0.00019160967
6.2598944e-05
-1.0224254e-12
-0.00020513057
5.6437714e-05
-6.0102887e-13
-0.00021686752
4.8940469e-05
-2.0407636e-13
-0.00022653856
4.017023e-05
1.9674284e-13
-0.00023388433
3.0224818e-05
6.46556e-13
-0.00023867674
1.9246415e-05
1.1474775e-12
-0.00024072875
7.428398e-06
1.6186232e-12
-0.00023990492
-4.9812877e-06
1.9411069e-12
-0.0002361319
-1.7680509e-05
2.0867391e-12
-0.0002294088
-3.0317004e-05
2.1716583e-12
-0.00021981603
-4.2497932e-05
2.3927674e-12
-0.00020752242
-5.3803075e-05
2.7993967e-12
-0.00019278929
-6.3802853e-05
3.1534096e-12
-0.00017597064
-7.2080375e-05
3.1030828e-12
-0.00015750835
-7.8256741e-05
2.5964464e-12
-0.00013792163
-8.2018317e-05
2.0994674e-12
-0.00011779001
-8.3144214e-05
2.2246189e-12
-9.7729977e-05
-8.1531799e-05
3.0006463e-12
-7.8365827e-05
-7.7217958e-05
3.6529901e-12
-6.0296167e-05
-7.0394049e-05
3.415988e-12
-4.4058346e-05
-6.1413117e-05
2.5294966e-12
-3.009368e-05
-5.0789076e-05
2.0522036e-12
-1.8716837e-05
-3.918909e-05
2.95776e-12
-1.0092842e-05
-2.7421213e-05
5.3456563e-12
-4.225233e-06
-1.641616e-05
4.1589923e-12
-9.5847401e-07
-7.2065694e-06
-4.7364852e-12
-9.5906752e-07
1.0171581e-11
-2.5449291e-06
8.2031997e-06
-2.2581761e-11
-9.3283879e-06
2.4873293e-05
1.8878341e-11
-1.9614403e-05
4.0557408e-05
-3.98611e-12
-3.2755253e-05
5.4539178e-05
-7.6973032e-12
-4.8173555e-05
6.6448302e-05
-4.0154514e-12
-6.5350952e-05
7.6122583e-05
-3.5333164e-12
-8.381815e-05
8.3541417e-05
-3.6780163e-12
-0.00010314576
8.8768737e-05
-3.425729e-12
-0.00012293589
9.1905938e-05
-3.0877502e-12
-0.00014281437
9.3059272e-05
-2.763649e-12
-0.00016242394
9.2320675e-05
-2.4298709e-12
-0.00018141871
8.975996e-05
-2.0715701e-12
-0.00019946039
8.5426091e-05
-1.6752636e-12
-0.00021621658
7.9355134e-05
-1.2376295e-12
-0.00023136133
7.1582466e-05
-7.8233317e-13
-0.00024457795
6.2157088e-05
-3.4929143e-13
-0.00025556394
5.115622e-05
4.4513099e-14
-0.00026403787
3.869874e-05
4.3650462e-13
-0.00026974784
2.4956384e-05
8.9169089e-13
-0.00027248136
1.0161915e-05
1.420946e-12
-0.00027207617
-5.3864785e-06
1.923617e-12
-0.00026843156
-2.1325121e-05
2.2587521e-12
-0.00026152005
-3.722852e-05
2.3540893e-12
-0.00025139826
-5.2619728e-05
2.3542852e-12
-0.00023821651
-6.6984832e-05
2.5178686e-12
-0.00022222591
-7.9793462e-05
2.9385275e-12
-0.0002037817
-9.0524582e-05
3.3544553e-12
-0.00018334152
-9.8696919e-05
3.3367509e-12
-0.00016145716
-0.00010390268
2.7856389e-12
-0.00013875887
-0.00010584251
2.2060075e-12
-0.00011593177
-0.00010435891
2.2840391e-12
-9.3684741e-05
-9.9464993e-05
3.0649532e-12
-7.2713322e-05
-9.1365464e-05
3.7490344e-12
-5.3659236e-05
-8.0467197e-05
3.5363491e-12
-3.7070084e-05
-6.7378234e-05
2.6094771e-12
-2.3363352e-05
-5.2895836e-05
2.5756329e-12
-1.2799011e-05
-3.7985562e-05
5.0924315e-12
-5.4647559e-06
-2.3750414e-05
3.96303e-12
-1.2772281e-06
-1.1394086e-05
-7.3592021e-12
-2.2363106e-06
1.2834356e-11
-2.9283337e-06
1.1131558e-05
-2.5282276e-11
-1.0673137e-05
3.2618073e-05
2.2728946e-11
-2.2335066e-05
5.2219339e-05
-3.6557226e-12
-3.713415e-05
6.9338269e-05
-8.0395477e-12
-5.4391464e-05
8.3705619e-05
-3.9083564e-12
-7.3514091e-05
9.5245212e-05
-3.4600296e-12
-9.3979831e-05
0.00010400716
-3.7338973e-12
-0.00011532254
0.00011011145
-3.5485012e-12
-0.00013711882
0.00011370222
-3.2534045e-12
-0.00015897626
0.00011491672
-2.9588794e-12
-0.00018052364
0.00011386806
-2.6462915e-12
-0.0002014032
0.00011063952
-2.3152554e-12
-0.00022126536
0.00010528825
-1.957234e-12
-0.00023976588
9.7855651e-05
-1.5497286e-12
-0.00025656554
8.8382131e-05
-1.0855419e-12
-0.00027133221
7.6923758e-05
-5.958306e-13
-0.00028374505
6.3569052e-05
-1.369974e-13
-0.00029350073
4.8454418e-05
2.6485926e-13
-0.00030032148
3.1777135e-05
6.5626041e-13
-0.00030396471
1.3805146e-05
1.1207596e-12
-0.00030423415
-5.1170415e-06
1.6785681e-12
-0.00030099191
-2.4567372e-05
2.2468291e-12
-0.00029417192
-4.4048509e-05
2.6078259e-12
-0.00028379323
-6.299842e-05
2.6700521e-12
-0.00026997286
-8.0805205e-05
2.5924584e-12
-0.00025293691
-9.6829428e-05
2.6893089e-12
-0.00023302824
-0.00011043325
3.1041688e-12
-0.00021070913
-0.00012101604
3.5652032e-12
-0.0001865567
-0.00012805511
3.5858713e-12
-0.00016124977
-0.00013114945
3.0304736e-12
-0.00013554581
-0.00013006288
2.4215352e-12
-0.00011024816
-0.00012476265
2.4686858e-12
-8.6164853e-05
-0.00011544878
3.2041162e-12
-6.4061894e-05
-0.00010257015
3.760586e-12
-4.4615419e-05
-8.6824707e-05
3.3172361e-12
-2.836776e-05
-6.9143501e-05
2.9838045e-12
-1.5692745e-05
-5.0660589e-05
5.3176342e-12
-6.775053e-06
-3.2668111e-05
3.5539738e-12
-1.6069945e-06
-1.6562131e-05
-1.0452285e-11
-3.8433204e-06
1.5516861e-11
-3.2815326e-06
1.4413118e-05
-2.7856912e-11
-1.1915273e-05
4.1251786e-05
2.6166477e-11
-2.4854281e-05
6.515835e-05
-3.4501574e-12
-4.1197904e-05
8.5681899e-05
-8.4364759e-12
-6.0173406e-05
0.00010268112
-3.8740762e-12
-8.1118388e-05
0.0001161902
-3.4361766e-12
-0.00010346145
0.00012635022
-3.8120428e-12
-0.00012670302
0.00013335303
-3.6815283e-12
-0.0001503978
0.00013739699
-3.430045e-12
-0.00017413933
0.00013865825
-3.169331e-12
-0.00019754723
0.00013727596
-2.872991e-12
-0.00022025714
0.00013334943
-2.5513812e-12
-0.00024191359
0.0001269447
-2.217173e-12
-0.00026216573
0.00011810779
-1.8547273e-12
-0.00028066568
0.00010688208
-1.4310551e-12
-0.00029706938
9.3327463e-05
-9.3349936e-13
-0.00031103973
7.7539402e-05
-4.013923e-13
-0.00032225174
5.9666428e-05
9.1613821e-14
-0.00033039976
3.9925148e-05
5.0643804e-13
-0.00033520661
1.8611999e-05
8.8411268e-13
-0.00033643498
-3.8886741e-06
1.3199997e-12
-0.00033389992
-2.7102433e-05
1.9430789e-12
-0.00032748462
-5.0463819e-05
2.5636883e-12
-0.0003171561
-7.3326937e-05
2.9565734e-12
-0.00030298219
-9.4979115e-05
2.9978426e-12
-0.00028514748
-0.00011466414
2.8470036e-12
-0.00026396668
-0.00013161406
2.8641876e-12
-0.00023989302
-0.0001450897
3.2378868e-12
-0.00021351918
-0.00015442895
3.6986109e-12
-0.00018556809
-0.00015910054
3.7346857e-12
-0.00015687184
-0.00015875913
3.2023661e-12
-0.00012833782
-0.00015329668
2.6327699e-12
-0.00010090311
-0.00014288349
2.7014179e-12
-7.5480304e-05
-0.00012799297
3.2717451e-12
-5.2899649e-05
-0.00010940536
3.367898e-12
-3.3854172e-05
-8.8188978e-05
3.4462383e-12
-1.8854271e-05
-6.5660498e-05
6.0708748e-12
-8.1980471e-06
-4.3324342e-05
3.423061e-12
-1.961113e-06
-2.2799051e-05
-1.386061e-11
-5.8044502e-06
1.8173041e-11
-3.6021214e-06
1.8015269e-05
-3.0260534e-11
-1.3044227e-05
5.0693861e-05
2.9200291e-11
-2.7147966e-05
7.9262091e-05
-3.3472703e-12
-4.4905013e-05
0.00010343895
-8.8737841e-12
-6.5458409e-05
0.00012323452
-3.9152571e-12
-8.808313e-05
0.00013881492
-3.4785514e-12
-0.00011216366
0.00015043076
-3.9351853e-12
-0.00013717124
0.0001583606
-3.8453614e-12
-0.00016264268
0.00016286843
-3.6342818e-12
-0.00018816174
0.00016417732
-3.4165791e-12
-0.00021334353
0.00016245775
-3.1481438e-12
-0.00023782207
0.00015782797
-2.8320931e-12
-0.00026124118
0.00015036382
-2.4963426e-12
-0.00028324845
0.00014011505
-2.1540608e-12
-0.00030349189
0.00012712552
-1.7834281e-12
-0.00032161929
0.00011145487
-1.3399971e-12
-0.00033727976
9.3199873e-05
-8.0308173e-13
-0.00035012751
7.251418e-05
-2.1859098e-13
-0.00035982786
4.9625497e-05
3.1955323e-13
-0.00036606557
2.4849702e-05
7.3704529e-13
-0.0003685563
-1.3979445e-06
1.0499816e-12
-0.00036705899
-2.8599744e-05
1.5758166e-12
-0.00036139445
-5.6128363e-05
2.2121843e-12
-0.00035146321
-8.3258182e-05
2.8699369e-12
-0.00033726711
-0.00010917522
3.298328e-12
-0.00031893094
-0.00013300031
3.3318532e-12
-0.00029672261
-0.0001538224
3.1247105e-12
-0.00027106904
-0.00017074328
3.0638938e-12
-0.00024256436
-0.00018293364
3.3656274e-12
-0.000211967
-0.0001896979
3.7712465e-12
-0.00018018232
-0.00019054381
3.7852297e-12
-0.00014822902
-0.00018524998
3.3054769e-12
-0.0001171894
-0.00017392312
2.861181e-12
-8.8146453e-05
-0.00015703592
2.8795979e-12
-6.211364e-05
-0.00013543817
2.9224412e-12
-3.9965378e-05
-0.00011033724
3.4662633e-12
-2.2376993e-05
-8.3248888e-05
6.9143296e-12
-9.7824237e-06
-5.5918915e-05
3.5800789e-12
-2.3546337e-06
-3.0226825e-05
-1.7456092e-11
-8.1591042e-06
2.1086659e-11
-3.8868594e-06
2.190216e-05
-3.2452224e-11
-1.4047984e-05
6.0854952e-05
3.1824322e-11
-2.9190672e-05
9.4404782e-05
-3.3286313e-12
-4.821302e-05
0.00012246131
-9.3330837e-12
-7.0184628e-05
0.00014520613
-4.0234368e-12
-9.4325814e-05
0.00016295611
-3.5877907e-12
-0.00011998291
0.00017608785
-4.1118705e-12
-0.00014660271
0.00018498041
-4.0493285e-12
-0.00017370848
0.0001899742
-3.866784e-12
-0.00020087846
0.00019134731
-3.6918827e-12
-0.00022772776
0.00018930705
-3.4678335e-12
-0.00025389364
0.00018399385
-3.1770758e-12
-0.00027902427
0.00017549446
-2.8376502e-12
-0.00030277073
0.00016386152
-2.4816474e-12
-0.00032478183
0.00014913662
-2.1256989e-12
-0.00034470147
0.00013137451
-1.7431407e-12
-0.00036216837
0.00011066678
-1.2765074e-12
-0.00037681806
8.7163864e-05
-6.9630586e-13
-0.00038828727
6.1094707e-05
-5.3921946e-14
-0.00039622117
3.2783606e-05
5.4946567e-13
-0.00040028345
2.6643296e-06
1.057077e-12
-0.00040017122
-2.8711968e-05
1.4021366e-12
-0.0003956318
-6.0667796e-05
1.8527499e-12
-0.00038648561
-9.2404374e-05
2.4829345e-12
-0.00037265149
-0.00012300934
3.1673493e-12
-0.00035417455
-0.00015147726
3.6209146e-12
-0.00033125418
-0.00017674277
3.6533056e-12
-0.0003042691
-0.00019772836
3.4093328e-12
-0.00027379521
-0.00021340753
3.2787415e-12
-0.00024061153
-0.00022288159
3.4806848e-12
-0.00020568944
-0.0002254659
3.7758969e-12
-0.00017016166
-0.00022077777
3.7476032e-12
-0.00013526944
-0.00020881534
3.3799783e-12
-0.00010229051
-0.00019001486
2.9862186e-12
-7.245395e-05
-0.00016527474
2.5555035e-12
-4.6852014e-05
-0.00013593918
3.1764377e-12
-2.6360644e-05
-0.00010374026
7.5830026e-12
-1.1580125e-05
-7.0699436e-05
3.7733575e-12
-2.8032382e-06
-3.9003692e-05
-2.1366337e-11
-1.0962367e-05
2.4498118e-11
-4.1319222e-06
2.6034116e-05
-3.4390719e-11
-1.491341e-05
7.1636405e-05
3.4022513e-11
-3.0955729e-05
0.0001104471
-3.3785978e-12
-5.1078381e-05
0.00014258397
-9.7934299e-12
-7.4289023e-05
0.00016841678
-4.18237e-12
-9.9761839e-05
0.00018842893
-3.7514475e-12
-0.00012681134
0.00020313736
-4.3373667e-12
-0.0001548649
0.00021303398
-4.2966146e-12
-0.00018343651
0.00021854581
-4.1292661e-12
-0.00021210309
0.00022001389
-3.9825025e-12
-0.00024048412
0.00021768809
-3.8034501e-12
-0.00026822478
0.00021173451
-3.5615297e-12
-0.00029498263
0.00020225231
-3.2479071e-12
-0.00032041752
0.00018929641
-2.8799115e-12
-0.00034418434
0.00017290344
-2.4966894e-12
-0.00036592825
0.00015311842
-2.1207687e-12
-0.00038528225
0.00013002078
-1.7218408e-12
-0.00040186702
0.00010374863
-1.2308286e-12
-0.00041529336
7.452105e-05
-6.0728493e-13
-0.00042516772
4.2657964e-05
1.137049e-13
-0.00043110105
8.5976598e-06
8.2809664e-13
-0.00043272354
-2.7089473e-05
1.2898924e-12
-0.00042970183
-6.3689509e-05
1.6826431e-12
-0.0004217643
-0.00010034191
2.1441164e-12
-0.0004087304
-0.00013604325
2.7717538e-12
-0.00039054472
-0.00016966294
3.4569606e-12
-0.00036731359
-0.0001999739
3.9112752e-12
-0.00033934072
-0.00022570123
3.9362456e-12
-0.00030715721
-0.00024559105
3.666412e-12
-0.00027153966
-0.00025849915
3.4691394e-12
-0.00023350986
-0.0002634957
3.5439189e-12
-0.00019430988
-0.00025997776
3.7068567e-12
-0.00015534883
-0.00024777638
3.6780718e-12
-0.00011812216
-0.00022724153
3.3147076e-12
-8.4109619e-05
-0.00019928729
2.5027593e-12
-5.4664041e-05
-0.00016538476
2.941957e-12
-3.0906523e-05
-0.00012749779
8.1854218e-12
-1.3644333e-05
-8.7961628e-05
3.8521491e-12
-3.3229015e-06
-4.9325096e-05
-2.5861672e-11
-1.4285297e-05
2.8519882e-11
-4.3332619e-06
3.0367413e-05
-3.603453e-11
-1.5627116e-05
8.2930222e-05
3.5774167e-11
-3.2416528e-05
0.00012723652
-3.4854645e-12
-5.3458066e-05
0.00016362552
-1.0238247e-11
-7.770926e-05
0.00019266798
-4.3787243e-12
-0.00010430679
0.00021502646
-3.954453e-12
-0.00013253966
0.00023137024
-4.598752e-12
-0.00016182065
0.00024231497
-4.5841012e-12
-0.0001916586
0.00024838376
-4.4291836e-12
-0.00022163302
0.00024998832
-4.2939409e-12
-0.00025137187
0.00024742694
-4.1400411e-12
-0.00028053275
0.0002408954
-3.946074e-12
-0.00030878762
0.00023050718
-3.6880544e-12
-0.00033581058
0.00021631937
-3.348567e-12
-0.00036126847
0.00019836134
-2.9461311e-12
-0.00038481384
0.0001766638
-2.5283827e-12
-0.00040608015
0.00015128708
-2.1248933e-12
-0.00042467918
0.00012234767
-1.7042696e-12
-0.00044020115
9.0043024e-05
-1.1854243e-12
-0.00045221796
5.4674771e-05
-5.0808913e-13
-0.00046029045
1.6670149e-05
2.8462025e-13
-0.00046398119
-2.3398735e-05
9.9899781e-13
-0.00046287239
-6.4798306e-05
1.5662301e-12
-0.0004565917
-0.0001066226
2.0082478e-12
-0.00044484486
-0.00014779009
2.4777764e-12
-0.00042745548
-0.00018705233
3.0892636e-12
-0.00040441024
-0.00022301913
3.7419883e-12
-0.0003759064
-0.00025420507
4.1592687e-12
-0.00034239622
-0.00027910123
4.1545708e-12
-0.0003046212
-0.00029627418
3.851897e-12
-0.00026362695
-0.00030448995
3.5767836e-12
-0.00022074973
-0.00030285498
3.5261301e-12
-0.00017756728
-0.00029095884
3.6145087e-12
-0.00013581166
-0.00026899715
3.4542715e-12
-9.7249517e-05
-0.00023784944
2.5476413e-12
-6.3543249e-05
-0.00019909103
2.8907389e-12
-3.6113778e-05
-0.00015492727
8.9620812e-12
-1.6028147e-05
-0.00010804726
3.8811008e-12
-3.929732e-06
-6.1423478e-05
-3.1146965e-11
-1.8215062e-05
3.3211218e-11
-4.4870397e-06
3.4854489e-05
-3.7345375e-11
-1.6176675e-05
9.4619818e-05
3.7060046e-11
-3.3548576e-05
0.00014460842
-3.6381045e-12
-5.531241e-05
0.00018538936
-1.0654305e-11
-8.0387305e-05
0.00021774287
-4.6049613e-12
-0.00010788077
0.00024251992
-4.1861901e-12
-0.00013706223
0.0002605517
-4.8799897e-12
-0.00016733427
0.00027258702
-4.8970797e-12
-0.00019820425
0.00027925375
-4.7638848e-12
-0.00022925778
0.00028104185
-4.6379225e-12
-0.00026013502
0.00027830418
-4.4878565e-12
-0.00029051027
0.00027127065
-4.3139862e-12
-0.00032007478
0.00026007169
-4.1059988e-12
-0.00034852257
0.00024476717
-3.8289778e-12
-0.00037553886
0.00022537764
-3.4589695e-12
-0.00040079075
0.00020191569
-3.0162663e-12
-0.00042391989
0.00017441623
-2.5561871e-12
-0.00044453741
0.00014296519
-2.1158046e-12
-0.00046222124
0.00010772685
-1.662483e-12
-0.00047651664
6.8970177e-05
-1.1041097e-12
-0.00048694097
2.709448e-05
-3.7740451e-13
-0.00049299389
-1.7345816e-05
4.5435705e-13
-0.00049417412
-6.3618075e-05
1.2534316e-12
-0.00049000462
-0.0001107921
1.8919837e-12
-0.00048006693
-0.00015772778
2.3812212e-12
-0.00046404533
-0.00020307393
2.862355e-12
-0.00044177999
-0.00024528448
3.4393424e-12
-0.00041332665
-0.00028265841
4.0176939e-12
-0.00037901762
-0.00031341026
4.3487959e-12
-0.00033951584
-0.00033577595
4.2737242e-12
-0.00029585095
-0.00034815485
3.9080684e-12
-0.00024942422
-0.00034928172
3.5623385e-12
-0.00020197041
-0.00033841266
3.4656422e-12
-0.00015546929
-0.00031549827
3.332256e-12
-0.000112009
-0.00028130973
2.4147227e-12
-7.3615772e-05
-0.00023748427
2.8673545e-12
-4.2076002e-05
-0.00018646705
9.993796e-12
-1.8783547e-05
-0.00013133972
3.9791778e-12
-4.6398939e-06
-7.5567093e-05
-3.7317311e-11
-2.2854993e-05
3.866609e-11
-4.5901136e-06
3.9444641e-05
-3.8293754e-11
-1.655209e-05
0.00010658176
3.7865701e-11
-3.4332125e-05
0.00016238846
-3.8242121e-12
-5.6608901e-05
0.00020766615
-1.1028516e-11
-8.2274346e-05
0.00024340832
-4.8568526e-12
-0.00011041445
0.00027066003
-4.4441781e-12
-0.00014028426
0.00029042152
-5.1723115e-12
-0.00017127995
0.00030358272
-5.2178081e-12
-0.00020291046
0.00031088426
-5.114923e-12
-0.00023477044
0.00031290184
-5.0102888e-12
-0.00026651559
0.00031004933
-4.8620417e-12
-0.00029784079
0.00030259586
-4.6808384e-12
-0.00032846136
0.00029069226
-4.4843046e-12
-0.00035809698
0.00027440279
-4.2558783e-12
-0.0003864581
0.00025373877
-3.9529178e-12
-0.00041323439
0.00022869198
-3.5464546e-12
-0.00043808498
0.00019926683
-3.0572824e-12
-0.00046063068
0.00016551089
-2.5464298e-12
-0.00048044839
0.00012754457
-2.0566785e-12
-0.00049706853
8.5590312e-05
-1.5555062e-12
-0.00050997632
4.0002273e-05
-9.5055701e-13
-0.00051861862
-8.7035079e-06
-1.7887734e-13
-0.00052241776
-5.9818942e-05
7.0845792e-13
-0.00052079428
-0.00011241558
1.5717899e-12
-0.00051320085
-0.00016532121
2.2757047e-12
-0.00049916854
-0.00021710624
2.8135054e-12
-0.00047836626
-0.00026608676
3.2980621e-12
-0.00045067189
-0.00031035278
3.8107796e-12
-0.00041625084
-0.00034783132
4.2632923e-12
-0.00037563352
-0.00037639328
4.4453503e-12
-0.0003297788
-0.00039400956
4.2395848e-12
-0.00028010629
-0.00039895423
3.8016978e-12
-0.00022847907
-0.00039003988
3.46968e-12
-0.00017712249
-0.00036685485
3.1445268e-12
-0.00012847494
-0.00032995728
2.0635211e-12
-8.4983753e-05
-0.00028097546
2.6993545e-12
-4.8877563e-05
-0.00022257325
1.1201236e-11
-2.1960327e-05
-0.00015825696
4.1718726e-12
-5.4695488e-06
-9.2057826e-05
-4.4445691e-11
-2.8324586e-05
4.5026214e-11
-4.6405698e-06
4.4085249e-05
-3.8863819e-11
-1.6747457e-05
0.0001186886
3.8183254e-11
-3.4755226e-05
0.00018039623
-4.0326974e-12
-5.7326695e-05
0.00023023763
-1.134769e-11
-8.3336734e-05
0.00026941837
-5.128722e-12
-0.00011185638
0.00029917968
-4.7303122e-12
-0.00014213059
0.00032069574
-5.4791648e-12
-0.00017355206
0.00033500419
-5.5408338e-12
-0.0002056337
0.0003429659
-5.4629433e-12
-0.00023798164
0.00034524979
-5.3877633e-12
-0.00027026989
0.00034233759
-5.2555032e-12
-0.0003022175
0.00033454347
-5.0646787e-12
-0.00033356833
0.0003220431
-4.8452464e-12
-0.00036407345
0.00030490792
-4.6143067e-12
-0.00039347565
0.00028314097
-4.3527444e-12
-0.00042149581
0.00025671215
-4.0130916e-12
-0.00044782095
0.00022559197
-3.5618599e-12
-0.00047209374
0.00018978369
-3.0189232e-12
-0.000493904
0.00014935483
-2.4480564e-12
-0.00051278255
0.00010446886
-1.8949405e-12
-0.00052819859
5.5418323e-05
-1.3306364e-12
-0.000539562
2.6598994e-06
-6.6471032e-13
-0.00054623256
-5.314838e-05
1.4612916e-13
-0.0005475383
-0.00011110984
1.0790187e-12
-0.00054280609
-0.00017005342
1.9919138e-12
-0.00053140714
-0.00022850519
2.7461597e-12
-0.00051281968
-0.00028467422
3.3146567e-12
-0.00048670939
-0.00033646308
3.7736465e-12
-0.00045302495
-0.00038151576
4.1737101e-12
-0.0004121013
-0.00041731693
4.4305064e-12
-0.00036475648
-0.00044135438
4.3833046e-12
-0.00031236133
-0.00045134939
4.0208247e-12
-0.00025685619
-0.00044554502
3.5925007e-12
-0.0002006901
-0.00042302094
3.0315868e-12
-0.00014666836
-0.00038397902
1.6094296e-12
-9.7715504e-05
-0.00032992831
2.3610484e-12
-5.6589197e-05
-0.00026369957
1.2506511e-11
-2.5604795e-05
-0.00018924137