/*--------------------------------*- C++ -*----------------------------------*\
  =========                 |
  \\      /  F ield         | OpenFOAM: The Open Source CFD Toolbox
   \\    /   O peration     | Website:  https://openfoam.org
    \\  /    A nd           | Version:  7
     \\/     M anipulation  |
\*---------------------------------------------------------------------------*/
FoamFile
{
    version     2.0;
    format      ascii;
    class       volVectorField;
    location    "20";
    object      U;
}
// * * * * * * * * * * * * * * * * * * * * * * * * * * * * * * * * * * * * * //

dimensions      [0 1 -1 0 0 0 0];

internalField   nonuniform List<vector> 
16000
(
(6.6020372e-05 -6.7349779e-05 -4.1976622e-07)
(0.00016271376 -5.6362155e-05 5.680262e-06)
(0.00014189598 4.6100153e-07 1.9179376e-05)
(-5.063461e-05 6.1888529e-05 3.6600933e-05)
(-0.000409975 0.00011562728 5.4708377e-05)
(-0.00090901063 0.00015773841 7.1535587e-05)
(-0.0015176734 0.00018849801 8.5746526e-05)
(-0.0022068216 0.0002096013 9.652607e-05)
(-0.0029505075 0.00022286827 0.00010341391)
(-0.0037263398 0.00022980215 0.00010616316)
(-0.0045148934 0.00023146793 0.00010464658)
(-0.005298824 0.00022849475 9.8801165e-05)
(-0.0060619725 0.00022113835 8.8602249e-05)
(-0.0067886136 0.00020937438 7.406039e-05)
(-0.007462938 0.00019300567 5.5234358e-05)
(-0.0080688148 0.00017177346 3.225441e-05)
(-0.0085898472 0.0001454657 5.3504711e-06)
(-0.0090097119 0.00011401738 -2.5119576e-05)
(-0.0093127547 7.7598611e-05 -5.8645895e-05)
(-0.0094847973 3.6686659e-05 -9.4550849e-05)
(-0.0095141003 -7.8849148e-06 -0.00013198478)
(-0.009392392 -5.4920406e-05 -0.00016993647)
(-0.0091159033 -0.00010283793 -0.00020725945)
(-0.0086863055 -0.00014974219 -0.000242716)
(-0.0081114251 -0.0001935032 -0.0002750366)
(-0.0074056637 -0.00023187549 -0.00030299267)
(-0.0065900266 -0.00026264853 -0.00032547781)
(-0.0056916993 -0.00028381444 -0.00034159173)
(-0.0047431447 -0.00029373684 -0.0003507197)
(-0.0037807403 -0.00029130257 -0.00035260021)
(-0.002843022 -0.00027603875 -0.00034737366)
(-0.0019686421 -0.00024818075 -0.00033560746)
(-0.0011941572 -0.00020869003 -0.0003182969)
(-0.00055169266 -0.00015925733 -0.00029684556)
(-6.6538411e-05 -0.00010240881 -0.00027302167)
(0.00024488724 -4.1761342e-05 -0.00024888325)
(0.00037890752 1.7843536e-05 -0.0002268141)
(0.00034975652 6.7072435e-05 -0.00020925192)
(0.00020617119 8.985972e-05 -0.00019886718)
(5.746196e-05 5.7412197e-05 -0.00018442253)
(5.7987797e-05 -0.00016704798 -6.650388e-06)
(4.0854837e-05 -3.9965941e-05 -3.9714439e-07)
(-0.00029499162 0.00024855623 1.1235734e-05)
(-0.0010110166 0.00056210498 2.5600896e-05)
(-0.0020991806 0.00084746655 4.0584873e-05)
(-0.0035139852 0.0010830804 5.4591945e-05)
(-0.0051945157 0.0012642526 6.6494868e-05)
(-0.0070763819 0.0013940128 7.5541368e-05)
(-0.0090978185 0.0014779013 8.1249657e-05)
(-0.011201886 0.0015214652 8.33201e-05)
(-0.013336525 0.0015291482 8.156941e-05)
(-0.015453579 0.0015039135 7.5887643e-05)
(-0.017507465 0.0014472974 6.6216469e-05)
(-0.01945395 0.001359722 5.2545125e-05)
(-0.021249316 0.0012409515 3.4919721e-05)
(-0.022850071 0.0010906152 1.3461443e-05)
(-0.02421327 0.00090874033 -1.1610687e-05)
(-0.025297438 0.00069625114 -3.9956657e-05)
(-0.026064039 0.00045540135 -7.1095834e-05)
(-0.026479375 0.00019010654 -0.00010439412)
(-0.026516805 -9.3851938e-05 -0.00013906084)
(-0.026159009 -0.00038874865 -0.00017416457)
(-0.025400239 -0.000685051 -0.00020864938)
(-0.024248305 -0.00097170821 -0.00024138264)
(-0.022725966 -0.0012366335 -0.00027120858)
(-0.020871657 -0.0014673598 -0.00029701588)
(-0.018739322 -0.0016518311 -0.00031781288)
(-0.016397233 -0.0017792734 -0.00033280428)
(-0.013925746 -0.0018410708 -0.00034146278)
(-0.011414036 -0.0018315674 -0.00034358899)
(-0.0089559081 -0.0017487181 -0.00033935344)
(-0.0066448968 -0.0015945376 -0.00032931547)
(-0.0045688586 -0.0013753491 -0.00031441618)
(-0.0028042374 -0.0011019382 -0.00029594683)
(-0.0014100621 -0.00078991214 -0.00027549697)
(-0.00042168324 -0.00046059734 -0.00025487881)
(0.00015572685 -0.00014257703 -0.00023600679)
(0.00035669468 0.00012230004 -0.00022090092)
(0.00027523694 0.00027112356 -0.00021166524)
(9.0111101e-05 0.0002050936 -0.00019548141)
(1.9115986e-06 -0.00014895665 -2.043593e-05)
(-0.00025605581 0.00029701412 -1.1818091e-05)
(-0.0010504344 0.0010235916 7.9604241e-08)
(-0.00238776 0.0017974741 1.3058903e-05)
(-0.0042393027 0.0025098067 2.6094222e-05)
(-0.0065453258 0.0031099329 3.8044732e-05)
(-0.0092247742 0.0035807793 4.8083473e-05)
(-0.012189522 0.0039232707 5.5649835e-05)
(-0.015352376 0.0041460122 6.0362182e-05)
(-0.018630301 0.0042594123 6.1963833e-05)
(-0.021945182 0.0042726354 6.0281871e-05)
(-0.02522322 0.0041922993 5.5198527e-05)
(-0.028393751 0.0040223015 4.6637524e-05)
(-0.031388095 0.0037643681 3.4563769e-05)
(-0.034138813 0.0034190314 1.8993394e-05)
(-0.03657964 0.0029868221 1.0904917e-08)
(-0.038646172 0.0024695139 -2.2209884e-05)
(-0.040277312 0.0018712965 -4.7384513e-05)
(-0.041417393 0.0011997785 -7.5099416e-05)
(-0.042018839 0.00046673536 -0.00010479966)
(-0.042045129 -0.00031145815 -0.00013578741)
(-0.041473886 -0.0011137335 -0.00016722766)
(-0.04029981 -0.0019147635 -0.00019817342)
(-0.038537151 -0.0026857181 -0.00022760159)
(-0.036221471 -0.0033955079 -0.00025446377)
(-0.03341044 -0.0040124176 -0.00027774919)
(-0.030183439 -0.0045060458 -0.00029655524)
(-0.026639815 -0.0048494282 -0.00031015962)
(-0.022895713 -0.0050211822 -0.00031808704)
(-0.019079505 -0.0050074938 -0.0003201636)
(-0.015325956 -0.0048037818 -0.00031655304)
(-0.011769324 -0.0044159253 -0.00030777043)
(-0.0085356958 -0.0038610494 -0.0002946702)
(-0.0057348273 -0.0031680228 -0.00027840776)
(-0.0034517097 -0.0023780687 -0.00026037841)
(-0.0017380156 -0.0015461791 -0.00024213628)
(-0.00060372426 -0.00074421221 -0.00022528812)
(-8.0661085e-06 -6.6403917e-05 -0.00021142532)
(0.00015538691 0.00036035587 -0.00020224001)
(7.3543741e-05 0.00035435834 -0.00018532515)
(-6.4685516e-05 5.043085e-05 -3.868688e-05)
(-0.00060836762 0.0010457317 -2.6149223e-05)
(-0.0019304767 0.0023816523 -1.216863e-05)
(-0.0039462947 0.0037563733 1.1233819e-06)
(-0.0065887602 0.0050151105 1.3710746e-05)
(-0.0097788079 0.0060798101 2.4834099e-05)
(-0.013416577 0.006920229 3.3956222e-05)
(-0.017394806 0.0075337918 4.0741844e-05)
(-0.02160683 0.0079310565 4.495504e-05)
(-0.025949602 0.0081266918 4.6423977e-05)
(-0.030324568 0.0081344204 4.5017868e-05)
(-0.034637333 0.0079646629 4.0630397e-05)
(-0.038796724 0.0076240538 3.3174523e-05)
(-0.042713884 0.0071162131 2.2588012e-05)
(-0.046301808 0.0064432932 8.8472351e-06)
(-0.049475605 0.0056079266 -8.0132857e-06)
(-0.052153568 0.0046152819 -2.7878239e-05)
(-0.054259066 0.0034750017 -5.0528594e-05)
(-0.055723161 0.002202842 -7.5621315e-05)
(-0.056487765 0.00082187096 -0.00010267509)
(-0.0565091 -0.00063688226 -0.00013106526)
(-0.055761274 -0.0021344422 -0.00016002684)
(-0.054239602 -0.0036245971 -0.00018867797)
(-0.051963385 -0.0050553454 -0.00021605179)
(-0.048977892 -0.0063710696 -0.00024114538)
(-0.04535522 -0.0075153584 -0.00026298104)
(-0.041193798 -0.0084343444 -0.00028067628)
(-0.036616347 -0.0090803576 -0.00029351664)
(-0.031766163 -0.0094156399 -0.0003010234)
(-0.026801741 -0.0094158345 -0.00030300811)
(-0.021889829 -0.0090729736 -0.00029960703)
(-0.017197149 -0.0083977594 -0.00029129109)
(-0.012881107 -0.0074210736 -0.00027884941)
(-0.009079894 -0.0061948624 -0.00026334615)
(-0.0059024131 -0.0047928324 -0.00024605226)
(-0.0034184895 -0.0033117757 -0.00022835898)
(-0.0016495514 -0.0018745425 -0.00021169096)
(-0.00055982077 -0.0006347557 -0.00019743721)
(-5.0127568e-05 0.00021494191 -0.00018683239)
(3.8089331e-05 0.00041379985 -0.00016802232)
(-0.00013086204 0.00044555615 -5.8201981e-05)
(-0.00097091504 0.0022426113 -4.1138315e-05)
(-0.0028460989 0.0043590136 -2.4256767e-05)
(-0.0055645809 0.0064569467 -9.8253018e-06)
(-0.009009055 0.0083531207 3.0923488e-06)
(-0.01307489 0.009951023 1.407144e-05)
(-0.017641501 0.011211261 2.2849006e-05)
(-0.022583679 0.012129056 2.9320231e-05)
(-0.027778399 0.012716972 3.3407931e-05)
(-0.033106643 0.012993584 3.5039279e-05)
(-0.03845379 0.012976807 3.4136996e-05)
(-0.043709197 0.012680674 3.0612677e-05)
(-0.048765376 0.012114621 2.4369459e-05)
(-0.053517295 0.011284524 1.5313861e-05)
(-0.057862193 0.010194854 3.3745969e-06)
(-0.061700145 0.0088514061 -1.1473783e-05)
(-0.064935471 0.0072641864 -2.9184627e-05)
(-0.067478964 0.0054501299 -4.961273e-05)
(-0.069250838 0.0034353728 -7.2490365e-05)
(-0.070184217 0.0012568849 -9.7408865e-05)
(-0.070228915 -0.0010367042 -0.00012380891)
(-0.069355294 -0.0033852247 -0.00015098209)
(-0.067557867 -0.0057180472 -0.0001780877)
(-0.064858364 -0.0079562494 -0.00020418431)
(-0.061307958 -0.010015792 -0.00022827746)
(-0.056988339 -0.011811622 -0.00024938106)
(-0.05201136 -0.013262535 -0.00026658902)
(-0.046517012 -0.014296525 -0.000279151)
(-0.04066955 -0.014856278 -0.00028654456)
(-0.034651711 -0.014904416 -0.00028853399)
(-0.028657074 -0.014428078 -0.00028520716)
(-0.022880791 -0.013442507 -0.00027698439)
(-0.017509048 -0.01199345 -0.00026459796)
(-0.012707775 -0.010158438 -0.00024904359)
(-0.0086113043 -0.0080473176 -0.00023150594)
(-0.0053116809 -0.0058028665 -0.00021326828)
(-0.002848502 -0.0036024576 -0.00019564598)
(-0.0012000403 -0.001660583 -0.00017990164)
(-0.00028881617 -0.00023384451 -0.00016675574)
(-2.4730365e-06 0.000350424 -0.00014551936)
(-0.00019285729 0.0010312735 -7.6680996e-05)
(-0.0013239296 0.0038923807 -5.4778928e-05)
(-0.0037516905 0.0069677082 -3.4575189e-05)
(-0.007172976 0.0099103923 -1.8482639e-05)
(-0.011414287 0.01252685 -4.6878678e-06)
(-0.016340735 0.014713856 6.6739322e-06)
(-0.02180862 0.016429776 1.5589807e-05)
(-0.027674611 0.017671239 2.2174357e-05)
(-0.033800853 0.018454438 2.6506027e-05)
(-0.040055027 0.018802393 2.8611532e-05)
(-0.046309743 0.018737269 2.8468141e-05)
(-0.052441705 0.018276629 2.6004937e-05)
(-0.058330757 0.017432708 2.1112375e-05)
(-0.063859243 0.016213835 1.3660296e-05)
(-0.068911981 0.014627251 3.5222214e-06)
(-0.073377034 0.01268264 -9.395952e-06)
(-0.077147325 0.01039586 -2.5124793e-05)
(-0.080123086 0.0077924189 -4.3599962e-05)
(-0.082214992 0.0049103685 -6.4633197e-05)
(-0.08334783 0.0018023525 -8.7888615e-05)
(-0.083464489 -0.0014633889 -0.00011286761)
(-0.08253003 -0.0048032142 -0.0001389062)
(-0.080535563 -0.008119546 -0.00016518677)
(-0.077501678 -0.011303711 -0.0001907681)
(-0.073481071 -0.014240103 -0.0002146325)
(-0.068560086 -0.016811582 -0.00023574888)
(-0.062858822 -0.018905919 -0.00025314776)
(-0.056529494 -0.020422975 -0.00026600213)
(-0.049752791 -0.021282175 -0.000273706)
(-0.042732057 -0.021429775 -0.00027594074)
(-0.035685281 -0.020845353 -0.00027271881)
(-0.028835088 -0.019546998 -0.00026439635)
(-0.022397102 -0.017594829 -0.00025165176)
(-0.016567344 -0.015092734 -0.00023543221)
(-0.011509601 -0.012188558 -0.0002168716)
(-0.0073437504 -0.0090734982 -0.00019719652)
(-0.0041344699 -0.0059816078 -0.000177684)
(-0.0018815799 -0.0031890532 -0.00015956947)
(-0.0005361917 -0.0010143791 -0.00014317706)
(-4.1246514e-05 0.00015890504 -0.00011908252)
(-0.00025010514 0.0017985026 -9.2166597e-05)
(-0.001659695 0.0059838906 -6.5278533e-05)
(-0.0046242378 0.010198174 -4.1593368e-05)
(-0.0087317558 0.014106396 -2.3539573e-05)
(-0.013750953 0.017521553 -8.5022019e-06)
(-0.019514158 0.020346206 3.6357518e-06)
(-0.025852929 0.022544916 1.3086036e-05)
(-0.032605484 0.024120929 2.0164703e-05)
(-0.039620041 0.025097001 2.509398e-05)
(-0.046752856 0.025502064 2.7992138e-05)
(-0.053866338 0.025363135 2.8884807e-05)
(-0.060827495 0.024701491 2.7712766e-05)
(-0.067506619 0.0235322 2.4347505e-05)
(-0.073776504 0.021866102 1.8614993e-05)
(-0.079512406 0.019713367 1.0325431e-05)
(-0.084592859 0.017087876 -6.9264442e-07)
(-0.088901357 0.01401178 -1.4555628e-05)
(-0.092328849 0.010519732 -3.128764e-05)
(-0.094776933 0.0066623925 -5.078543e-05)
(-0.096161593 0.0025089126 -7.2788426e-05)
(-0.096417309 -0.001851843 -9.6857393e-05)
(-0.095501329 -0.0063115012 -0.00012236628)
(-0.093397887 -0.010743919 -0.00014850837)
(-0.09012213 -0.015008591 -0.00017432371)
(-0.085723388 -0.018955701 -0.00019874521)
(-0.080287491 -0.02243275 -0.00022066394)
(-0.073937723 -0.025292602 -0.00023900918)
(-0.066833987 -0.02740259 -0.00025283643)
(-0.059169811 -0.028654203 -0.00026141471)
(-0.051166873 -0.028972696 -0.00026430291)
(-0.043066916 -0.028325884 -0.00026140401)
(-0.035121151 -0.026731357 -0.00025298682)
(-0.027577554 -0.02426146 -0.00023966929)
(-0.020666787 -0.021045682 -0.00022236355)
(-0.014587976 -0.017270447 -0.00020218576)
(-0.0094955921 -0.013176939 -0.00018035596)
(-0.0054863709 -0.0090577909 -0.00015817978)
(-0.0025879059 -0.0052521916 -0.00013694914)
(-0.00078445941 -0.0021405743 -0.00011666734)
(-7.6873886e-05 -0.00016057996 -8.9460544e-05)
(-0.00030294127 0.0027364158 -0.00010298927)
(-0.001975402 0.008497732 -7.1020737e-05)
(-0.0054518751 0.014027952 -4.3874286e-05)
(-0.010217476 0.019020534 -2.373075e-05)
(-0.015984409 0.023310043 -7.2365427e-06)
(-0.022551717 0.026816988 5.9513786e-06)
(-0.029725771 0.029521108 1.6247525e-05)
(-0.037326449 0.03143838 2.414971e-05)
(-0.045188877 0.03260197 3.0008004e-05)
(-0.053159438 0.033048939 3.4019333e-05)
(-0.061092461 0.032812293 3.6246849e-05)
(-0.068847757 0.031917491 3.6633433e-05)
(-0.076288747 0.030382549 3.5022601e-05)
(-0.083281337 0.028220753 3.1187505e-05)
(-0.089693675 0.025445069 2.4865819e-05)
(-0.095396834 0.022073403 1.5799133e-05)
(-0.10026638 0.018134007 3.7753894e-06)
(-0.10418476 0.013670464 -1.1327644e-05)
(-0.1070444 0.0087458284 -2.9500486e-05)
(-0.10875143 0.0034455913 -5.0564797e-05)
(-0.10922981 -0.0021207737 -7.4144769e-05)
(-0.10842587 -0.0078198908 -9.9652651e-05)
(-0.10631288 -0.013496297 -0.00012628768)
(-0.10289569 -0.018976233 -0.00015305979)
(-0.098214917 -0.024073382 -0.00017883312)
(-0.092350329 -0.028596604 -0.00020239277)
(-0.085423114 -0.03235953 -0.00022253033)
(-0.077596307 -0.035191693 -0.0002381411)
(-0.069072912 -0.036950661 -0.00024832322)
(-0.060091204 -0.037534402 -0.00025246736)
(-0.05091689 -0.036892908 -0.00025032511)
(-0.041832093 -0.035038005 -0.00024204451)
(-0.033121514 -0.032050342 -0.00022816447)
(-0.025056592 -0.028082802 -0.00020956459)
(-0.017879164 -0.023360042 -0.00018736951)
(-0.011786173 -0.018174568 -0.0001628404)
(-0.0069138974 -0.012880157 -0.00013737657)
(-0.0033237619 -0.0078821743 -0.00011240523)
(-0.0010368424 -0.0036261584 -8.7698544e-05)
(-0.00011093399 -0.00060705435 -5.7257475e-05)
(-0.00035167527 0.003833653 -0.00010768553)
(-0.002269572 0.011409845 -7.0531546e-05)
(-0.0062271699 0.018426458 -4.0055146e-05)
(-0.011614178 0.024618828 -1.7805904e-05)
(-0.018089436 0.029856194 2.5689551e-07)
(-0.025419798 0.034088327 1.4685086e-05)
(-0.033387127 0.037319029 2.6078115e-05)
(-0.041793707 0.039583481 3.5096739e-05)
(-0.050462626 0.040929639 4.2201952e-05)
(-0.059231877 0.041405444 4.7654545e-05)
(-0.067949604 0.04105144 5.1542195e-05)
(-0.076470635 0.039898013 5.3798319e-05)
(-0.084653885 0.037966315 5.4227818e-05)
(-0.09236073 0.03527191 5.2540752e-05)
(-0.099454374 0.031830127 4.8391855e-05)
(-0.10580022 0.027662249 4.1424786e-05)
(-0.11126714 0.022801784 3.1320006e-05)
(-0.11572959 0.017300226 1.7844497e-05)
(-0.11907049 0.011231872 9.0082845e-07)
(-0.12118475 0.0046973778 -1.9427608e-05)
(-0.12198349 -0.0021742301 -4.2839406e-05)
(-0.12139864 -0.0092252994 -6.87934e-05)
(-0.11938816 -0.016271155 -9.6497744e-05)
(-0.11594138 -0.023104005 -0.0001249289)
(-0.11108436 -0.029499089 -0.00015286997)
(-0.10488483 -0.035223282 -0.00017897704)
(-0.097456054 -0.040046135 -0.0002018692)
(-0.088959115 -0.043753079 -0.00022023585)
(-0.079602698 -0.046160265 -0.00023295092)
(-0.069639696 -0.047130158 -0.00023918094)
(-0.059360032 -0.046586665 -0.0002384728)
(-0.049079467 -0.044528338 -0.00023080845)
(-0.039124595 -0.041038162 -0.0002166165)
(-0.029814882 -0.036288656 -0.00019673342)
(-0.021443539 -0.030541526 -0.00017230791)
(-0.01425912 -0.024142034 -0.00014468419)
(-0.0084458987 -0.017508828 -0.00011541931)
(-0.0041056508 -0.01111893 -8.615383e-05)
(-0.0013000484 -0.0054896583 -5.6494917e-05)
(-0.00014465794 -0.0011817633 -2.2541332e-05)
(-0.00039637204 0.0050784435 -0.00010493627)
(-0.0025406771 0.014692808 -6.2458463e-05)
(-0.0069438693 0.023356896 -2.8853952e-05)
(-0.012908616 0.030859382 -4.5536889e-06)
(-0.020044689 0.037115643 1.5124805e-05)
(-0.028088972 0.042114987 3.0930763e-05)
(-0.036800426 0.045893719 4.363429e-05)
(-0.045965075 0.048512662 5.404216e-05)
(-0.055395316 0.050039175 6.2710212e-05)
(-0.064922296 0.05053514 6.9948446e-05)
(-0.074389784 0.0500505 7.5855855e-05)
(-0.083649657 0.048621507 8.034444e-05)
(-0.092558501 0.046272716 8.3169351e-05)
(-0.10097532 0.0430217 8.3966617e-05)
(-0.10876039 0.038885448 8.2296596e-05)
(-0.11577511 0.033887522 7.7692453e-05)
(-0.12188282 0.028065214 6.9712908e-05)
(-0.12695049 0.021476128 5.7997882e-05)
(-0.13085117 0.014203749 4.2324783e-05)
(-0.13346732 0.0063617089 2.2662646e-05)
(-0.13469488 -0.001903517 -7.8063665e-07)
(-0.13444805 -0.010411748 -2.7529557e-05)
(-0.13266498 -0.018950153 -5.6812433e-05)
(-0.12931414 -0.027276891 -8.7578206e-05)
(-0.12440093 -0.035127272 -0.00011852476)
(-0.11797439 -0.042222924 -0.00014816206)
(-0.11013329 -0.048284053 -0.00017490451)
(-0.10103074 -0.053044701 -0.0001971877)
(-0.090876244 -0.056270529 -0.00021359998)
(-0.079934312 -0.057778161 -0.00022301423)
(-0.068518563 -0.05745463 -0.00022470289)
(-0.056980735 -0.055275033 -0.00021841979)
(-0.045694616 -0.051316239 -0.00020443625)
(-0.035035647 -0.0457647 -0.00018352051)
(-0.025358256 -0.038916948 -0.00015684784)
(-0.01697323 -0.03117251 -0.00012587826)
(-0.010122853 -0.023019965 -9.2387917e-05)
(-0.0049571706 -0.015016009 -5.8310102e-05)
(-0.0015838697 -0.0077600762 -2.3138772e-05)
(-0.00018000014 -0.001892004 1.4727787e-05)
(-0.00043685088 0.006458268 -9.3539094e-05)
(-0.0027867136 0.018316045 -4.5562732e-05)
(-0.0075955289 0.028776979 -9.0801406e-06)
(-0.014087962 0.03769316 1.7172389e-05)
(-0.021829772 0.045036142 3.8474871e-05)
(-0.030530843 0.050843966 5.5765814e-05)
(-0.039929483 0.055193224 6.9974323e-05)
(-0.049797258 0.05817656 8.203835e-05)
(-0.05993747 0.059885339 9.2594245e-05)
(-0.070176052 0.060398602 0.000101988)
(-0.080354174 0.059777739 0.00011031787)
(-0.090322707 0.058065969 0.00011746338)
(-0.099937958 0.055291572 0.00012311939)
(-0.10905865 0.051473796 0.0001268371)
(-0.11754407 0.04663036 0.00012807057)
(-0.12525333 0.040785618 0.00012622847)
(-0.13204551 0.033978625 0.00012073101)
(-0.13778081 0.026270582 0.00011107089)
(-0.1423224 0.017751248 9.6876675e-05)
(-0.14553938 0.0085440657 7.7976244e-05)
(-0.14731063 -0.001190207 5.4455715e-05)
(-0.14752963 -0.011251596 2.6693005e-05)
(-0.1461106 -0.02140135 -4.581482e-06)
(-0.14299587 -0.031364496 -3.830722e-05)
(-0.13816386 -0.04083566 -7.3102935e-05)
(-0.13163785 -0.049488331 -0.00010732316)
(-0.1234946 -0.056987986 -0.00013914976)
(-0.11387185 -0.06300925 -0.00016671609)
(-0.10297346 -0.067256748 -0.0001882564)
(-0.091070827 -0.069488722 -0.00020226603)
(-0.078499095 -0.069541736 -0.00020765247)
(-0.065647088 -0.067354071 -0.00020385593)
(-0.052940496 -0.062984896 -0.00019092102)
(-0.0408189 -0.056626293 -0.0001695035)
(-0.02970883 -0.048605773 -0.00014079212)
(-0.019995664 -0.03937836 -0.00010638407)
(-0.011991841 -0.029508794 -6.8331402e-05)
(-0.0059058641 -0.019643942 -2.8941411e-05)
(-0.0018995428 -0.010479127 1.2366226e-05)
(-0.00021910465 -0.0027504726 5.4706104e-05)
(-0.00047273706 0.0079594768 -7.2403309e-05)
(-0.0030051615 0.022245616 -1.8722666e-05)
(-0.0081750939 0.034639086 2.0352413e-05)
(-0.015138931 0.045064295 4.8431574e-05)
(-0.023423997 0.053557706 7.134529e-05)
(-0.032716611 0.06021418 9.0214458e-05)
(-0.042737082 0.065157618 0.00010611717)
(-0.053244602 0.068518239 0.00012010961)
(-0.06403514 0.070415874 0.00013289649)
(-0.074931094 0.070949967 0.00014484886)
(-0.085772782 0.070195523 0.00015605429)
(-0.096411943 0.068203954 0.00016635071)
(-0.1067066 0.065007659 0.00017536372)
(-0.11651725 0.060627204 0.00018254998)
(-0.12570422 0.055079964 0.00018724558)
(-0.13412618 0.048389303 0.00018871996)
(-0.14163954 0.04059358 0.00018623586)
(-0.14809885 0.031754487 0.00017911489)
(-0.15335797 0.021964401 0.00016680752)
(-0.15727243 0.011352535 0.0001489645)
(-0.15970284 8.9736286e-05 0.0001255063)
(-0.16051982 -0.011608283 9.6693965e-05)
(-0.15961032 -0.023480124 6.3156791e-05)
(-0.15688563 -0.035219839 2.593736e-05)
(-0.15229101 -0.046481741 -1.3522581e-05)
(-0.14581653 -0.056889131 -5.3424209e-05)
(-0.1375085 -0.06604776 -9.1696347e-05)
(-0.12748038 -0.073564509 -0.00012612359)
(-0.11592184 -0.079071276 -0.00015451253)
(-0.10310397 -0.082253279 -0.00017488326)
(-0.089378737 -0.082879983 -0.00018566507)
(-0.075170967 -0.08083578 -0.00018586937)
(-0.060961499 -0.076146604 -0.00017521322)
(-0.047261795 -0.068998283 -0.00015416761)
(-0.034582147 -0.059742905 -0.00012390022)
(-0.023396761 -0.048891192 -8.6152582e-05)
(-0.014103063 -0.037090976 -4.3304077e-05)
(-0.0069812444 -0.025092062 1.8799589e-06)
(-0.0022589449 -0.01370269 5.0026081e-05)
(-0.00026413866 -0.0037759937 9.7584176e-05)
(-0.00050352678 0.0095669878 -4.0559268e-05)
(-0.0031931278 0.026443943 1.9054042e-05)
(-0.0086750107 0.040890191 6.0407963e-05)
(-0.016047778 0.052910145 9.0172064e-05)
(-0.024806275 0.062612571 0.00011467454)
(-0.034616925 0.070156085 0.00013521158)
(-0.04518488 0.075718084 0.00015300109)
(-0.056259165 0.079471594 0.00016920622)
(-0.067630218 0.081569131 0.00018459029)
(-0.079118559 0.082133749 0.00019954121)
(-0.090565341 0.081256315 0.00021412888)
(-0.10182498 0.078997778 0.00022814328)
(-0.11275916 0.075395164 0.00024113429)
(-0.12323223 0.070470044 0.00025245628)
(-0.13310769 0.064238325 0.00026131701)
(-0.14224589 0.056720451 0.00026683219)
(-0.15050257 0.047951338 0.00026808701)
(-0.15772833 0.037989638 0.00026420512)
(-0.16376909 0.026926097 0.00025442453)
(-0.16846757 0.014890895 0.00023817794)
(-0.17166615 0.0020598162 0.00021517491)
(-0.17321151 -0.011340992 0.00018549146)
(-0.17296095 -0.025032045 0.00014961586)
(-0.17079089 -0.038680106 0.00010851934)
(-0.16660782 -0.051901103 6.3664713e-05)
(-0.16036112 -0.064267543 1.698489e-05)
(-0.15205747 -0.075321518 -2.9188517e-05)
(-0.14177561 -0.084594254 -7.2251513e-05)
(-0.12968005 -0.091632683 -0.00010950772)
(-0.1160313 -0.096032585 -0.00013839245)
(-0.10119009 -0.097476627 -0.00015672018)
(-0.085612846 -0.095774022 -0.00016292436)
(-0.069836228 -0.090897024 -0.00015625319)
(-0.054450002 -0.083008468 -0.00013688083)
(-0.040060138 -0.072474693 -0.00010588713)
(-0.027245773 -0.059860105 -6.5144496e-05)
(-0.016507271 -0.045902459 -1.740399e-05)
(-0.0082135542 -0.031469137 3.4022426e-05)
(-0.0026742487 -0.017501483 8.9786753e-05)
(-0.00031728699 -0.0049937762 0.00014350554)
(-0.00052865668 0.011264115 2.8232193e-06)
(-0.0033475923 0.03086966 6.8611859e-05)
(-0.0090876632 0.047471857 0.00011190803)
(-0.016800878 0.061161356 0.00014320555)
(-0.025955814 0.07212516 0.00016927034)
(-0.03620271 0.08059136 0.00019156565)
(-0.047234412 0.086796118 0.0002114404)
(-0.058791948 0.090959936 0.00023015493)
(-0.070661955 0.093271943 0.00024852397)
(-0.082664633 0.093881939 0.00026694735)
(-0.094643545 0.092898965 0.00028547376)
(-0.10645749 0.090395001 0.00030384242)
(-0.11797373 0.086412362 0.00032152432)
(-0.12906255 0.08097345 0.00033776676)
(-0.13959291 0.074091672 0.00035164121)
(-0.14942927 0.065782628 0.0003620967)
(-0.15842915 0.05607495 0.00036802109)
(-0.16644172 0.045020498 0.00036831179)
(-0.17330719 0.032703763 0.00036195639)
(-0.17885747 0.01925048 0.00034812185)
(-0.18291814 0.0048353659 0.00032625054)
(-0.18531241 -0.010311219 0.00029616183)
(-0.18586712 -0.025897958 0.00025813732)
(-0.18442144 -0.041569765 0.00021300551)
(-0.18083858 -0.05690813 0.00016218848)
(-0.1750203 -0.071436269 0.00010771022)
(-0.16692416 -0.084630614 5.2148898e-05)
(-0.15658244 -0.095940201 -1.4780395e-06)
(-0.14412111 -0.10481511 -4.9901037e-05)
(-0.12977634 -0.11074421 -8.9853408e-05)
(-0.11390524 -0.11330085 -0.00011837605)
(-0.096987014 -0.11219321 -0.00013313852)
(-0.079610889 -0.10731352 -0.00013273037)
(-0.062448757 -0.098778471 -0.00011686415)
(-0.046213544 -0.086952577 -8.6418213e-05)
(-0.031606962 -0.072447982 -4.3349892e-05)
(-0.01925367 -0.056097846 9.1862603e-06)
(-0.009632894 -0.038903006 6.7237757e-05)
(-0.0031577477 -0.021961178 0.00013146396)
(-0.00038077465 -0.0064354749 0.0001924919)
(-0.00054757625 0.01303256 5.8411619e-05)
(-0.0034657176 0.035477737 0.00013062592)
(-0.0094060242 0.054320497 0.00017550924)
(-0.017385718 0.06974216 0.00020818169)
(-0.026853406 0.082012278 0.00023577908)
(-0.037446745 0.091432805 0.00025992189)
(-0.048848973 0.098302998 0.00028208153)
(-0.060795129 0.10289489 0.00030360735)
(-0.0730696 0.10543787 0.00032536103)
(-0.085493647 0.10611151 0.00034775288)
(-0.097914662 0.10504545 0.00037081091)
(-0.11019741 0.10232436 0.00039422489)
(-0.12221654 0.097996743 0.00041738789)
(-0.13385039 0.092085899 0.00043943927)
(-0.14497582 0.084601934 0.00045930972)
(-0.15546409 0.075553868 0.00047577156)
(-0.16517753 0.064961346 0.0004874977)
(-0.17396705 0.052865717 0.00049313186)
(-0.18167055 0.039340479 0.00049137208)
(-0.18811239 0.024501186 0.00048106752)
(-0.19310436 0.0085148738 0.00046132759)
(-0.19644856 -0.0083911455 0.00043164083)
(-0.19794266 -0.025921415 0.00039199235)
(-0.19738813 -0.043706419 0.00034297731)
(-0.19460211 -0.061299623 0.00028588956)
(-0.18943309 -0.078179275 0.00022277129)
(-0.18178053 -0.093757058 0.00015640277)
(-0.17161773 -0.10739584 9.0213305e-05)
(-0.15901661 -0.11843863 2.8099164e-05)
(-0.14417166 -0.12624994 -2.5855391e-05)
(-0.1274191 -0.13026922 -6.7741734e-05)
(-0.10924638 -0.1300732 -9.4242161e-05)
(-0.090286532 -0.12544094 -0.0001030426)
(-0.071293107 -0.1164117 -9.3163369e-05)
(-0.053095227 -0.10332404 -6.5103005e-05)
(-0.036535592 -0.086825608 -2.0808075e-05)
(-0.022387915 -0.067847222 3.615554e-05)
(-0.011268492 -0.0475393 0.00010109838)
(-0.0037217514 -0.027182116 0.00017466774)
(-0.00045689939 -0.0081392199 0.00024436568)
(-0.00055982355 0.014852583 0.00012668622)
(-0.0035452085 0.04021996 0.00020558066)
(-0.0096244639 0.061368044 0.00025168253)
(-0.017792176 0.078571083 0.00028556465)
(-0.027483174 0.092183674 0.00031465757)
(-0.038325853 0.10258463 0.00034072759)
(-0.049996258 0.11013964 0.00036536047)
(-0.062225167 0.11517575 0.00038998832)
(-0.074796018 0.11796591 0.00041551848)
(-0.087532295 0.11872251 0.00044237424)
(-0.10028643 0.11759825 0.00047056782)
(-0.11293057 0.11469241 0.00049974555)
(-0.12534849 0.11006088 0.00052922833)
(-0.13742865 0.10372828 0.00055805138)
(-0.1490583 0.095700988 0.00058500477)
(-0.16011851 0.085980089 0.00060867851)
(-0.17047985 0.074573905 0.00062751684)
(-0.17999895 0.061509868 0.00063988565)
(-0.1885157 0.046845938 0.00064415631)
(-0.19585161 0.030681761 0.00063880784)
(-0.20180939 0.013169757 0.00062254768)
(-0.20617444 -0.0054738714 0.00059444917)
(-0.20871884 -0.02495849 0.00055409971)
(-0.20920845 -0.044909601 0.00050174981)
(-0.20741409 -0.064861816 0.00043845003)
(-0.20312746 -0.084256187 0.00036615339)
(-0.19618228 -0.10244447 0.00028775846)
(-0.18648071 -0.11870332 0.00020706526)
(-0.17402377 -0.13226171 0.00012861766)
(-0.1589436 -0.14234411 5.7415642e-05)
(-0.14153308 -0.14823068 -1.501443e-06)
(-0.1222667 -0.14933237 -4.3572897e-05)
(-0.10180525 -0.14527466 -6.5276971e-05)
(-0.08097707 -0.13597816 -6.4632314e-05)
(-0.060732642 -0.12172054 -4.1494575e-05)
(-0.042073422 -0.10316329 2.3685886e-06)
(-0.025949916 -0.081331251 6.3014489e-05)
(-0.013147949 -0.057539184 0.00013492635)
(-0.0043784959 -0.033278658 0.000218717)
(-0.00054806932 -0.010149631 0.00029866329)
(-0.00056510421 0.016703392 0.0002079179)
(-0.0035847079 0.045045835 0.00029375192)
(-0.009739677 0.06854313 0.00034069642)
(-0.018014038 0.087562167 0.00037561432)
(-0.027834666 0.10254313 0.00040614964)
(-0.038823561 0.11394323 0.00043420179)
(-0.050651572 0.122197 0.00046146382)
(-0.063046596 0.12768935 0.00048944699)
(-0.075792137 0.13073989 0.00051910678)
(-0.088714805 0.13159681 0.00055088636)
(-0.10167309 0.13043853 0.00058479181)
(-0.11454775 0.12738111 0.00062043708)
(-0.12723329 0.12248937 0.00065708178)
(-0.13963031 0.11579014 0.0006936662)
(-0.15163902 0.10728612 0.00072884538)
(-0.16315339 0.096969708 0.00076102704)
(-0.17405607 0.084836138 0.00078841887)
(-0.18421388 0.070896112 0.0008090905)
(-0.19347399 0.055188033 0.0008210548)
(-0.20166091 0.037790272 0.00082237239)
(-0.20857463 0.018833786 0.00081128133)
(-0.21399037 -0.0014847726 0.00078635201)
(-0.21766074 -0.022889569 0.00074666492)
(-0.21932094 -0.045012397 0.00069199789)
(-0.21869835 -0.067381015 0.00062301715)
(-0.21552745 -0.08941092 0.00054144289)
(-0.20957132 -0.11040355 0.00045016231)
(-0.20065032 -0.12955465 0.00035325288)
(-0.18867771 -0.14597735 0.00025587582)
(-0.17370038 -0.15874431 0.00016400547)
(-0.1559405 -0.1669524 8.3977331e-05)
(-0.13583106 -0.16980997 2.1868738e-05)
(-0.11403566 -0.16674139 -1.7231089e-05)
(-0.091441649 -0.1574961 -2.9940963e-05)
(-0.069119193 -0.14224209 -1.5103986e-05)
(-0.048243416 -0.12161964 2.5960102e-05)
(-0.029971213 -0.096734279 8.9035251e-05)
(-0.015296309 -0.06907598 0.00016770964)
(-0.0051400173 -0.040378091 0.00026253935)
(-0.00065683924 -0.012517805 0.00035453338)
(-0.000563373 0.018563736 0.00030215153)
(-0.0035842233 0.049903979 0.00039519575)
(-0.0097517031 0.075772873 0.00044260779)
(-0.018050693 0.096626842 0.00047837512)
(-0.027905218 0.11299016 0.00051027023)
(-0.038933107 0.12539861 0.00054031234)
(-0.05080148 0.13435701 0.00057029678)
(-0.063236341 0.14031061 0.0006018142)
(-0.076021968 0.14362855 0.00063587537)
(-0.088988796 0.14459779 0.00067295542)
(-0.1020022 0.14342535 0.00071306916)
(-0.11495268 0.14024654 0.00075581431)
(-0.12774687 0.13513709 0.00080040541)
(-0.1402995 0.12812739 0.00084570248)
(-0.1525262 0.11921717 0.00089023707)
(-0.16433706 0.10839004 0.0009322411)
(-0.17563075 0.095627181 0.00096968503)