/*--------------------------------*- C++ -*----------------------------------*\
  =========                 |
  \\      /  F ield         | OpenFOAM: The Open Source CFD Toolbox
   \\    /   O peration     | Website:  https://openfoam.org
    \\  /    A nd           | Version:  7
     \\/     M anipulation  |
\*---------------------------------------------------------------------------*/
FoamFile
{
    version     2.0;
    format      ascii;
    class       volVectorField;
    location    "20";
    object      U_0;
}
// * * * * * * * * * * * * * * * * * * * * * * * * * * * * * * * * * * * * * //

dimensions      [0 1 -1 0 0 0 0];

internalField   nonuniform List<vector> 
16000
(
(6.6020526e-05 -6.7349605e-05 -4.1966309e-07)
(0.00016271398 -5.6362061e-05 5.6803977e-06)
(0.00014189608 4.6103843e-07 1.9179504e-05)
(-5.0634497e-05 6.1888531e-05 3.6601054e-05)
(-0.00040997481 0.00011562725 5.4708508e-05)
(-0.00090901034 0.00015773838 7.1535731e-05)
(-0.001517673 0.00018849797 8.5746674e-05)
(-0.002206821 0.00020960126 9.6526213e-05)
(-0.0029505067 0.00022286822 0.00010341405)
(-0.0037263388 0.0002298021 0.00010616331)
(-0.0045148923 0.00023146789 0.00010464676)
(-0.0052988227 0.00022849471 9.8801348e-05)
(-0.006061971 0.00022113831 8.8602437e-05)
(-0.0067886119 0.00020937433 7.4060597e-05)
(-0.0074629362 0.00019300561 5.5234611e-05)
(-0.0080688129 0.00017177342 3.225471e-05)
(-0.0085898453 0.00014546571 5.3507776e-06)
(-0.00900971 0.00011401741 -2.511932e-05)
(-0.0093127526 7.759862e-05 -5.8645693e-05)
(-0.0094847951 3.6686594e-05 -9.4550598e-05)
(-0.0095140982 -7.8850225e-06 -0.00013198435)
(-0.0093923901 -5.4920427e-05 -0.00016993586)
(-0.009115902 -0.00010283776 -0.00020725892)
(-0.0086863044 -0.0001497419 -0.00024271582)
(-0.0081114238 -0.00019350306 -0.00027503675)
(-0.0074056619 -0.00023187571 -0.00030299266)
(-0.0065900249 -0.00026264895 -0.00032547708)
(-0.0056916988 -0.00028381453 -0.00034159035)
(-0.0047431457 -0.00029373624 -0.00035071868)
(-0.0037807416 -0.00029130164 -0.00035260062)
(-0.0028430217 -0.00027603849 -0.00034737523)
(-0.0019686397 -0.00024818176 -0.00033560822)
(-0.0011941552 -0.00020869145 -0.00031829504)
(-0.00055169435 -0.00015925736 -0.00029684205)
(-6.6543487e-05 -0.00010240673 -0.00027302026)
(0.00024488367 -4.1759036e-05 -0.00024888656)
(0.00037891099 1.7842996e-05 -0.00022681958)
(0.00034976561 6.706775e-05 -0.00020925204)
(0.00020617731 8.9853692e-05 -0.00019885706)
(5.7461776e-05 5.7410594e-05 -0.00018440567)
(5.7987872e-05 -0.00016704771 -6.6502625e-06)
(4.0854991e-05 -3.996578e-05 -3.9698564e-07)
(-0.00029499143 0.00024855627 1.1235892e-05)
(-0.0010110163 0.00056210492 2.5601036e-05)
(-0.00209918 0.0008474664 4.0585006e-05)
(-0.0035139843 0.0010830801 5.4592087e-05)
(-0.0051945145 0.0012642523 6.6495026e-05)
(-0.0070763802 0.0013940125 7.5541535e-05)
(-0.0090978163 0.001477901 8.1249823e-05)
(-0.011201883 0.0015214648 8.3320273e-05)
(-0.013336522 0.0015291479 8.1569605e-05)
(-0.015453575 0.0015039132 7.5887863e-05)
(-0.017507461 0.0014472972 6.6216693e-05)
(-0.019453945 0.0013597217 5.2545337e-05)
(-0.021249311 0.0012409512 3.4919942e-05)
(-0.022850066 0.0010906149 1.3461728e-05)
(-0.024213265 0.00090874014 -1.1610307e-05)
(-0.025297433 0.0006962511 -3.9956238e-05)
(-0.026064034 0.00045540142 -7.1095507e-05)
(-0.02647937 0.00019010659 -0.00010439395)
(-0.026516799 -9.3852025e-05 -0.00013906071)
(-0.026159003 -0.00038874878 -0.0001741642)
(-0.025400234 -0.00068505087 -0.00020864861)
(-0.024248301 -0.0009717076 -0.00024138176)
(-0.022725962 -0.0012366326 -0.0002712082)
(-0.020871654 -0.0014673592 -0.00029701629)
(-0.018739319 -0.0016518314 -0.00031781347)
(-0.016397229 -0.001779274 -0.00033280387)
(-0.013925744 -0.0018410706 -0.0003414609)
(-0.011414036 -0.0018315657 -0.00034358692)
(-0.0089559097 -0.0017487159 -0.00033935338)
(-0.0066448977 -0.0015945372 -0.00032931802)
(-0.0045688568 -0.0013753514 -0.00031441864)
(-0.0028042339 -0.0011019411 -0.00029594535)
(-0.0014100615 -0.00078991159 -0.00027549138)
(-0.0004216882 -0.0004605923 -0.00025487462)
(0.00015571915 -0.00014257166 -0.00023601071)
(0.00035669074 0.00012229936 -0.00022091231)
(0.00027524454 0.00027111593 -0.00021167388)
(9.0116012e-05 0.00020508606 -0.0001954742)
(1.9116337e-06 -0.0001489565 -2.0435799e-05)
(-0.00025605567 0.00029701419 -1.1817938e-05)
(-0.0010504341 0.0010235915 7.9770399e-08)
(-0.0023877593 0.0017974738 1.3059062e-05)
(-0.0042393016 0.0025098062 2.6094371e-05)
(-0.0065453242 0.0031099322 3.8044874e-05)
(-0.009224772 0.0035807785 4.8083627e-05)
(-0.01218952 0.0039232698 5.5650002e-05)
(-0.015352372 0.0041460113 6.0362355e-05)
(-0.018630297 0.0042594114 6.1964007e-05)
(-0.021945177 0.0042726344 6.0282059e-05)
(-0.025223214 0.0041922983 5.5198749e-05)
(-0.028393745 0.0040223006 4.6637777e-05)
(-0.031388088 0.0037643673 3.4564019e-05)
(-0.034138805 0.0034190307 1.8993608e-05)
(-0.036579632 0.0029868215 1.1107737e-08)
(-0.038646163 0.0024695133 -2.2209607e-05)
(-0.040277303 0.0018712961 -4.7384091e-05)
(-0.041417384 0.0011997785 -7.5098909e-05)
(-0.042018831 0.00046673561 -0.00010479927)
(-0.04204512 -0.00031145774 -0.0001357873)
(-0.041473877 -0.0011137332 -0.00016722769)
(-0.040299801 -0.0019147633 -0.00019817316)
(-0.038537143 -0.0026857177 -0.00022760072)
(-0.036221465 -0.0033955068 -0.00025446259)
(-0.033410435 -0.0040124157 -0.00027774859)
(-0.030183435 -0.004506044 -0.00029655583)
(-0.026639811 -0.0048494275 -0.00031016076)
(-0.022895708 -0.0050211827 -0.00031808703)
(-0.019079501 -0.0050074939 -0.00032016141)
(-0.015325955 -0.0048037798 -0.0003165501)
(-0.011769325 -0.0044159217 -0.00030776994)
(-0.0085356975 -0.0038610471 -0.00029467353)
(-0.0057348257 -0.0031680246 -0.00027841171)
(-0.0034517049 -0.0023780734 -0.00026037745)
(-0.0017380123 -0.0015461814 -0.00024212896)
(-0.00060372709 -0.00074420809 -0.00022528083)
(-8.0736766e-06 -6.6395861e-05 -0.00021142649)
(0.0001553863 0.00036036056 -0.00020224878)
(7.3546176e-05 0.00035435221 -0.00018532624)
(-6.4685487e-05 5.0430931e-05 -3.8686733e-05)
(-0.00060836742 0.0010457316 -2.6149072e-05)
(-0.0019304761 0.0023816519 -1.2168467e-05)
(-0.0039462936 0.0037563725 1.1235516e-06)
(-0.0065887585 0.0050151095 1.3710917e-05)
(-0.0097788055 0.0060798087 2.4834261e-05)
(-0.013416573 0.0069202275 3.3956384e-05)
(-0.017394801 0.0075337901 4.0742019e-05)
(-0.021606825 0.0079310547 4.4955227e-05)
(-0.025949595 0.00812669 4.6424163e-05)
(-0.030324561 0.0081344186 4.5018052e-05)
(-0.034637325 0.0079646611 4.0630601e-05)
(-0.038796715 0.0076240521 3.3174775e-05)
(-0.042713874 0.0071162115 2.2588306e-05)
(-0.046301798 0.0064432919 8.8475146e-06)
(-0.049475594 0.0056079255 -8.0130779e-06)
(-0.052153556 0.004615281 -2.7878079e-05)
(-0.054259054 0.003475001 -5.052835e-05)
(-0.055723149 0.0022028417 -7.5620858e-05)
(-0.056487752 0.00082187109 -0.00010267448)
(-0.056509088 -0.00063688153 -0.00013106479)
(-0.055761262 -0.0021344411 -0.0001600268)
(-0.054239591 -0.003624596 -0.00018867821)
(-0.051963375 -0.0050553445 -0.00021605172)
(-0.048977882 -0.0063710685 -0.00024114444)
(-0.045355211 -0.0075153564 -0.00026297952)
(-0.041193792 -0.0084343413 -0.0002806754)
(-0.036616342 -0.0090803544 -0.00029351741)
(-0.031766159 -0.009415638 -0.00030102518)
(-0.026801736 -0.0094158343 -0.00030300859)
(-0.021889824 -0.0090729736 -0.00029960454)
(-0.017197147 -0.0083977572 -0.0002912872)
(-0.012881109 -0.007421069 -0.00027884832)
(-0.0090798965 -0.0061948586 -0.00026335014)
(-0.0059024121 -0.0047928331 -0.00024605785)
(-0.0034184848 -0.0033117807 -0.00022835943)
(-0.0016495482 -0.0018745466 -0.00021168453)
(-0.00055982389 -0.00063475467 -0.00019743109)
(-5.0131718e-05 0.00021494596 -0.00018683424)
(3.8089025e-05 0.00041379859 -0.00016802581)
(-0.000130862 0.00044555613 -5.8201813e-05)
(-0.00097091477 0.002242611 -4.1138155e-05)
(-0.0028460981 0.0043590128 -2.4256609e-05)
(-0.0055645794 0.0064569453 -9.8251373e-06)
(-0.0090090526 0.0083531189 3.0925259e-06)
(-0.013074887 0.0099510208 1.4071616e-05)
(-0.017641497 0.011211259 2.2849178e-05)
(-0.022583674 0.012129053 2.932041e-05)
(-0.027778392 0.012716969 3.3408127e-05)
(-0.033106635 0.012993581 3.5039484e-05)
(-0.038453781 0.012976804 3.413719e-05)
(-0.043709187 0.012680672 3.0612861e-05)
(-0.048765365 0.012114618 2.4369666e-05)
(-0.053517282 0.011284521 1.5314136e-05)
(-0.057862179 0.010194852 3.3749332e-06)
(-0.061700131 0.0088514044 -1.147347e-05)
(-0.064935456 0.0072641852 -2.9184436e-05)
(-0.067478948 0.0054501291 -4.9612641e-05)
(-0.069250823 0.0034353723 -7.2490185e-05)
(-0.070184202 0.0012568849 -9.7408382e-05)
(-0.0702289 -0.0010367034 -0.00012380817)
(-0.06935528 -0.0033852231 -0.00015098151)
(-0.067557854 -0.0057180449 -0.00017808771)
(-0.064858352 -0.007956247 -0.00020418482)
(-0.061307946 -0.010015789 -0.00022827766)
(-0.056988328 -0.01181162 -0.0002493801)
(-0.05201135 -0.013262532 -0.00026658709)
(-0.046517005 -0.014296521 -0.0002791497)
(-0.040669545 -0.014856273 -0.00028654545)
(-0.034651706 -0.014904412 -0.0002885365)
(-0.028657068 -0.014428077 -0.00028520832)
(-0.022880786 -0.013442507 -0.00027698176)
(-0.017509046 -0.011993448 -0.00026459311)
(-0.012707777 -0.010158433 -0.00024904157)
(-0.008611307 -0.0080473129 -0.00023150967)
(-0.00531168 -0.0058028662 -0.00021327388)
(-0.0028484979 -0.0036024614 -0.00019564652)
(-0.0012000391 -0.0016605859 -0.00017989663)
(-0.00028881902 -0.00023384323 -0.00016675314)
(-2.4740345e-06 0.00035042588 -0.00014552079)
(-0.00019285724 0.0010312734 -7.6680814e-05)
(-0.0013239292 0.0038923799 -5.4778747e-05)
(-0.0037516895 0.0069677067 -3.457502e-05)
(-0.007172974 0.0099103901 -1.8482476e-05)
(-0.011414284 0.012526847 -4.6876915e-06)
(-0.016340731 0.014713852 6.6741177e-06)
(-0.021808614 0.016429773 1.5589988e-05)
(-0.027674604 0.017671235 2.2174537e-05)
(-0.033800845 0.018454433 2.6506221e-05)
(-0.040055017 0.018802389 2.861175e-05)
(-0.046309732 0.018737265 2.8468364e-05)
(-0.052441692 0.018276625 2.6005134e-05)
(-0.058330743 0.017432704 2.1112543e-05)
(-0.063859227 0.016213832 1.3660489e-05)
(-0.068911965 0.014627248 3.5225095e-06)
(-0.073377016 0.012682637 -9.3955711e-06)
(-0.077147307 0.010395858 -2.5124443e-05)
(-0.080123069 0.0077924179 -4.3599798e-05)
(-0.082214974 0.0049103682 -6.4633212e-05)
(-0.083347811 0.0018023527 -8.7888543e-05)
(-0.083464471 -0.001463388 -0.00011286713)
(-0.082530012 -0.0048032124 -0.00013890531)
(-0.080535547 -0.0081195429 -0.000165186)
(-0.077501663 -0.011303707 -0.00019076813)
(-0.073481057 -0.014240099 -0.00021463333)
(-0.068560073 -0.016811578 -0.00023574947)
(-0.062858809 -0.018905916 -0.00025314684)
(-0.056529484 -0.020422971 -0.00026599978)
(-0.049752784 -0.021282169 -0.00027370417)
(-0.042732052 -0.021429768 -0.00027594162)
(-0.035685277 -0.020845348 -0.00027272198)
(-0.028835082 -0.019546996 -0.00026439831)
(-0.022397096 -0.017594829 -0.00025164941)
(-0.016567341 -0.015092732 -0.00023542716)
(-0.011509603 -0.012188554 -0.00021686932)
(-0.0073437528 -0.009073494 -0.00019719972)
(-0.0041344686 -0.0059816078 -0.00017768832)
(-0.0018815771 -0.0031890561 -0.0001595691)
(-0.00053619191 -0.00101438 -0.0001431743)
(-4.124734e-05 0.00015890654 -0.00011908174)
(-0.00025010506 0.0017985023 -9.2166414e-05)
(-0.0016596945 0.0059838893 -6.5278337e-05)
(-0.0046242365 0.010198171 -4.159318e-05)
(-0.0087317534 0.014106392 -2.3539402e-05)
(-0.01375095 0.017521549 -8.5020238e-06)
(-0.019514153 0.020346201 3.6359416e-06)
(-0.025852922 0.022544911 1.3086227e-05)
(-0.032605476 0.024120924 2.0164885e-05)
(-0.039620031 0.025096995 2.5094163e-05)
(-0.046752844 0.025502058 2.7992345e-05)
(-0.053866325 0.025363129 2.8885046e-05)
(-0.06082748 0.024701486 2.7713005e-05)
(-0.067506602 0.023532195 2.4347696e-05)
(-0.073776486 0.021866097 1.8615128e-05)
(-0.079512387 0.019713363 1.0325588e-05)
(-0.084592839 0.017087872 -6.9235638e-07)
(-0.088901337 0.014011777 -1.45552e-05)
(-0.092328829 0.01051973 -3.1287239e-05)
(-0.094776913 0.0066623922 -5.078529e-05)
(-0.096161572 0.0025089133 -7.2788573e-05)
(-0.096417289 -0.0018518416 -9.6857484e-05)
(-0.095501308 -0.006311499 -0.00012236583)
(-0.093397868 -0.010743915 -0.00014850731)
(-0.090122113 -0.015008586 -0.00017432271)
(-0.085723372 -0.018955695 -0.0001987452)
(-0.080287477 -0.022432744 -0.00022066508)
(-0.073937709 -0.025292596 -0.00023901023)
(-0.066833973 -0.027402585 -0.0002528357)
(-0.0591698 -0.028654197 -0.00026141202)
(-0.051166866 -0.028972688 -0.00026430053)
(-0.043066911 -0.028325876 -0.00026140465)
(-0.035121147 -0.02673135 -0.00025299025)
(-0.027577548 -0.024261458 -0.00023967168)
(-0.020666781 -0.021045682 -0.00022236158)
(-0.014587974 -0.017270445 -0.00020218127)
(-0.0094955938 -0.013176935 -0.00018035422)
(-0.0054863722 -0.0090577878 -0.00015818239)
(-0.0025879045 -0.005252192 -0.00013695153)
(-0.00078445804 -0.0021405759 -0.00011666688)
(-7.68739e-05 -0.0001605801 -8.9459275e-05)
(-0.00030294118 0.0027364152 -0.00010298909)
(-0.0019754015 0.00849773 -7.102054e-05)
(-0.0054518736 0.014027948 -4.3874086e-05)
(-0.010217473 0.01902053 -2.3730568e-05)
(-0.015984404 0.023310038 -7.2363614e-06)
(-0.022551711 0.026816982 5.9515697e-06)
(-0.029725763 0.029521101 1.6247726e-05)
(-0.037326439 0.031438373 2.4149904e-05)
(-0.045188866 0.032601962 3.0008181e-05)
(-0.053159425 0.033048932 3.4019511e-05)
(-0.061092445 0.032812285 3.6247061e-05)
(-0.06884774 0.031917484 3.6633688e-05)
(-0.076288729 0.030382543 3.5022853e-05)
(-0.083281317 0.028220747 3.1187679e-05)
(-0.089693655 0.025445064 2.48659e-05)
(-0.095396812 0.022073399 1.5799227e-05)
(-0.10026636 0.018134004 3.7756585e-06)
(-0.10418473 0.013670462 -1.1327165e-05)
(-0.10704438 0.0087458281 -2.9500013e-05)
(-0.10875141 0.0034455925 -5.0564666e-05)
(-0.10922979 -0.0021207714 -7.4145067e-05)
(-0.10842585 -0.0078198876 -9.9652962e-05)
(-0.10631285 -0.013496293 -0.00012628733)
(-0.10289567 -0.018976228 -0.00015305859)
(-0.098214899 -0.024073375 -0.00017883182)
(-0.092350313 -0.028596595 -0.00020239262)
(-0.085423099 -0.032359521 -0.00022253171)
(-0.077596293 -0.035191685 -0.00023814264)
(-0.069072898 -0.036950654 -0.00024832281)
(-0.060091193 -0.037534395 -0.00025246457)
(-0.050916883 -0.036892899 -0.00025032239)
(-0.041832089 -0.035037995 -0.00024204488)
(-0.03312151 -0.032050335 -0.00022816776)
(-0.025056587 -0.028082799 -0.00020956689)
(-0.017879159 -0.023360041 -0.00018736788)
(-0.011786172 -0.018174566 -0.00016283697)
(-0.0069138986 -0.012880153 -0.00013737569)
(-0.0033237623 -0.0078821725 -0.00011240685)
(-0.0010368415 -0.0036261589 -8.7699685e-05)
(-0.00011093359 -0.00060705545 -5.7257165e-05)
(-0.00035167516 0.0038336522 -0.00010768534)
(-0.0022695713 0.011409842 -7.0531353e-05)
(-0.0062271681 0.018426454 -4.0054944e-05)
(-0.011614174 0.024618822 -1.7805715e-05)
(-0.018089431 0.029856187 2.5707878e-07)
(-0.025419791 0.034088318 1.4685274e-05)
(-0.033387118 0.03731902 2.6078318e-05)
(-0.041793696 0.039583471 3.5096947e-05)
(-0.050462613 0.04092963 4.2202142e-05)
(-0.059231862 0.041405434 4.7654706e-05)
(-0.067949588 0.041051431 5.1542353e-05)
(-0.076470616 0.039898004 5.3798524e-05)
(-0.084653865 0.037966307 5.4228085e-05)
(-0.092360708 0.035271903 5.2541015e-05)
(-0.099454352 0.031830121 4.8392004e-05)
(-0.1058002 0.027662244 4.1424792e-05)
(-0.11126712 0.022801781 3.1320005e-05)
(-0.11572957 0.017300223 1.7844721e-05)
(-0.11907046 0.011231871 9.0135636e-07)
(-0.12118473 0.0046973789 -1.9427037e-05)
(-0.12198346 -0.0021742271 -4.283925e-05)
(-0.12139862 -0.0092252949 -6.8793844e-05)
(-0.11938813 -0.016271149 -9.6498319e-05)
(-0.11594135 -0.023103999 -0.00012492873)
(-0.11108434 -0.029499081 -0.00015286867)
(-0.10488481 -0.035223272 -0.00017897544)
(-0.097456038 -0.040046124 -0.00020186883)
(-0.0889591 -0.043753068 -0.00022023733)
(-0.079602685 -0.046160255 -0.00023295283)
(-0.069639683 -0.047130151 -0.00023918088)
(-0.059360021 -0.046586658 -0.00023847016)
(-0.049079461 -0.044528328 -0.00023080572)
(-0.039124591 -0.041038152 -0.00021661671)
(-0.029814878 -0.036288648 -0.00019673624)
(-0.021443535 -0.030541522 -0.00017230971)
(-0.014259116 -0.024142032 -0.00014468288)
(-0.0084458979 -0.017508826 -0.00011541718)
(-0.0041056515 -0.011118928 -8.6153433e-05)
(-0.0013000485 -0.0054896576 -5.6495753e-05)
(-0.00014465771 -0.001181764 -2.2541794e-05)
(-0.00039637192 0.0050784423 -0.00010493608)
(-0.0025406764 0.014692805 -6.2458273e-05)
(-0.0069438673 0.02335689 -2.8853752e-05)
(-0.012908612 0.030859375 -4.5534968e-06)
(-0.020044684 0.037115634 1.5124991e-05)
(-0.028088965 0.042114977 3.0930944e-05)
(-0.036800416 0.045893708 4.3634481e-05)
(-0.045965063 0.048512651 5.4042369e-05)
(-0.055395302 0.050039164 6.2710423e-05)
(-0.06492228 0.050535128 6.9948624e-05)
(-0.074389766 0.050050489 7.5855986e-05)
(-0.083649638 0.048621497 8.0344561e-05)
(-0.092558479 0.046272706 8.3169533e-05)
(-0.1009753 0.043021692 8.3966887e-05)
(-0.10876037 0.038885441 8.2296869e-05)
(-0.11577509 0.033887516 7.7692575e-05)
(-0.1218828 0.02806521 6.9712821e-05)
(-0.12695046 0.021476125 5.7997753e-05)
(-0.13085114 0.014203748 4.2324926e-05)
(-0.13346729 0.0063617099 2.2663208e-05)
(-0.13469485 -0.0019035138 -7.7994868e-07)
(-0.13444803 -0.010411742 -2.7529334e-05)
(-0.13266496 -0.018950146 -5.6812991e-05)
(-0.12931412 -0.027276883 -8.7579057e-05)
(-0.12440091 -0.035127264 -0.00011852484)
(-0.11797437 -0.042222915 -0.00014816078)
(-0.11013328 -0.048284041 -0.00017490268)
(-0.10103073 -0.053044688 -0.00019718708)
(-0.09087623 -0.056270516 -0.00021360141)
(-0.079934299 -0.057778149 -0.0002230163)
(-0.06851855 -0.057454621 -0.00022470309)
(-0.056980725 -0.055275024 -0.00021841748)
(-0.04569461 -0.051316229 -0.00020443385)
(-0.035035643 -0.045764691 -0.0001835207)
(-0.025358252 -0.038916941 -0.00015685)
(-0.016973227 -0.031172506 -0.00012587941)
(-0.01012285 -0.023019963 -9.2387074e-05)
(-0.0049571703 -0.015016007 -5.8308957e-05)
(-0.0015838702 -0.007760075 -2.3138607e-05)
(-0.00018000023 -0.0018920039 1.4727382e-05)
(-0.00043685075 0.0064582665 -9.3538895e-05)
(-0.0027867128 0.01831604 -4.5562541e-05)
(-0.0075955268 0.028776972 -9.0799441e-06)
(-0.014087959 0.03769315 1.7172582e-05)
(-0.021829766 0.045036131 3.847506e-05)
(-0.030530835 0.050843954 5.5765992e-05)
(-0.039929473 0.055193211 6.9974495e-05)
(-0.049797246 0.058176546 8.2038535e-05)
(-0.059937455 0.059885325 9.2594452e-05)
(-0.070176035 0.060398588 0.00010198821)
(-0.080354155 0.059777726 0.00011031803)
(-0.090322686 0.058065957 0.00011746347)
(-0.099937935 0.055291561 0.00012311945)
(-0.10905862 0.051473786 0.00012683724)
(-0.11754404 0.046630352 0.00012807083)
(-0.1252533 0.040785611 0.00012622875)
(-0.13204549 0.03397862 0.0001207311)
(-0.13778078 0.026270579 0.0001110707)
(-0.14232237 0.017751247 9.687639e-05)
(-0.14553935 0.0085440668 7.7976266e-05)
(-0.1473106 -0.0011902038 5.4456277e-05)
(-0.1475296 -0.011251591 2.669381e-05)
(-0.14611058 -0.021401342 -4.5811534e-06)
(-0.14299585 -0.031364486 -3.8307832e-05)
(-0.13816383 -0.040835649 -7.3104022e-05)
(-0.13163783 -0.049488319 -0.00010732351)
(-0.12349458 -0.056987974 -0.0001391486)
(-0.11387183 -0.063009237 -0.00016671418)
(-0.10297344 -0.067256733 -0.00018825561)
(-0.091070814 -0.069488706 -0.00020226731)
(-0.078499083 -0.069541723 -0.00020765447)
(-0.065647077 -0.06735406 -0.00020385624)
(-0.052940487 -0.062984886 -0.00019091916)
(-0.040818895 -0.056626283 -0.00016950167)
(-0.029708827 -0.048605763 -0.00014079232)
(-0.019995662 -0.039378354 -0.0001063855)
(-0.011991839 -0.02950879 -6.8332088e-05)
(-0.0059058628 -0.01964394 -2.8940983e-05)
(-0.0018995428 -0.010479126 1.2366757e-05)
(-0.00021910481 -0.0027504722 5.4706123e-05)
(-0.00047273692 0.0079594749 -7.2403111e-05)
(-0.0030051606 0.022245611 -1.8722477e-05)
(-0.0081750917 0.034639078 2.0352603e-05)
(-0.015138927 0.045064284 4.8431761e-05)
(-0.023423991 0.053557694 7.1345481e-05)
(-0.032716603 0.060214165 9.021464e-05)
(-0.042737071 0.065157603 0.00010611733)
(-0.053244589 0.068518224 0.00012010975)
(-0.064035125 0.070415859 0.00013289666)
(-0.074931077 0.070949951 0.00014484906)
(-0.085772763 0.070195509 0.00015605448)
(-0.096411922 0.06820394 0.00016635083)
(-0.10670658 0.065007646 0.00017536374)
(-0.11651722 0.060627193 0.00018254996)
(-0.12570419 0.055079955 0.00018724565)
(-0.13412615 0.048389295 0.0001887202)
(-0.14163952 0.040593574 0.00018623615)
(-0.14809882 0.031754484 0.00017911497)
(-0.15335794 0.021964401 0.00016680723)
(-0.1572724 0.011352536 0.00014896405)
(-0.15970281 8.9739916e-05 0.00012550616)
(-0.16051979 -0.011608277 9.669448e-05)
(-0.1596103 -0.023480115 6.3157684e-05)
(-0.1568856 -0.035219828 2.5937811e-05)
(-0.15229098 -0.046481728 -1.3523178e-05)
(-0.14581651 -0.056889117 -5.3425448e-05)
(-0.13750848 -0.066047746 -9.1696938e-05)
(-0.12748036 -0.073564494 -0.00012612263)
(-0.11592183 -0.07907126 -0.00015451071)
(-0.10310395 -0.082253262 -0.00017488242)
(-0.089378725 -0.082879966 -0.00018566615)
(-0.075170956 -0.080835765 -0.00018587109)
(-0.060961489 -0.076146592 -0.00017521352)
(-0.047261788 -0.068998272 -0.00015416625)
(-0.034582142 -0.059742895 -0.00012389901)
(-0.023396759 -0.048891184 -8.6152747e-05)
(-0.014103062 -0.03709097 -4.3304937e-05)
(-0.006981243 -0.02509206 1.8795445e-06)
(-0.0022589444 -0.013702689 5.0026239e-05)
(-0.00026413868 -0.0037759934 9.7584366e-05)
(-0.00050352664 0.0095669855 -4.0559075e-05)
(-0.003193127 0.026443937 1.9054228e-05)
(-0.0086750085 0.040890181 6.0408143e-05)
(-0.016047774 0.052910133 9.0172236e-05)
(-0.024806269 0.062612556 0.00011467472)
(-0.034616917 0.070156069 0.00013521177)
(-0.04518487 0.075718066 0.00015300126)
(-0.056259152 0.079471576 0.00016920635)
(-0.067630203 0.081569113 0.0001845904)
(-0.079118542 0.082133732 0.00019954134)
(-0.090565322 0.081256298 0.00021412905)
(-0.10182496 0.078997762 0.00022814346)
(-0.11275914 0.07539515 0.00024113437)
(-0.1232322 0.070470031 0.00025245621)
(-0.13310766 0.064238314 0.00026131687)
(-0.14224586 0.056720442 0.00026683217)
(-0.15050254 0.047951332 0.00026808721)
(-0.1577283 0.037989634 0.00026420542)
(-0.16376906 0.026926096 0.00025442461)
(-0.16846755 0.014890897 0.00023817758)
(-0.17166612 0.0020598206 0.00021517429)
(-0.17321148 -0.011340985 0.00018549114)
(-0.17296093 -0.025032037 0.00014961627)
(-0.17079086 -0.038680094 0.00010852026)
(-0.16660779 -0.051901088 6.3665265e-05)
(-0.1603611 -0.064267527 1.6984358e-05)
(-0.15205745 -0.0753215 -2.91898e-05)
(-0.14177559 -0.084594237 -7.2252262e-05)
(-0.12968003 -0.091632666 -0.000109507)
(-0.11603129 -0.096032567 -0.00013839087)
(-0.10119008 -0.097476608 -0.00015671942)
(-0.085612835 -0.095774004 -0.00016292521)
(-0.069836218 -0.090897009 -0.00015625453)
(-0.054449994 -0.083008455 -0.00013688108)
(-0.040060132 -0.072474682 -0.00010588628)
(-0.027245769 -0.059860095 -6.5143789e-05)
(-0.016507269 -0.045902452 -1.7404115e-05)
(-0.0082135531 -0.031469132 3.4021921e-05)
(-0.0026742482 -0.017501481 8.9786486e-05)
(-0.00031728689 -0.004993776 0.00014350556)
(-0.00052865654 0.011264113 2.8234018e-06)
(-0.0033475915 0.030869653 6.8612041e-05)
(-0.009087661 0.047471845 0.0001119082)
(-0.016800874 0.061161341 0.0001432057)
(-0.025955808 0.072125143 0.0001692705)
(-0.036202702 0.080591341 0.00019156582)
(-0.047234401 0.086796098 0.00021144057)
(-0.058791936 0.090959916 0.00023015507)
(-0.070661941 0.093271923 0.00024852406)
(-0.082664617 0.09388192 0.0002669474)
(-0.094643527 0.092898947 0.00028547384)
(-0.10645747 0.090394983 0.00030384256)
(-0.11797371 0.086412346 0.00032152446)
(-0.12906252 0.080973436 0.00033776679)
(-0.13959289 0.074091661 0.00035164105)
(-0.14942924 0.065782618 0.00036209644)
(-0.15842913 0.056074943 0.00036802095)
(-0.16644169 0.045020493 0.00036831193)
(-0.17330717 0.032703761 0.00036195668)
(-0.17885745 0.019250482 0.00034812194)
(-0.18291812 0.0048353709 0.00032625012)
(-0.18531238 -0.010311211 0.00029616107)
(-0.18586709 -0.025897949 0.00025813681)
(-0.18442142 -0.041569753 0.00021300577)
(-0.18083856 -0.056908115 0.00016218935)
(-0.17502028 -0.071436252 0.00010771082)
(-0.16692414 -0.084630595 5.2148453e-05)
(-0.15658242 -0.095940181 -1.4792667e-06)
(-0.14412109 -0.10481509 -4.9901845e-05)
(-0.12977632 -0.11074419 -8.985292e-05)
(-0.11390523 -0.11330083 -0.00011837482)
(-0.096987002 -0.11219319 -0.00013313794)
(-0.079610879 -0.1073135 -0.00013273101)
(-0.062448749 -0.098778455 -0.00011686511)
(-0.046213537 -0.086952565 -8.6418438e-05)
(-0.031606957 -0.072447972 -4.3349446e-05)
(-0.019253668 -0.056097838 9.186606e-06)
(-0.009632893 -0.038903001 6.723764e-05)
(-0.0031577473 -0.021961175 0.00013146365)
(-0.00038077455 -0.0064354744 0.00019249172)
(-0.00054757612 0.013032556 5.8411785e-05)
(-0.0034657169 0.035477729 0.00013062609)
(-0.0094060221 0.054320484 0.00017550941)
(-0.017385714 0.069742144 0.00020818183)
(-0.026853401 0.082012259 0.00023577921)
(-0.037446737 0.091432784 0.00025992203)
(-0.048848963 0.098302976 0.00028208169)
(-0.060795117 0.10289487 0.00030360749)
(-0.073069586 0.10543784 0.00032536113)
(-0.085493631 0.10611149 0.00034775291)
(-0.097914644 0.10504543 0.0003708109)
(-0.11019739 0.10232434 0.0003942249)
(-0.12221652 0.097996725 0.00041738797)
(-0.13385037 0.092085884 0.00043943937)
(-0.1449758 0.084601921 0.00045930968)
(-0.15546407 0.075553858 0.00047577131)
(-0.1651775 0.064961339 0.0004874973)
(-0.17396702 0.052865713 0.00049313158)
(-0.18167052 0.039340477 0.00049137212)
(-0.18811236 0.024501188 0.00048106778)
(-0.19310433 0.0085148788 0.00046132767)
(-0.19644854 -0.0083911373 0.00043164038)
(-0.19794263 -0.025921404 0.0003919915)
(-0.1973881 -0.043706406 0.00034297664)
(-0.19460208 -0.061299608 0.00028588965)
(-0.18943307 -0.078179258 0.00022277203)
(-0.18178051 -0.093757038 0.00015640334)
(-0.17161771 -0.10739582 9.021294e-05)
(-0.1590166 -0.11843861 2.8098069e-05)
(-0.14417165 -0.12624992 -2.5856169e-05)
(-0.12741909 -0.1302692 -6.7741463e-05)
(-0.10924637 -0.13007318 -9.4241301e-05)
(-0.090286522 -0.12544092 -0.00010304222)
(-0.071293099 -0.11641168 -9.3163825e-05)
(-0.053095221 -0.10332403 -6.5103663e-05)
(-0.036535587 -0.086825596 -2.0808292e-05)
(-0.022387912 -0.067847213 3.6155701e-05)
(-0.011268491 -0.047539294 0.00010109849)
(-0.0037217511 -0.027182113 0.0001746676)
(-0.00045689934 -0.008139219 0.00024436547)
(-0.00055982343 0.01485258 0.00012668636)
(-0.0035452078 0.04021995 0.00020558082)
(-0.009624462 0.06136803 0.00025168269)
(-0.017792172 0.078571064 0.0002855648)
(-0.027483169 0.092183653 0.00031465769)
(-0.038325846 0.1025846 0.00034072769)
(-0.049996249 0.11013962 0.00036536058)
(-0.062225155 0.11517573 0.00038998844)
(-0.074796005 0.11796588 0.00041551859)
(-0.08753228 0.11872248 0.0004423743)
(-0.10028641 0.11759823 0.00047056778)
(-0.11293055 0.11469239 0.00049974544)
(-0.12534847 0.11006086 0.00052922825)
(-0.13742862 0.10372827 0.00055805139)
(-0.14905828 0.095700974 0.00058500481)
(-0.16011849 0.085980078 0.00060867842)
(-0.17047983 0.074573898 0.00062751649)
(-0.17999892 0.061509864 0.00063988512)
(-0.18851568 0.046845937 0.00064415589)
(-0.19585159 0.030681763 0.00063880776)
(-0.20180936 0.013169762 0.00062254787)
(-0.20617442 -0.0054738631 0.00059444923)
(-0.20871882 -0.024958478 0.00055409925)
(-0.20920843 -0.044909587 0.0005017489)
(-0.20741407 -0.064861799 0.00043844924)
(-0.20312743 -0.084256169 0.00036615329)
(-0.19618226 -0.10244445 0.000287759)
(-0.18648069 -0.1187033 0.00020706572)
(-0.17402375 -0.13226168 0.00012861736)
(-0.15894359 -0.14234408 5.7414719e-05)
(-0.14153306 -0.14823065 -1.5021381e-06)
(-0.12226669 -0.14933235 -4.3572814e-05)
(-0.10180524 -0.14527464 -6.5276466e-05)
(-0.080977062 -0.13597814 -6.4632118e-05)
(-0.060732636 -0.12172052 -4.1494901e-05)
(-0.042073418 -0.10316327 2.3681309e-06)
(-0.025949913 -0.08133124 6.301427e-05)
(-0.013147947 -0.057539176 0.00013492633)
(-0.0043784954 -0.033278653 0.00021871695)
(-0.00054806928 -0.01014963 0.00029866313)
(-0.0005651041 0.016703388 0.00020791803)
(-0.0035847072 0.045045825 0.00029375205)
(-0.0097396753 0.068543115 0.00034069656)
(-0.018014035 0.087562147 0.00037561446)
(-0.027834661 0.10254311 0.00040614976)
(-0.038823555 0.1139432 0.00043420187)
(-0.050651563 0.12219697 0.00046146388)
(-0.063046586 0.12768932 0.00048944705)
(-0.075792125 0.13073986 0.00051910685)
(-0.088714792 0.13159678 0.00055088642)
(-0.10167307 0.1304385 0.0005847918)
(-0.11454774 0.12738108 0.00062043695)
(-0.12723327 0.12248935 0.00065708156)
(-0.13963029 0.11579012 0.00069366601)
(-0.151639 0.10728611 0.0007288453)
(-0.16315337 0.096969696 0.00076102701)
(-0.17405605 0.08483613 0.0007884187)
(-0.18421386 0.070896107 0.00080909005)
(-0.19347397 0.055188031 0.00082105414)
(-0.20166089 0.037790274 0.00082237181)
(-0.20857461 0.018833791 0.00081128111)
(-0.21399035 -0.0014847644 0.00078635209)
(-0.21766072 -0.022889557 0.00074666493)
(-0.21932092 -0.045012382 0.00069199743)
(-0.21869833 -0.067380998 0.00062301624)
(-0.21552744 -0.0894109 0.00054144204)
(-0.20957131 -0.11040353 0.00045016206)
(-0.20065031 -0.12955463 0.0003532532)
(-0.1886777 -0.14597732 0.00025587612)
(-0.17370037 -0.15874428 0.00016400519)
(-0.15594048 -0.16695238 8.3976585e-05)
(-0.13583105 -0.16980995 2.1868143e-05)
(-0.11403565 -0.16674136 -1.7231156e-05)
(-0.09144164 -0.15749608 -2.9940744e-05)
(-0.069119187 -0.14224207 -1.510394e-05)
(-0.048243411 -0.12161962 2.5959844e-05)
(-0.02997121 -0.096734266 8.9034908e-05)
(-0.015296308 -0.069075971 0.00016770941)
(-0.0051400167 -0.040378086 0.00026253922)
(-0.00065683917 -0.012517804 0.00035453325)
(-0.00056337291 0.018563732 0.00030215164)
(-0.0035842228 0.049903968 0.00039519586)
(-0.0097517016 0.075772856 0.0004426079)
(-0.01805069 0.096626821 0.00047837523)
(-0.027905214 0.11299014 0.00051027034)
(-0.038933102 0.12539858 0.00054031242)
(-0.050801473 0.13435699 0.00057029681)
(-0.063236332 0.14031058 0.0006018142)
(-0.076021958 0.14362852 0.00063587536)
(-0.088988785 0.14459777 0.00067295544)
(-0.10200219 0.14342533 0.00071306917)
(-0.11495266 0.14024651 0.00075581423)
(-0.12774685 0.13513707 0.00080040518)
(-0.14029948 0.12812737 0.00084570214)
(-0.15252619 0.11921716 0.00089023675)
(-0.16433704 0.10839002 0.00093224091)