/*--------------------------------*- C++ -*----------------------------------*\
  =========                 |
  \\      /  F ield         | OpenFOAM: The Open Source CFD Toolbox
   \\    /   O peration     | Website:  https://openfoam.org
    \\  /    A nd           | Version:  7
     \\/     M anipulation  |
\*---------------------------------------------------------------------------*/
FoamFile
{
    version     2.0;
    format      ascii;
    class       volScalarField;
    location    "4.7";
    object      rho;
}
// * * * * * * * * * * * * * * * * * * * * * * * * * * * * * * * * * * * * * //

dimensions      [1 -3 0 0 0 0 0];

internalField   nonuniform List<scalar> 
19968
(
1.40001
1.40001
1.40001
1.40001
1.40001
1.40001
1.40001
1.40001
1.40001
1.40001
1.40001
1.40001
1.40001
1.40001
1.40001
1.40001
1.40001
1.40001
1.40001
1.40001
1.40001
1.40001
1.40001
1.40001
1.40001
1.40001
1.40001
1.40001
1.40001
1.40001
1.40001
1.40001
1.40001
1.40001
1.40001
1.40001
1.40001
1.40001
1.40001
1.40001
1.40001
1.40001
1.40001
1.40001
1.40001
1.40001
1.40001
1.40001
1.69815
4.56164
5.42897
5.43816
5.46549
5.4809
5.49699
5.51505
5.53608
5.55926
5.58306
5.60615
5.62749
5.64584
5.66121
5.67528
5.6901
5.7067
5.72474
5.74304
5.76051
5.77686
5.79251
5.80826
5.82457
5.8409
5.85621
5.86971
5.88125
5.89136
5.90091
5.91059
5.92068
5.93092
5.9407
5.94947
5.95713
5.9641
5.97102
5.9784
5.98622
5.9939
6.00052
6.00533
6.00806
6.00908
6.00933
6.00916
1.40001
1.40001
1.40001
1.40001
1.40001
1.40001
1.40001
1.40001
1.40001
1.40001
1.40001
1.40001
1.40001
1.40001
1.40001
1.40001
1.40001
1.40001
1.40001
1.40001
1.40001
1.40001
1.40001
1.40001
1.40001
1.40001
1.40001
1.40001
1.40001
1.40001
1.40001
1.40001
1.40001
1.40001
1.40001
1.40001
1.40001
1.40001
1.40001
1.40001
1.40001
1.40001
1.40001
1.40001
1.40001
1.40001
1.40001
1.40001
1.67859
4.53009
5.42361
5.44063
5.46409
5.48009
5.49652
5.51474
5.53581
5.55896
5.58271
5.60567
5.62694
5.64526
5.66083
5.67505
5.68994
5.70647
5.72435
5.74242
5.75963
5.77566
5.79091
5.80625
5.82224
5.83846
5.85389
5.86767
5.87955
5.88991
5.89955
5.9092
5.91918
5.92931
5.93903
5.94777
5.95541
5.96233
5.96915
5.97637
5.98399
5.99145
5.99789
6.00263
6.00545
6.00665
6.00709
6.0071
1.40001
1.40001
1.40001
1.40001
1.40001
1.40001
1.40001
1.40001
1.40001
1.40001
1.40001
1.40001
1.40001
1.40001
1.40001
1.40001
1.40001
1.40001
1.40001
1.40001
1.40001
1.40001
1.40001
1.40001
1.40001
1.40001
1.40001
1.40001
1.40001
1.40001
1.40001
1.40001
1.40001
1.40001
1.40001
1.40001
1.40001
1.40001
1.40001
1.40001
1.40001
1.40001
1.40001
1.40001
1.40001
1.40001
1.40001
1.40001
1.63857
4.47013
5.42297
5.43785
5.45985
5.47675
5.49395
5.51273
5.53406
5.55731
5.58107
5.60387
5.62502
5.64322
5.659
5.67348
5.68857
5.70515
5.72298
5.74092
5.75785
5.77346
5.78815
5.80287
5.81834
5.83431
5.84985
5.86403
5.87641
5.88722
5.89713
5.90681
5.91668
5.92665
5.93625
5.94494
5.95256
5.95944
5.96615
5.97317
5.98049
5.98763
5.99382
5.99846
6.00138
6.00282
6.00354
6.00384
1.40001
1.40001
1.40001
1.40001
1.40001
1.40001
1.40001
1.40001
1.40001
1.40001
1.40001
1.40001
1.40001
1.40001
1.40001
1.40001
1.40001
1.40001
1.40001
1.40001
1.40001
1.40001
1.40001
1.40001
1.40001
1.40001
1.40001
1.40001
1.40001
1.40001
1.40001
1.40001
1.40001
1.40001
1.40001
1.40001
1.40001
1.40001
1.40001
1.40001
1.40001
1.40001
1.40001
1.40001
1.40001
1.40001
1.40001
1.40001
1.58189
4.37389
5.4196
5.43485
5.45549
5.47323
5.49105
5.51023
5.53166
5.55487
5.57855
5.6011
5.6219
5.63989
5.65589
5.67068
5.68605
5.70269
5.72041
5.73813
5.75468
5.76977
5.7838
5.79781
5.81265
5.8283
5.8439
5.85847
5.87144
5.88283
5.89311
5.90292
5.91268
5.92246
5.93187
5.94045
5.948
5.95474
5.96119
5.96777
5.97454
5.98114
5.98696
5.99152
5.99464
5.99652
5.99768
5.99841
1.40001
1.40001
1.40001
1.40001
1.40001
1.40001
1.40001
1.40001
1.40001
1.40001
1.40001
1.40001
1.40001
1.40001
1.40001
1.40001
1.40001
1.40001
1.40001
1.40001
1.40001
1.40001
1.40001
1.40001
1.40001
1.40001
1.40001
1.40001
1.40001
1.40001
1.40001
1.40001
1.40001
1.40001
1.40001
1.40001
1.40001
1.40001
1.40001
1.40001
1.40001
1.40001
1.40001
1.40001
1.40001
1.40001
1.40001
1.40001
1.50874
4.24753
5.41798
5.43212
5.45076
5.46932
5.48775
5.50742
5.52895
5.55183
5.57493
5.59679
5.61691
5.63458
5.65089
5.66619
5.68205
5.69892
5.71664
5.73422
5.75044
5.76509
5.77853
5.79189
5.8061
5.8213
5.83675
5.85153
5.86499
5.87697
5.88777
5.89785
5.90765
5.91731
5.92659
5.9351
5.9426
5.94922
5.95532
5.96127
5.96719
5.97288
5.97796
5.9821
5.98517
5.98729
5.98874
5.98981
1.40001
1.40001
1.40001
1.40001
1.40001
1.40001
1.40001
1.40001
1.40001
1.40001
1.40001
1.40001
1.40001
1.40001
1.40001
1.40001
1.40001
1.40001
1.40001
1.40001
1.40001
1.40001
1.40001
1.40001
1.40001
1.40001
1.40001
1.40001
1.40001
1.40001
1.40001
1.40001
1.40001
1.40001
1.40001
1.40001
1.40001
1.40001
1.40001
1.40001
1.40001
1.40001
1.40001
1.40001
1.40001
1.40001
1.40001
1.40001
1.40539
4.04898
5.40328
5.42524
5.4436
5.465
5.48505
5.50594
5.52779
5.55006
5.57179
5.59215
5.61108
5.62819
5.64469
5.66058
5.67699
5.69391
5.71123
5.72825
5.74388
5.75804
5.77095
5.78367
5.79715
5.81166
5.82659
5.84111
5.85463
5.86692
5.87809
5.88845
5.89831
5.90788
5.91706
5.92556
5.93314
5.93978
5.94572
5.95127
5.95665
5.96181
5.9666
5.97073
5.97408
5.97668
5.97852
5.97999
1.40001
1.40001
1.40001
1.40001
1.40001
1.40001
1.40001
1.40001
1.40001
1.40001
1.40001
1.40001
1.40001
1.40001
1.40001
1.40001
1.40001
1.40001
1.40001
1.40001
1.40001
1.40001
1.40001
1.40001
1.40001
1.40001
1.40001
1.40001
1.40001
1.40001
1.40001
1.40001
1.40001
1.40001
1.40001
1.40001
1.40001
1.40001
1.40001
1.40001
1.40001
1.40001
1.40001
1.40001
1.40001
1.40001
1.40001
1.40001
1.40004
3.74886
5.367
5.40987
5.42854
5.45255
5.4736
5.49513
5.51676
5.53824
5.55886
5.57826
5.59652
5.61357
5.63052
5.64712
5.66421
5.68133
5.69842
5.71513
5.73054
5.74465
5.75763
5.77035
5.78365
5.79778
5.81226
5.82642
5.83981
5.85224
5.86373
5.87443
5.88453
5.89424
5.90352
5.91213
5.9198
5.92643
5.93214
5.93724
5.94207
5.94676
5.95129
5.95546
5.95908
5.96215
5.96434
5.9662
1.40001
1.40001
1.40001
1.40001
1.40001
1.40001
1.40001
1.40001
1.40001
1.40001
1.40001
1.40001
1.40001
1.40001
1.40001
1.40001
1.40001
1.40001
1.40001
1.40001
1.40001
1.40001
1.40001
1.40001
1.40001
1.40001
1.40001
1.40001
1.40001
1.40001
1.40001
1.40001
1.40001
1.40001
1.40001
1.40001
1.40001
1.40001
1.40001
1.40001
1.40001
1.40001
1.40001
1.40001
1.40001
1.40001
1.40001
1.40001
1.40001
3.35726
5.31229
5.40022
5.42108
5.44684
5.46816
5.48945
5.51017
5.53069
5.55043
5.56912
5.58671
5.60353
5.62056
5.63719
5.65421
5.67098
5.68733
5.70323
5.718
5.73166
5.74449
5.757
5.76995
5.78353
5.79739
5.81095
5.8239
5.83609
5.8475
5.85815
5.86822
5.87789
5.88717
5.89581
5.90347
5.90994
5.91529
5.91991
5.92423
5.92852
5.93285
5.93704
5.94083
5.94423
5.94666
5.94877
1.40001
1.40001
1.40001
1.40001
1.40001
1.40001
1.40001
1.40001
1.40001
1.40001
1.40001
1.40001
1.40001
1.40001
1.40001
1.40001
1.40001
1.40001
1.40001
1.40001
1.40001
1.40001
1.40001
1.40001
1.40001
1.40001
1.40001
1.40001
1.40001
1.40001
1.40001
1.40001
1.40001
1.40001
1.40001
1.40001
1.40001
1.40001
1.40001
1.40001
1.40001
1.40001
1.40001
1.40001
1.40001
1.40001
1.40001
1.40001
1.40001
2.89156
5.20956
5.39863
5.41828
5.44284
5.46355
5.48411
5.50357
5.52308
5.54213
5.56023
5.57727
5.59383
5.61061
5.62672
5.64298
5.6589
5.67409
5.68875
5.70255
5.71536
5.72773
5.73968
5.75205
5.76494
5.77806
5.79087
5.8031
5.81468
5.82558
5.83582
5.84556
5.85499
5.86412
5.87266
5.88021
5.88653
5.89171
5.89617
5.90041
5.90472
5.90916
5.91351
5.91748
5.9211
5.92364
5.92588
1.40001
1.40001
1.40001
1.40001
1.40001
1.40001
1.40001
1.40001
1.40001
1.40001
1.40001
1.40001
1.40001
1.40001
1.40001
1.40001
1.40001
1.40001
1.40001
1.40001
1.40001
1.40001
1.40001
1.40001
1.40001
1.40001
1.40001
1.40001
1.40001
1.40001
1.40001
1.40001
1.40001
1.40001
1.40001
1.40001
1.40001
1.40001
1.40001
1.40001
1.40001
1.40001
1.40001
1.40001
1.40001
1.40001
1.40001
1.40001
1.40001
2.3691
5.01544
5.4026
5.4235
5.44649
5.4659
5.48419
5.50094
5.51832
5.53606
5.55336
5.56984
5.58605
5.60222
5.61733
5.63225
5.64701
5.661
5.6744
5.6872
5.69897
5.71054
5.72153
5.73282
5.74453
5.75652
5.76819
5.77922
5.78958
5.79933
5.8086
5.81759
5.82651
5.83531
5.84365
5.85105
5.85722
5.86226
5.86659
5.87072
5.87489
5.87914
5.88325
5.88695
5.89026
5.89244
5.89441
1.40001
1.40001
1.40001
1.40001
1.40001
1.40001
1.40001
1.40001
1.40001
1.40001
1.40001
1.40001
1.40001
1.40001
1.40001
1.40001
1.40001
1.40001
1.40001
1.40001
1.40001
1.40001
1.40001
1.40001
1.40001
1.40001
1.40001
1.40001
1.40001
1.40001
1.40001
1.40001
1.40001
1.40001
1.40001
1.40001
1.40001
1.40001
1.40001
1.40001
1.40001
1.40001
1.40001
1.40001
1.40001
1.40001
1.40001
1.40001
1.40001
1.84053
4.68667
5.42377
5.41499
5.43728
5.45547
5.47378
5.49073
5.50764
5.52474
5.54159
5.55801
5.57449
5.59079
5.60557
5.61943
5.63306
5.64612
5.65862
5.67079
5.68186
5.6925
5.70257
5.71277
5.72328
5.73408
5.74456
5.75419
5.76285
5.77074
5.77815
5.7854
5.79269
5.79997
5.80685
5.81293
5.81803
5.82236
5.82638
5.83054
5.83497
5.83957
5.8439
5.84765
5.85074
5.85254
5.85416
1.40001
1.40001
1.40001
1.40001
1.40001
1.40001
1.40001
1.40001
1.40001
1.40001
1.40001
1.40001
1.40001
1.40001
1.40001
1.40001
1.40001
1.40001
1.40001
1.40001
1.40001
1.40001
1.40001
1.40001
1.40001
1.40001
1.40001
1.40001
1.40001
1.40001
1.40001
1.40001
1.40001
1.40001
1.40001
1.40001
1.40001
1.40001
1.40001
1.40001
1.40001
1.40001
1.40001
1.40001
1.40001
1.40001
1.40001
1.40001
1.40001
1.42133
4.04157
5.4004
5.4118
5.42858
5.44724
5.46533
5.48233
5.49838
5.51432
5.53001
5.54534
5.5608
5.57603
5.58965
5.60197
5.61401
5.62579
5.63692
5.64792
5.65807
5.66734
5.67632
5.68503
5.69421
5.70377
5.71315
5.72154
5.72869
5.73488
5.74061
5.74633
5.75224
5.75823
5.76392
5.76891
5.7731
5.77674
5.78012
5.78344
5.78661
5.78952
5.79182
5.79346
5.79455
5.79482
5.79535
1.40001
1.40001
1.40001
1.40001
1.40001
1.40001
1.40001
1.40001
1.40001
1.40001
1.40001
1.40001
1.40001
1.40001
1.40001
1.40001
1.40001
1.40001
1.40001
1.40001
1.40001
1.40001
1.40001
1.40001
1.40001
1.40001
1.40001
1.40001
1.40001
1.40001
1.40001
1.40001
1.40001
1.40001
1.40001
1.40001
1.40001
1.40001
1.40001
1.40001
1.40001
1.40001
1.40001
1.40001
1.40001
1.40001
1.40001
1.40001
1.40001
1.40004
3.15303
5.23902
5.36136
5.38665
5.41119
5.43185
5.45057
5.46693
5.48203
5.49657
5.51101
5.52581
5.54082
5.55489
5.5675
5.57922
5.59056
5.60135
5.61184
5.62205
5.6311
5.63962
5.64747
5.65564
5.66418
5.67253
5.67971
5.68525
5.68946
5.69307
5.6967
5.70057
5.70441
5.70765
5.70983
5.711
5.71167
5.71231
5.71324
5.71449
5.71603
5.71781
5.71937
5.72078
5.72133
5.72196
1.40001
1.40001
1.40001
1.40001
1.40001
1.40001
1.40001
1.40001
1.40001
1.40001
1.40001
1.40001
1.40001
1.40001
1.40001
1.40001
1.40001
1.40001
1.40001
1.40001
1.40001
1.40001
1.40001
1.40001
1.40001
1.40001
1.40001
1.40001
1.40001
1.40001
1.40001
1.40001
1.40001
1.40001
1.40001
1.40001
1.40001
1.40001
1.40001
1.40001
1.40001
1.40001
1.40001
1.40001
1.40001
1.40001
1.40001
1.40001
1.40001
1.4
2.13589
4.8761
5.3604
5.37447
5.40073
5.42082
5.43857
5.4538
5.46686
5.47886
5.49086
5.50362
5.51716
5.53057
5.54273
5.55337
5.56308
5.57226
5.58089
5.58945
5.59729
5.60424
5.61055
5.61691
5.6237
5.63017
5.63512
5.63797
5.63898
5.63911
5.63941
5.64028
5.64127
5.64174
5.6411
5.63947
5.63757
5.63609
5.63489
5.6333
5.63024
5.62568
5.61908
5.61204
5.60524
5.59893
1.40001
1.40001
1.40001
1.40001
1.40001
1.40001
1.40001
1.40001
1.40001
1.40001
1.40001
1.40001
1.40001
1.40001
1.40001
1.40001
1.40001
1.40001
1.40001
1.40001
1.40001
1.40001
1.40001
1.40001
1.40001
1.40001
1.40001
1.40001
1.40001
1.40001
1.40001
1.40001
1.40001
1.40001
1.40001
1.40001
1.40001
1.40001
1.40001
1.40001
1.40001
1.40001
1.40001
1.40001
1.40001
1.40001
1.40001
1.40001
1.40001
1.40001
1.43919
3.93268
5.37251
5.39133
5.40182
5.41474
5.426
5.43669
5.4461
5.45511
5.46461
5.47492
5.48606
5.49749
5.50827
5.51762
5.52555
5.53274
5.53912
5.545
5.55078
5.55583
5.56052
5.56502
5.56992
5.5745
5.57743
5.57794
5.57553
5.57141
5.56719
5.56358
5.56018
5.55626
5.55071
5.54316
5.53384
5.52325
5.51094
5.49596
5.47794
5.45825
5.4417
5.42915
5.42542
5.42413
1.40001
1.40001
1.40001
1.40001
1.40001
1.40001
1.40001
1.40001
1.40001
1.40001
1.40001
1.40001
1.40001
1.40001
1.40001
1.40001
1.40001
1.40001
1.40001
1.40001
1.40001
1.40001
1.40001
1.40001
1.40001
1.40001
1.40001
1.40001
1.40001
1.40001
1.40001
1.40001
1.40001
1.40001
1.40001
1.40001
1.40001
1.40001
1.40001
1.40001
1.40001
1.40001
1.40001
1.40001
1.40001
1.40001
1.40001
1.40001
1.40001
1.40001
1.40005
2.57886
5.04071
5.33669
5.35666
5.37481
5.38971
5.40208
5.41193
5.4206
5.42971
5.43976
5.45067
5.46178
5.47201
5.48039
5.48664
5.49134
5.49518
5.49837
5.5013
5.50372
5.5054
5.50672
5.50841
5.51052
5.51162
5.50957
5.50378
5.49474
5.48406
5.4732
5.46263
5.45171
5.43917
5.42404
5.40598
5.38541
5.36242
5.33696
5.30886
5.27903
5.24237
5.20257
5.14946
5.17082
1.40001
1.40001
1.40001
1.40001
1.40001
1.40001
1.40001
1.40001
1.40001
1.40001
1.40001
1.40001
1.40001
1.40001
1.40001
1.40001
1.40001
1.40001
1.40001
1.40001
1.40001
1.40001
1.40001
1.40001
1.40001
1.40001
1.40001
1.40001
1.40001
1.40001
1.40001
1.40001
1.40001
1.40001
1.40001
1.40001
1.40001
1.40001
1.40001
1.40001
1.40001
1.40001
1.40001
1.40001
1.40001
1.40001
1.40001
1.40001
1.40001
1.40001
1.40001
1.52769
4.33559
5.36244
5.35363
5.36124
5.3737
5.38355
5.39187
5.39904
5.40651
5.41467
5.4234
5.4322
5.44008
5.44613
5.45019
5.4525
5.45392
5.45461
5.45431
5.45355
5.45196
5.44986
5.44804
5.44696
5.44536
5.44117
5.43257
5.41959
5.40317
5.38487
5.36594
5.34649
5.3253
5.30072
5.27096
5.23503
5.19051
5.13545
5.06145
4.96209
4.81218
4.58416
4.18089
3.28827
1.40001
1.40001
1.40001
1.40001
1.40001
1.40001
1.40001
1.40001
1.40001
1.40001
1.40001
1.40001
1.40001
1.40001
1.40001
1.40001
1.40001
1.40001
1.40001
1.40001
1.40001
1.40001
1.40001
1.40001
1.40001
1.40001
1.40001
1.40001
1.40001
1.40001
1.40001
1.40001
1.40001
1.40001
1.40001
1.40001
1.40001
1.40001
1.40001
1.40001
1.40001
1.40001
1.40001
1.40001
1.40001
1.40001
1.40001
1.40001
1.40001
1.40001
1.40001
1.40078
3.17047
5.15206
5.31928
5.33488
5.35198
5.36012
5.36524
5.37019
5.37649
5.38346
5.39096
5.39877
5.40608
5.41184
5.41525
5.41621
5.41536
5.41336
5.41098
5.40853
5.40557
5.40127
5.396
5.39077
5.38536
5.37826
5.36746
5.35182
5.33125
5.3069
5.28028
5.25226
5.22173
5.18731
5.14558
5.09507
5.02997
4.94901
4.83848
4.69433
4.48427
4.21519
3.67447
2.91376
1.40001
1.40001
1.40001
1.40001
1.40001
1.40001
1.40001
1.40001
1.40001
1.40001
1.40001
1.40001
1.40001
1.40001
1.40001
1.40001
1.40001
1.40001
1.40001
1.40001
1.40001
1.40001
1.40001
1.40001
1.40001
1.40001
1.40001
1.40001
1.40001
1.40001
1.40001
1.40001
1.40001
1.40001
1.40001
1.40001
1.40001
1.40001
1.40001
1.40001
1.40001
1.40001
1.40001
1.40001
1.40001
1.40001
1.40001
1.40001
1.40001
1.40001
1.40001
1.4
1.90338
4.68042
5.34617
5.33564
5.34521
5.34923
5.35104
5.35406
5.35936
5.36484
5.37006
5.37502
5.37952
5.38312
5.38494
5.38427
5.38104
5.37585
5.37015
5.36484
5.35978
5.35318
5.34464
5.33492
5.32462
5.31329
5.29921
5.28046
5.25599
5.22658
5.19312
5.15705
5.11674
5.07181
5.0181
4.9542
4.87328
4.7724
4.64196
4.47083
4.25138
3.92539
3.48505
2.96361
1.40001
1.40001
1.40001
1.40001
1.40001
1.40001
1.40001
1.40001
1.40001
1.40001
1.40001
1.40001
1.40001
1.40001
1.40001
1.40001
1.40001
1.40001
1.40001
1.40001
1.40001
1.40001
1.40001
1.40001
1.40001
1.40001
1.40001
1.40001
1.40001
1.40001
1.40001
1.40001
1.40001
1.40001
1.40001
1.40001
1.40001
1.40001
1.40001
1.40001
1.40001
1.40001
1.40001
1.40001
1.40001
1.40001
1.40001
1.40001
1.40001
1.40001
1.40001
1.4
1.41956
3.50326
5.25416
5.30901
5.31845
5.32343
5.32711
5.33322
5.34099
5.34701
5.35083
5.35279
5.3536
5.35387
5.35365
5.35166
5.34689
5.33915
5.32963
5.32023
5.31158
5.30214
5.29102
5.27818
5.26402
5.24863
5.23054
5.20787
5.17907
5.14524
5.10639
5.06384
5.01513
4.96002
4.89545
4.82
4.72904
4.61748
4.47911
4.30292
4.08265
3.79357
3.44877
3.08076
1.40001
1.40001
1.40001
1.40001
1.40001
1.40001
1.40001
1.40001
1.40001
1.40001
1.40001
1.40001
1.40001
1.40001
1.40001
1.40001
1.40001
1.40001
1.40001
1.40001
1.40001
1.40001
1.40001
1.40001
1.40001
1.40001
1.40001
1.40001
1.40001
1.40001
1.40001
1.40001
1.40001
1.40001
1.40001
1.40001
1.40001
1.40001
1.40001
1.40001
1.40001
1.40001
1.40001
1.40001
1.40001
1.40001
1.40001
1.40001
1.40001
1.40001
1.40001
1.40001
1.4
2.03559
4.79426
5.32696
5.30483
5.30757
5.31063
5.31648
5.32464
5.33112
5.33439
5.33389
5.33001
5.32491
5.32042
5.31643
5.31154
5.30416
5.29358
5.28106
5.26756
5.25315
5.23803
5.22219
5.205
5.18621
5.16407
5.13714
5.10385
5.06574
5.02266
4.9754
4.92131
4.85903
4.78646
4.70242
4.60514
4.48937
4.35461
4.18242
3.98375
3.74312
3.46823
3.1843
1.40001
1.40001
1.40001
1.40001
1.40001
1.40001
1.40001
1.40001
1.40001
1.40001
1.40001
1.40001
1.40001
1.40001
1.40001
1.40001
1.40001
1.40001
1.40001
1.40001
1.40001
1.40001
1.40001
1.40001
1.40001
1.40001
1.40001
1.40001
1.40001
1.40001
1.40001
1.40001
1.40001
1.40001
1.40001
1.40001
1.40001
1.40001
1.40001
1.40001
1.40001
1.40001
1.40001
1.40001
1.40001
1.40001
1.40001
1.40001
1.40001
1.40001
1.40001
1.40001
1.4
1.42806
3.53217
5.23436
5.27587
5.28668
5.29089
5.29594
5.30285
5.30938
5.31322
5.31279
5.30766
5.2984
5.2885
5.28067
5.27442
5.26781
5.25819
5.24432
5.22665
5.20732
5.18762
5.16842
5.14826
5.12621
5.09998
5.0688
5.03153
4.98966
4.94321
4.89243
4.83532
4.76942
4.69261
4.60382
4.50305
4.38693
4.25716
4.09844
3.92541
3.72935
3.50375
3.2702
1.40001
1.40001
1.40001
1.40001
1.40001
1.40001
1.40001
1.40001
1.40001
1.40001
1.40001
1.40001
1.40001
1.40001
1.40001
1.40001
1.40001
1.40001
1.40001
1.40001
1.40001
1.40001
1.40001
1.40001
1.40001
1.40001
1.40001
1.40001
1.40001
1.40001
1.40001
1.40001
1.40001
1.40001
1.40001
1.40001
1.40001
1.40001
1.40001
1.40001
1.40001
1.40001
1.40001
1.40001
1.40001
1.40001
1.40001
1.40001
1.40001
1.40001
1.40001
1.40001
1.4
1.40002
1.96832
4.73137
5.28571
5.27473
5.27376
5.27304
5.275
5.27887
5.28226
5.28318
5.27993
5.26971
5.25555
5.24395
5.23522
5.22815
5.21908
5.20549
5.18669
5.16478
5.14142
5.11849
5.09495
5.06962
5.03972
5.00489
4.96463
4.91973
4.87023
4.81633
4.7572
4.6906
4.61396
4.5255
4.42541
4.31079
4.18557
4.04396
3.89111
3.72693
3.53525
3.34301
1.40001
1.40001
1.40001
1.40001
1.40001
1.40001
1.40001
1.40001
1.40001
1.40001
1.40001
1.40001
1.40001
1.40001
1.40001
1.40001
1.40001
1.40001
1.40001
1.40001
1.40001
1.40001
1.40001
1.40001
1.40001
1.40001
1.40001
1.40001
1.40001
1.40001
1.40001
1.40001
1.40001
1.40001
1.40001
1.40001
1.40001
1.40001
1.40001
1.40001
1.40001
1.40001
1.40001
1.40001
1.40001
1.40001
1.40001
1.40001
1.40001
1.40001
1.40001
1.40001
1.40001
1.40001
1.42061
3.31098
5.1346
5.23905
5.24323
5.24442
5.24852
5.25078
5.25233
5.2534
5.25165
5.2426
5.22812
5.21403
5.20137
5.1912
5.18004
5.16545
5.14598
5.12332
5.09846
5.07298
5.04633
5.01754
4.98413
4.94613
4.90371
4.85694
4.80528
4.74876
4.68753
4.62054
4.54588
4.46078
4.36599
4.25495
4.13742
4.00906
3.87162
3.72783
3.56388
3.40201
1.40001
1.40001
1.40001
1.40001
1.40001
1.40001
1.40001
1.40001
1.40001
1.40001
1.40001
1.40001
1.40001
1.40001
1.40001
1.40001
1.40001
1.40001
1.40001
1.40001
1.40001
1.40001
1.40001
1.40001
1.40001
1.40001
1.40001
1.40001
1.40001
1.40001
1.40001
1.40001
1.40001
1.40001
1.40001
1.40001
1.40001
1.40001
1.40001
1.40001
1.40001
1.40001
1.40001
1.40001
1.40001
1.40001
1.40001
1.40001
1.40001
1.40001
1.40001
1.40001
1.40001
1.40001
1.40001
1.70966
4.50673
5.27368
5.25059
5.23891
5.23274
5.22766
5.22313
5.21986
5.21582
5.20652
5.19336
5.1792
5.16572
5.15351
5.14015
5.12453
5.10533
5.08323
5.05791
5.03036
5.00057
4.96865
4.93271
4.89287
4.84933
4.80164
4.74892
4.69068
4.62768
4.55999
4.48766
4.40591
4.31782
4.21393
4.10754
3.98827
3.86396
3.73361
3.59296
3.44987
1.40001
1.40001
1.40001
1.40001
1.40001
1.40001
1.40001
1.40001
1.40001
1.40001
1.40001
1.40001
1.40001
1.40001
1.40001
1.40001
1.40001
1.40001
1.40001
1.40001
1.40001
1.40001
1.40001
1.40001
1.40001
1.40001
1.40001
1.40001
1.40001
1.40001
1.40001
1.40001
1.40001
1.40001
1.40001
1.40001
1.40001
1.40001
1.40001
1.40001
1.40001
1.40001
1.40001
1.40001
1.40001
1.40001
1.40001
1.40001
1.40001
1.40001
1.40001
1.40001
1.40001
1.40001
1.40001
1.40513
2.89489
5.01887
5.17897
5.19042
5.19918
5.19646
5.18829
5.17899
5.17363
5.1671
5.15775
5.14566
5.13149
5.11677
5.10011
5.08232
5.06363
5.04198
5.01651
4.98796
4.95602
4.92208
4.88451
4.84386
4.80014
4.75248
4.70027
4.64192
4.57868
4.51024
4.439
4.35861
4.27574
4.18119
4.08521
3.97505
3.86478
3.74563
3.62251
3.49146
1.40001
1.40001
1.40001
1.40001
1.40001
1.40001
1.40001
1.40001
1.40001
1.40001
1.40001
1.40001
1.40001
1.40001
1.40001
1.40001
1.40001
1.40001
1.40001
1.40001
1.40001
1.40001
1.40001
1.40001
1.40001
1.40001
1.40001
1.40001
1.40001
1.40001
1.40001
1.40001
1.40001
1.40001
1.40001
1.40001
1.40001
1.40001
1.40001
1.40001
1.40001
1.40001
1.40001
1.40001
1.40001
1.40001
1.40001
1.40001
1.40001
1.40001
1.40001
1.40001
1.40001
1.40001
1.40001
1.40001
1.54422
3.93437
5.16143
5.18008
5.1787
5.17564
5.16773
5.15319
5.14255
5.13683
5.12863
5.11755
5.10263
5.08555
5.06577
5.04528
5.02617
5.00476
4.97841
4.94877
4.91566
4.88018
4.84122
4.80039
4.75694
4.70951
4.65795
4.60036
4.53958
4.47066
4.39973
4.32107
4.24145
4.15479
4.06624
3.96654
3.869
3.75931
3.64924
3.52954
1.40001
1.40001
1.40001
1.40001
1.40001
1.40001
1.40001
1.40001
1.40001
1.40001
1.40001
1.40001
1.40001
1.40001
1.40001
1.40001
1.40001
1.40001
1.40001
1.40001
1.40001
1.40001
1.40001
1.40001
1.40001
1.40001
1.40001
1.40001
1.40001
1.40001
1.40001
1.40001
1.40001
1.40001
1.40001
1.40001
1.40001
1.40001
1.40001
1.40001
1.40001
1.40001
1.40001
1.40001
1.40001
1.40001
1.40001
1.40001
1.40001
1.40001
1.40001
1.40001
1.40001
1.40001
1.40001
1.40001
1.401
2.06039
4.7202
5.18506
5.15371
5.15732
5.15052
5.13424
5.11738
5.10768
5.09841
5.08745
5.07269
5.05444
5.03307
5.01064
4.98967
4.96716
4.93953
4.90872
4.87551
4.83968
4.80053
4.76018
4.71703
4.67031
4.61915
4.56372
4.5056
4.4383
4.36872
4.29393
4.21598
4.1351
4.05137
3.96197
3.87262
3.77144
3.67259
3.56439
1.40001
1.40001
1.40001
1.40001
1.40001
1.40001
1.40001
1.40001
1.40001
1.40001
1.40001
1.40001
1.40001
1.40001
1.40001
1.40001
1.40001
1.40001
1.40001
1.40001
1.40001
1.40001
1.40001
1.40001
1.40001
1.40001
1.40001
1.40001
1.40001
1.40001
1.40001
1.40001
1.40001
1.40001
1.40001
1.40001
1.40001
1.40001
1.40001
1.40001
1.40001
1.40001
1.40001
1.40001
1.40001
1.40001
1.40001
1.40001
1.40001
1.40001
1.40001
1.40001
1.40001
1.40001
1.40001
1.40001
1.40001
1.42581
3.0467
5.0309
5.13744
5.13782
5.13187
5.11629
5.10035
5.08734
5.07341
5.0585
5.04241
5.02412
5.00289
4.98043
4.95687
4.93302
4.904
4.87162
4.83778
4.80258
4.76477
4.72527
4.68304
4.63758
4.58727
4.53276
4.4744
4.4111
4.34408
4.27414
4.19858
4.1227
4.04266
3.96085
3.8755
3.78347
3.69307
3.59465
1.40001
1.40001
1.40001
1.40001
1.40001
1.40001
1.40001
1.40001
1.40001
1.40001
1.40001
1.40001
1.40001
1.40001
1.40001
1.40001
1.40001
1.40001
1.40001
1.40001
1.40001
1.40001
1.40001
1.40001
1.40001
1.40001
1.40001
1.40001
1.40001
1.40001
1.40001
1.40001
1.40001
1.40001
1.40001
1.40001
1.40001
1.40001
1.40001
1.40001
1.40001
1.40001
1.40001
1.40001
1.40001
1.40001
1.40001
1.40001
1.40001
1.40001
1.40001
1.40001
1.40001
1.40001
1.40001
1.40001
1.40001
1.40005
1.56662
3.74625
5.0807
5.13374
5.12526
5.11385
5.09738
5.07934
5.06007
5.03925
5.01878
4.99851
4.97697
4.95387
4.92874
4.90301
4.8739
4.84008
4.80471
4.76892
4.73221
4.69326
4.65273
4.6078
4.55788
4.50439
4.44778
4.38768
4.32372
4.25793
4.18611
4.11474
4.03873
3.96262
3.8811
3.79777
3.71207
3.62118
1.40001
1.40001
1.40001
1.40001
1.40001
1.40001
1.40001
1.40001
1.40001
1.40001
1.40001
1.40001
1.40001
1.40001
1.40001
1.40001
1.40001
1.40001
1.40001
1.40001
1.40001
1.40001
1.40001
1.40001
1.40001
1.40001
1.40001
1.40001
1.40001
1.40001
1.40001
1.40001
1.40001
1.40001
1.40001
1.40001
1.40001
1.40001
1.40001
1.40001
1.40001
1.40001
1.40001
1.40001
1.40001
1.40001
1.40001
1.40001
1.40001
1.40001
1.40001
1.40001
1.40001
1.40001
1.40001
1.40001
1.40001
1.40001
1.40146
1.7838
4.42905
5.161
5.12987
5.11175
5.08663
5.06274
5.03901
5.01631
4.99428
4.97322
4.95259
4.92993
4.90401
4.87669
4.84769
4.81343
4.77689
4.73948
4.70248
4.66458
4.62474
4.58111
4.53301
4.48145
4.42684
4.36912
4.3081
4.24472
4.17664
4.10875
4.03738
3.96603
3.88958
3.81261
3.73069
3.64629
1.40001
1.40001
1.40001
1.40001
1.40001
1.40001
1.40001
1.40001
1.40001
1.40001
1.40001
1.40001
1.40001
1.40001
1.40001
1.40001
1.40001
1.40001
1.40001
1.40001
1.40001
1.40001
1.40001
1.40001
1.40001
1.40001
1.40001
1.40001
1.40001
1.40001
1.40001
1.40001
1.40001
1.40001
1.40001
1.40001
1.40001
1.40001
1.40001
1.40001
1.40001
1.40001
1.40001
1.40001
1.40001
1.40001
1.40001
1.40001
1.40001
1.40001
1.40001
1.40001
1.40001
1.40001
1.40001
1.40001
1.40001
1.40001
1.40001
1.40797
2.49465
4.87483
5.1064
5.07167
5.05178
5.03337
5.01514
4.99526
4.97495
4.95369
4.93198
4.90972
4.88329
4.85521
4.82606
4.79196
4.75543
4.71678
4.67786
4.63959
4.60018
4.55727
4.51101
4.46122
4.40881
4.35338
4.29519
4.23376
4.16889
4.10361
4.03695
3.96976
3.89902
3.82713
3.74937
3.67052
1.40001
1.40001
1.40001
1.40001
1.40001
1.40001
1.40001
1.40001
1.40001
1.40001
1.40001
1.40001
1.40001
1.40001
1.40001
1.40001
1.40001
1.40001
1.40001
1.40001
1.40001
1.40001
1.40001
1.40001
1.40001
1.40001
1.40001
1.40001
1.40001
1.40001
1.40001
1.40001
1.40001
1.40001
1.40001
1.40001
1.40001
1.40001
1.40001
1.40001
1.40001
1.40001
1.40001
1.40001
1.40001
1.40001
1.40001
1.40001
1.40001
1.40001
1.40001
1.40001
1.40001
1.40001
1.40001
1.40001
1.40001
1.40001
1.40001
1.40002
1.46944
3.1507
4.97841
5.03859
5.02062
5.01771
5.00733
4.9917
4.97215
4.95014
4.92582
4.9015
4.87367
4.84412
4.81278
4.77751
4.74011
4.70072
4.66009
4.62057
4.58045
4.53787
4.49245
4.44396
4.39336
4.34
4.2843
4.22522
4.1633
4.10049
4.03769
3.97337
3.90727
3.83953
3.76638
3.69289
1.40001
1.40001
1.40001
1.40001
1.40001
1.40001
1.40001
1.40001
1.40001
1.40001
1.40001
1.40001
1.40001
1.40001
1.40001
1.40001
1.40001
1.40001
1.40001
1.40001
1.40001
1.40001
1.40001
1.40001
1.40001
1.40001
1.40001
1.40001
1.40001
1.40001
1.40001
1.40001
1.40001
1.40001
1.40001
1.40001
1.40001
1.40001
1.40001
1.40001
1.40001
1.40001
1.40001
1.40001
1.40001
1.40001
1.40001
1.40001
1.40001
1.40001
1.40001
1.40001
1.40001
1.40001
1.40001
1.40001
1.40001
1.40001
1.40001
1.40001
1.40034
1.58719
3.5467
4.97828
5.00569
5.00243
4.99711
4.98486
4.96766
4.94619
4.92152
4.89501
4.86609
4.83493
4.80166
4.76564
4.7279
4.68858
4.64777
4.60741
4.56674
4.52359
4.47778
4.43024
4.38101
4.32913
4.27498
4.21806
4.15871
4.09859
4.03866
3.97679
3.91442
3.85042
3.78205
3.71332
1.40001
1.40001
1.40001
1.40001
1.40001
1.40001
1.40001
1.40001
1.40001
1.40001
1.40001
1.40001
1.40001
1.40001
1.40001
1.40001
1.40001
1.40001
1.40001
1.40001
1.40001
1.40001
1.40001
1.40001
1.40001
1.40001
1.40001
1.40001
1.40001
1.40001
1.40001
1.40001
1.40001
1.40001
1.40001
1.40001
1.40001
1.40001
1.40001
1.40001
1.40001
1.40001
1.40001
1.40001
1.40001
1.40001
1.40001
1.40001
1.40001
1.40001
1.40001
1.40001
1.40001
1.40001
1.40001
1.40001
1.40001
1.40001
1.40001
1.40001
1.40001
1.40197
1.70705
3.85701
5.00572
5.00478
4.99074
4.97527
4.95733
4.93606
4.91271
4.8876
4.85923
4.82805
4.79416
4.75803
4.72027
4.68117
4.64098
4.60062
4.55981
4.51667
4.47024
4.4227
4.37405
4.32297
4.26968
4.21439
4.15684
4.09856
4.04042
3.98073
3.92134
3.86095
3.79721
3.73269
1.40001
1.40001
1.40001
1.40001
1.40001
1.40001
1.40001
1.40001
1.40001
1.40001
1.40001
1.40001
1.40001
1.40001
1.40001
1.40001
1.40001
1.40001
1.40001
1.40001
1.40001
1.40001
1.40001
1.40001
1.40001
1.40001
1.40001
1.40001
1.40001
1.40001
1.40001
1.40001
1.40001
1.40001
1.40001
1.40001
1.40001
1.40001
1.40001
1.40001
1.40001
1.40001
1.40001
1.40001
1.40001
1.40001
1.40001
1.40001
1.40001
1.40001
1.40001
1.40001
1.40001
1.40001
1.40001
1.40001
1.40001
1.40001
1.40001
1.40001
1.40001
1.40001
1.40515
1.8346
4.13621
5.00878
4.99446
4.97239
4.94958
4.92647
4.90235
4.87696
4.8489
4.81807
4.78521
4.7502
4.71338
4.67532
4.63624
4.59643
4.55566
4.51289
4.46729
4.42006
4.37162
4.3209
4.26798
4.21361
4.15696
4.09976
4.04332
3.98583
3.92889
3.87201
3.81214
3.75118
1.40001
1.40001
1.40001
1.40001
1.40001
1.40001
1.40001
1.40001
1.40001
1.40001
1.40001
1.40001
1.40001
1.40001
1.40001
1.40001
1.40001
1.40001
1.40001
1.40001
1.40001
1.40001
1.40001
1.40001
1.40001
1.40001
1.40001
1.40001
1.40001
1.40001
1.40001
1.40001
1.40001
1.40001
1.40001
1.40001
1.40001
1.40001
1.40001
1.40001
1.40001
1.40001
1.40001
1.40001
1.40001
1.40001
1.40001
1.40001
1.40001
1.40001
1.40001
1.40001
1.40001
1.40001
1.40001
1.40001
1.40001
1.40001
1.40001
1.40001
1.40001
1.40001
1.40002
1.41021
1.97984
4.33721
5.01186
4.98834
4.96133
4.93301
4.90481
4.87469
4.84328
4.81113
4.77799
4.74338
4.70744
4.67056
4.63274
4.59385
4.55352
4.51121
4.46677
4.42046
4.3725
4.32217
4.26959
4.21587
4.16043
4.10495
4.05014
3.9946
3.93939
3.8852
3.82792
3.7691
1.40001
1.40001
1.40001
1.40001
1.40001
1.40001
1.40001
1.40001
1.40001
1.40001
1.40001
1.40001
1.40001
1.40001
1.40001
1.40001
1.40001
1.40001
1.40001
1.40001
1.40001
1.40001
1.40001
1.40001
1.40001
1.40001
1.40001
1.40001
1.40001
1.40001
1.40001
1.40001
1.40001
1.40001
1.40001
1.40001
1.40001
1.40001
1.40001
1.40001
1.40001
1.40001
1.40001
1.40001
1.40001
1.40001
1.40001
1.40001
1.40001
1.40001
1.40001
1.40001
1.40001
1.40001
1.40001
1.40001
1.40001
1.40001
1.40001
1.40001
1.40001
1.40001
1.40001
1.40003
1.41816
2.11764
4.48204
5.01328
4.98696
4.95355
4.91747
4.8819
4.84766
4.81319
4.77725
4.74067
4.70421
4.6674
4.62976
4.59102
4.55068
4.50885
4.4654
4.42025
4.37354
4.3246
4.2734
4.22118
4.16783
4.11427
4.06092
4.0067
3.95246
3.89976
3.84446
3.787
1.40001
1.40001
1.40001
1.40001
1.40001
1.40001
1.40001
1.40001
1.40001
1.40001
1.40001
1.40001
1.40001
1.40001
1.40001
1.40001
1.40001
1.40001
1.40001
1.40001
1.40001
1.40001
1.40001
1.40001
1.40001
1.40001
1.40001
1.40001
1.40001
1.40001
1.40001
1.40001
1.40001
1.40001
1.40001
1.40001
1.40001
1.40001
1.40001
1.40001