/*--------------------------------*- C++ -*----------------------------------*\
  =========                 |
  \\      /  F ield         | OpenFOAM: The Open Source CFD Toolbox
   \\    /   O peration     | Website:  https://openfoam.org
    \\  /    A nd           | Version:  7
     \\/     M anipulation  |
\*---------------------------------------------------------------------------*/
FoamFile
{
    version     2.0;
    format      ascii;
    class       volScalarField;
    location    "4.7";
    object      T;
}
// * * * * * * * * * * * * * * * * * * * * * * * * * * * * * * * * * * * * * //

dimensions      [0 0 0 1 0 0 0];

internalField   nonuniform List<scalar> 
19968
(
1
1
1
1
1
1
1
1
1
1
1
1
1
1
1
1
1
1
1
1
1
1
1
1
1
1
1
1
1
1
1
1
1
1
1
1
1
1
1
1
1
1
1
1
1
1
1
1
1.26406
2.45685
2.68982
2.68894
2.69382
2.69955
2.70599
2.71185
2.71664
2.7203
2.72307
2.72543
2.7279
2.73086
2.73454
2.73892
2.74358
2.74782
2.75114
2.75363
2.75576
2.75811
2.76103
2.7645
2.7682
2.77164
2.77454
2.7769
2.77892
2.7808
2.78268
2.7846
2.78657
2.78853
2.79039
2.79205
2.7935
2.79483
2.79616
2.79758
2.79906
2.80052
2.8018
2.80281
2.80353
2.80397
2.80418
2.80419
1
1
1
1
1
1
1
1
1
1
1
1
1
1
1
1
1
1
1
1
1
1
1
1
1
1
1
1
1
1
1
1
1
1
1
1
1
1
1
1
1
1
1
1
1
1
1
1
1.24904
2.44745
2.68859
2.68943
2.69409
2.69978
2.70603
2.71174
2.71646
2.7201
2.72288
2.72524
2.72772
2.73071
2.73445
2.73888
2.74354
2.74774
2.75102
2.75346
2.75555
2.75786
2.76071
2.76412
2.76776
2.77117
2.77409
2.77651
2.7786
2.78053
2.78242
2.78433
2.78628
2.78822
2.79007
2.79173
2.79318
2.7945
2.79581
2.79719
2.79864
2.80005
2.8013
2.8023
2.80304
2.8035
2.80375
2.80381
1
1
1
1
1
1
1
1
1
1
1
1
1
1
1
1
1
1
1
1
1
1
1
1
1
1
1
1
1
1
1
1
1
1
1
1
1
1
1
1
1
1
1
1
1
1
1
1
1.21603
2.42654
2.68762
2.68943
2.69438
2.69979
2.70561
2.71104
2.71567
2.71936
2.72223
2.72466
2.72723
2.73028
2.7341
2.73857
2.74323
2.74738
2.75063
2.75306
2.75515
2.75742
2.7602
2.76349
2.76701
2.77037
2.77331
2.77581
2.77801
2.78003
2.78197
2.78389
2.78581
2.78772
2.78955
2.7912
2.79264
2.79396
2.79525
2.79659
2.79798
2.79933
2.80053
2.80152
2.80227
2.80277
2.80308
2.8032
1
1
1
1
1
1
1
1
1
1
1
1
1
1
1
1
1
1
1
1
1
1
1
1
1
1
1
1
1
1
1
1
1
1
1
1
1
1
1
1
1
1
1
1
1
1
1
1
1.16786
2.39441
2.68627
2.68965
2.69464
2.69967
2.70489
2.70993
2.71447
2.71827
2.72133
2.72392
2.72665
2.72979
2.73365
2.7381
2.74269
2.74676
2.74998
2.75244
2.75456
2.75681
2.75949
2.76261
2.76597
2.76923
2.77217
2.77477
2.7771
2.77924
2.78125
2.78318
2.78508
2.78695
2.78875
2.79037
2.79181
2.79309
2.79433
2.79559
2.79687
2.79812
2.79924
2.80021
2.801
2.80158
2.80197
2.80217
1
1
1
1
1
1
1
1
1
1
1
1
1
1
1
1
1
1
1
1
1
1
1
1
1
1
1
1
1
1
1
1
1
1
1
1
1
1
1
1
1
1
1
1
1
1
1
1
1.10249
2.35115
2.68525
2.69
2.69474
2.6994
2.70408
2.70876
2.7132
2.71713
2.72044
2.7233
2.72623
2.72945
2.73327
2.73755
2.74194
2.74587
2.74911
2.7517
2.75394
2.75623
2.7588
2.76171
2.76483
2.76793
2.77085
2.77352
2.77598
2.77824
2.78032
2.78228
2.78417
2.78602
2.7878
2.78942
2.79084
2.7921
2.79327
2.7944
2.79552
2.79658
2.79756
2.79844
2.79921
2.79984
2.80028
2.80054
1
1
1
1
1
1
1
1
1
1
1
1
1
1
1
1
1
1
1
1
1
1
1
1
1
1
1
1
1
1
1
1
1
1
1
1
1
1
1
1
1
1
1
1
1
1
1
1
1.00371
2.28555
2.68268
2.69016
2.69478
2.69949
2.70373
2.70799
2.71223
2.71627
2.71993
2.72321
2.72636
2.72961
2.73327
2.73715
2.7411
2.74473
2.7479
2.75063
2.75305
2.75542
2.75787
2.7605
2.76329
2.76615
2.76896
2.77164
2.77415
2.77648
2.77861
2.78059
2.78247
2.7843
2.78606
2.78768
2.78912
2.79038
2.79151
2.79256
2.79357
2.79452
2.79544
2.79631
2.79713
2.79783
2.79835
2.79868
1
1
1
1
1
1
1
1
1
1
1
1
1
1
1
1
1
1
1
1
1
1
1
1
1
1
1
1
1
1
1
1
1
1
1
1
1
1
1
1
1
1
1
1
1
1
1
1
1.00001
2.19573
2.67794
2.68844
2.69234
2.69698
2.70086
2.70486
2.70896
2.7131
2.7171
2.72085
2.72436
2.72778
2.73137
2.7349
2.73843
2.74179
2.74496
2.74796
2.75072
2.75333
2.75581
2.75828
2.76083
2.7635
2.76622
2.76891
2.77147
2.77385
2.77602
2.77802
2.77992
2.78177
2.78355
2.78521
2.78667
2.78792
2.78901
2.78997
2.79086
2.79172
2.79258
2.79345
2.79431
2.79509
2.79567
2.79608
1
1
1
1
1
1
1
1
1
1
1
1
1
1
1
1
1
1
1
1
1
1
1
1
1
1
1
1
1
1
1
1
1
1
1
1
1
1
1
1
1
1
1
1
1
1
1
1
1
2.0682
2.66707
2.6842
2.68796
2.69294
2.69724
2.70161
2.70581
2.70999
2.71407
2.71798
2.72171
2.72531
2.72889
2.73224
2.73551
2.73867
2.74181
2.74499
2.74805
2.75088
2.75343
2.75579
2.75815
2.76064
2.76327
2.76594
2.76852
2.77091
2.77306
2.77502
2.77689
2.77872
2.78051
2.78219
2.78366
2.78488
2.78589
2.78675
2.78754
2.78831
2.78913
2.78999
2.79088
2.79172
2.79233
2.79279
1
1
1
1
1
1
1
1
1
1
1
1
1
1
1
1
1
1
1
1
1
1
1
1
1
1
1
1
1
1
1
1
1
1
1
1
1
1
1
1
1
1
1
1
1
1
1
1
1
1.89477
2.63737
2.67658
2.68127
2.68692
2.69186
2.69669
2.7011
2.7054
2.70956
2.71357
2.71744
2.72123
2.72495
2.72831
2.73148
2.73455
2.73763
2.74086
2.74409
2.74707
2.74973
2.75204
2.75429
2.75666
2.75922
2.76187
2.76445
2.76681
2.76891
2.77081
2.77261
2.7744
2.77617
2.77784
2.77931
2.78052
2.78149
2.78232
2.78309
2.78386
2.78469
2.78558
2.78649
2.78736
2.78798
2.78846
1
1
1
1
1
1
1
1
1
1
1
1
1
1
1
1
1
1
1
1
1
1
1
1
1
1
1
1
1
1
1
1
1
1
1
1
1
1
1
1
1
1
1
1
1
1
1
1
1
1.6671
2.57939
2.67034
2.67615
2.68172
2.68646
2.69118
2.69561
2.69999
2.70422
2.70828
2.71223
2.71621
2.72013
2.72362
2.72683
2.72988
2.7329
2.73605
2.7393
2.74235
2.74512
2.74745
2.74966
2.75193
2.75439
2.75695
2.75945
2.76172
2.76372
2.7655
2.7672
2.76892
2.77066
2.77233
2.77379
2.775
2.77596
2.77677
2.77751
2.77825
2.77904
2.77988
2.78073
2.78154
2.7821
2.78253
1
1
1
1
1
1
1
1
1
1
1
1
1
1
1
1
1
1
1
1
1
1
1
1
1
1
1
1
1
1
1
1
1
1
1
1
1
1
1
1
1
1
1
1
1
1
1
1
1
1.34867
2.46641
2.67263
2.67217
2.67702
2.68113
2.68559
2.69002
2.69437
2.69857
2.70259
2.70655
2.71062
2.71469
2.71833
2.72156
2.72456
2.72747
2.73046
2.73364
2.73671
2.73958
2.74206
2.74433
2.74657
2.74895
2.7514
2.75377
2.75591
2.75776
2.75935
2.76082
2.76229
2.76378
2.76521
2.76648
2.76753
2.76839
2.76916
2.76992
2.77071
2.77155
2.77243
2.77329
2.77408
2.77461
2.77499
1
1
1
1
1
1
1
1
1
1
1
1
1
1
1
1
1
1
1
1
1
1
1
1
1
1
1
1
1
1
1
1
1
1
1
1
1
1
1
1
1
1
1
1
1
1
1
1
1
1.01331
2.28205
2.67855
2.67763
2.67877
2.68117
2.68417
2.68753
2.69106
2.69474
2.69839
2.70198
2.70562
2.70927
2.71257
2.71548
2.71818
2.7208
2.72343
2.7263
2.72926
2.73208
2.73469
2.73699
2.73921
2.74148
2.74381
2.74609
2.74817
2.74996
2.75149
2.75285
2.75417
2.75549
2.75677
2.75792
2.75888
2.75967
2.76035
2.76096
2.76152
2.76204
2.76252
2.76298
2.76339
2.76362
2.76379
1
1
1
1
1
1
1
1
1
1
1
1
1
1
1
1
1
1
1
1
1
1
1
1
1
1
1
1
1
1
1
1
1
1
1
1
1
1
1
1
1
1
1
1
1
1
1
1
1
1.00002
1.99682
2.64715
2.66306
2.66629
2.67088
2.67502
2.67893
2.68266
2.68635
2.68996
2.69344
2.69686
2.70023
2.70338
2.70618
2.70873
2.7112
2.71369
2.71638
2.71932
2.72221
2.72494
2.72732
2.72952
2.73168
2.73386
2.73601
2.738
2.73975
2.7412
2.74244
2.74354
2.74457
2.74549
2.74623
2.74673
2.74705
2.74726
2.74745
2.74768
2.74798
2.74838
2.74876
2.74903
2.74904
2.74906
1
1
1
1
1
1
1
1
1
1
1
1
1
1
1
1
1
1
1
1
1
1
1
1
1
1
1
1
1
1
1
1
1
1
1
1
1
1
1
1
1
1
1
1
1
1
1
1
1
1
1.5206
2.51064
2.64767
2.65387
2.66112
2.66635
2.67106
2.67551
2.67969
2.68355
2.68703
2.69025
2.6933
2.69617
2.69875
2.70106
2.70324
2.70546
2.70779
2.71037
2.713
2.71546
2.71761
2.71952
2.72134
2.72313
2.72488
2.72652
2.72796
2.72913
2.73003
2.73076
2.7314
2.73195
2.7323
2.73244
2.73242
2.73235
2.73223
2.73201
2.73152
2.73071
2.72923
2.72706
2.72447
2.72227
1
1
1
1
1
1
1
1
1
1
1
1
1
1
1
1
1
1
1
1
1
1
1
1
1
1
1
1
1
1
1
1
1
1
1
1
1
1
1
1
1
1
1
1
1
1
1
1
1
1
1.02498
2.24052
2.65681
2.65535
2.65616
2.65855
2.66184
2.66598
2.67036
2.67444
2.67796
2.68097
2.68368
2.68625
2.68868
2.6909
2.69296
2.69501
2.69705
2.69917
2.70139
2.70347
2.70529
2.70681
2.70821
2.70955
2.71092
2.7122
2.71308
2.71372
2.71402
2.71407
2.7141
2.71402
2.71361
2.71279
2.71154
2.70989
2.70773
2.70493
2.7015
2.69768
2.6942
2.69075
2.6885
2.68728
1
1
1
1
1
1
1
1
1
1
1
1
1
1
1
1
1
1
1
1
1
1
1
1
1
1
1
1
1
1
1
1
1
1
1
1
1
1
1
1
1
1
1
1
1
1
1
1
1
1
1.00004
1.74146
2.55566
2.63363
2.63897
2.6432
2.64752
2.65229
2.65709
2.66143
2.66515
2.66834
2.67126
2.67409
2.6768
2.67927
2.68143
2.68339
2.68527
2.68711
2.68892
2.69056
2.69182
2.69271
2.69347
2.69436
2.69528
2.69582
2.69602
2.6958
2.69511
2.69408
2.69293
2.69163
2.68999
2.68785
2.68512
2.68176
2.67771
2.6729
2.66721
2.66107
2.65531
2.65316
2.65081
2.66563
1
1
1
1
1
1
1
1
1
1
1
1
1
1
1
1
1
1
1
1
1
1
1
1
1
1
1
1
1
1
1
1
1
1
1
1
1
1
1
1
1
1
1
1
1
1
1
1
1
1
1
1.0905
2.33647
2.6337
2.6316
2.63361
2.63753
2.64187
2.64632
2.65044
2.65406
2.65715
2.65995
2.66269
2.66538
2.66786
2.67005
2.67195
2.67375
2.67543
2.67683
2.67804
2.67883
2.67915
2.6793
2.67954
2.67974
2.67975
2.67942
2.67839
2.67661
2.67431
2.67171
2.66884
2.66556
2.66163
2.65672
2.65049
2.6423
2.63157
2.61641
2.59552
2.56509
2.52277
2.46022
2.33555
1
1
1
1
1
1
1
1
1
1
1
1
1
1
1
1
1
1
1
1
1
1
1
1
1
1
1
1
1
1
1
1
1
1
1
1
1
1
1
1
1
1
1
1
1
1
1
1
1
1
1
1.00063
1.99062
2.59289
2.61412
2.61916
2.62495
2.62965
2.63382
2.63773
2.64131
2.64437
2.64722
2.65015
2.65321
2.65614
2.65868
2.66074
2.66241
2.66379
2.66507
2.66628
2.66707
2.6671
2.66676
2.66623
2.66578
2.6653
2.6644
2.6627
2.66006
2.65662
2.65257
2.64803
2.64288
2.63697
2.62965
2.62054
2.60825
2.59223
2.56938
2.53856
2.49349
2.43715
2.32457
2.16299
1
1
1
1
1
1
1
1
1
1
1
1
1
1
1
1
1
1
1
1
1
1
1
1
1
1
1
1
1
1
1
1
1
1
1
1
1
1
1
1
1
1
1
1
1
1
1
1
1
1
1
0.999999
1.35388
2.41111
2.60015
2.60436
2.6107
2.61659
2.62177
2.6261
2.62961
2.63239
2.63501
2.63786
2.64103
2.64428
2.64716
2.64933
2.65081
2.65186
2.6528
2.65375
2.65446
2.65444
2.65383
2.65269
2.65149
2.65026
2.64864
2.64621
2.64274
2.63827
2.63283
2.62665
2.61947
2.61133
2.60146
2.58953
2.57393
2.55369
2.52649
2.48939
2.4406
2.36573
2.26033
2.129
1
1
1
1
1
1
1
1
1
1
1
1
1
1
1
1
1
1
1
1
1
1
1
1
1
1
1
1
1
1
1
1
1
1
1
1
1
1
1
1
1
1
1
1
1
1
1
1
1
1
1
1
1.01208
2.0963
2.59536
2.59451
2.59674
2.60204
2.60792
2.61294
2.61671
2.61939
2.62177
2.62444
2.62763
2.63105
2.63421
2.63666
2.63819
2.63893
2.63933
2.63977
2.64018
2.64017
2.63962
2.63834
2.63668
2.6348
2.63242
2.62922
2.62488
2.6195
2.61293
2.60537
2.59636
2.58596
2.57364
2.55906
2.54114
2.51847
2.48934
2.45076
2.40074
2.33189
2.24466
2.14824
1
1
1
1
1
1
1
1
1
1
1
1
1
1
1
1
1
1
1
1
1
1
1
1
1
1
1
1
1
1
1
1
1
1
1
1
1
1
1
1
1
1
1
1
1
1
1
1
1
1
1
1
1.00001
1.42713
2.43047
2.58487
2.58802
2.59368
2.59823
2.60175
2.60458
2.60672
2.60876
2.61114
2.61372
2.61676
2.61987
2.62251
2.62427
2.62512
2.62535
2.62541
2.62534
2.62507
2.62436
2.62311
2.62133
2.61908
2.61609
2.61216
2.60701
2.60081
2.59339
2.58482
2.5746
2.56252
2.54825
2.53153
2.51191
2.48801
2.45941
2.42138
2.37583
2.31815
2.24893
2.17358
1
1
1
1
1
1
1
1
1
1
1
1
1
1
1
1
1
1
1
1
1
1
1
1
1
1
1
1
1
1
1
1
1
1
1
1
1
1
1
1
1
1
1
1
1
1
1
1
1
1
1
1
1
1.01714
2.09861
2.58391
2.58558
2.58751
2.58939
2.59123
2.59296
2.59448
2.59615
2.59828
2.60046
2.60291
2.60547
2.60766
2.60913
2.61
2.61028
2.61016
2.60976
2.60915
2.60824
2.60707
2.60533
2.60285
2.59932
2.59475
2.58898
2.58219
2.57422
2.56501
2.55415
2.5412
2.52579
2.5077
2.48693
2.46252
2.43467
2.3994
2.35963
2.31279
2.25662
2.19589
1
1
1
1
1
1
1
1
1
1
1
1
1
1
1
1
1
1
1
1
1
1
1
1
1
1
1
1
1
1
1
1
1
1
1
1
1
1
1
1
1
1
1
1
1
1
1
1
1
1
1
1
1
1.00002
1.38213
2.40629
2.57602
2.57839
2.58085
2.58182
2.58236
2.5829
2.58392
2.58579
2.58795
2.58984
2.59151
2.5928
2.59338
2.59377
2.59388
2.59375
2.59331
2.59261
2.59164
2.5905
2.58877
2.58612
2.58216
2.5771
2.57099
2.56388
2.55559
2.546
2.5349
2.52184
2.50635
2.48809
2.46711
2.44265
2.41542
2.38379
2.3487
2.3096
2.26229
2.21332
1
1
1
1
1
1
1
1
1
1
1
1
1
1
1
1
1
1
1
1
1
1
1
1
1
1
1
1
1
1
1
1
1
1
1
1
1
1
1
1
1
1
1
1
1
1
1
1
1
1
1
1
1
1
1.01268
2.02125
2.5576
2.56814
2.57068
2.57159
2.57245
2.57273
2.57344
2.57514
2.5774
2.57903
2.57998
2.58001
2.57947
2.57868
2.5778
2.57708
2.57636
2.57565
2.57478
2.57372
2.57196
2.56903
2.56463
2.55914
2.55285
2.5457
2.53741
2.52774
2.51661
2.50374
2.48878
2.47118
2.45118
2.42725
2.40147
2.37269
2.34115
2.30701
2.26691
2.22628
1
1
1
1
1
1
1
1
1
1
1
1
1
1
1
1
1
1
1
1
1
1
1
1
1
1
1
1
1
1
1
1
1
1
1
1
1
1
1
1
1
1
1
1
1
1
1
1
1
1
1
1
1
1
1.00001
1.2167
2.3433
2.56525
2.56224
2.56251
2.56264
2.56259
2.56286
2.56403
2.56602
2.5675
2.56792
2.56749
2.56632
2.56466
2.5627
2.56112
2.56002
2.55919
2.55823
2.55695
2.55483
2.55153
2.5468
2.54106
2.53469
2.52764
2.51958
2.51012
2.49921
2.48669
2.47258
2.45588
2.43739
2.41498
2.39163
2.36488
2.33637
2.30573
2.27169
2.2362
1
1
1
1
1
1
1
1
1
1
1
1
1
1
1
1
1
1
1
1
1
1
1
1
1
1
1
1
1
1
1
1
1
1
1
1
1
1
1
1
1
1
1
1
1
1
1
1
1
1
1
1
1
1
1
1.00328
1.83948
2.50267
2.53874
2.54477
2.54862
2.54952
2.54985
2.55056
2.55257
2.55482
2.55579
2.55546
2.55414
2.55187
2.54891
2.54634
2.54472
2.54341
2.54203
2.5403
2.53766
2.53398
2.52895
2.52301
2.51655
2.50958
2.50191
2.49294
2.48261
2.47058
2.45726
2.44127
2.42418
2.40402
2.38315
2.35857
2.33339
2.30574
2.27635
2.24426
1
1
1
1
1
1
1
1
1
1
1
1
1
1
1
1
1
1
1
1
1
1
1
1
1
1
1
1
1
1
1
1
1
1
1
1
1
1
1
1
1
1
1
1
1
1
1
1
1
1
1
1
1
1
1
1
1.09463
2.19658
2.53405
2.53591
2.53601
2.53624
2.53684
2.53722
2.53889
2.54209
2.54385
2.54387
2.54285
2.54046
2.53703
2.53375
2.53158
2.52972
2.52756
2.52509
2.52183
2.51764
2.51218
2.50599
2.49931
2.49217
2.48461
2.47603
2.46668
2.45515
2.44252
2.42746
2.41153
2.39347
2.37456
2.35265
2.33085
2.30563
2.27982
2.25095
1
1
1
1
1
1
1
1
1
1
1
1
1
1
1
1
1
1
1
1
1
1
1
1
1
1
1
1
1
1
1
1
1
1
1
1
1
1
1
1
1
1
1
1
1
1
1
1
1
1
1
1
1
1
1
1
1.00059
1.42205
2.35511
2.5142
2.51314
2.5169
2.51964
2.52145
2.52384
2.52764
2.53021
2.53083
2.53026
2.52829
2.52506
2.52166
2.51904
2.51667
2.51382
2.51063
2.50693
2.50237
2.49661
2.4902
2.48316
2.4757
2.46785
2.45956
2.45088
2.44002
2.42816
2.41448
2.39942
2.3831
2.36568
2.34653
2.32706
2.30433
2.28162
2.25613
1
1
1
1
1
1
1
1
1
1
1
1
1
1
1
1
1
1
1
1
1
1
1
1
1
1
1
1
1
1
1
1
1
1
1
1
1
1
1
1
1
1
1
1
1
1
1
1
1
1
1
1
1
1
1
1
1
1.01541
1.87342
2.46344
2.49646
2.50197
2.50498
2.50704
2.50995
2.51362
2.51579
2.51627
2.51598
2.51461
2.51208
2.50924
2.50646
2.50399
2.50085
2.49722
2.49321
2.48859
2.48294
2.47647
2.46923
2.46149
2.4532
2.44457
2.4355
2.42544
2.4143
2.402
2.38785
2.37305
2.35685
2.33983
2.32169
2.30164
2.28136
2.25892
1
1
1
1
1
1
1
1
1
1
1
1
1
1
1
1
1
1
1
1
1
1
1
1
1
1
1
1
1
1
1
1
1
1
1
1
1
1
1
1
1
1
1
1
1
1
1
1
1
1
1
1
1
1
1
1
1
1.00003
1.10986
2.10915
2.47301
2.49647
2.49655
2.49768
2.49915
2.50093
2.50178
2.50169
2.50109
2.4998
2.49786
2.49558
2.49309
2.49079
2.48809
2.48453
2.48046
2.47585
2.47048
2.46408
2.457
2.44895
2.44014
2.43105
2.42176
2.41196
2.40129
2.38991
2.37673
2.36316
2.34811
2.33269
2.31575
2.29815
2.2797
2.25951
1
1
1
1
1
1
1
1
1
1
1
1
1
1
1
1
1
1
1
1
1
1
1
1
1
1
1
1
1
1
1
1
1
1
1
1
1
1
1
1
1
1
1
1
1
1
1
1
1
1
1
1
1
1
1
1
1
1
1.00082
1.25652
2.25417
2.47889
2.47986
2.48268
2.48295
2.48365
2.48406
2.48414
2.48386
2.4831
2.48198
2.48044
2.47849
2.47661
2.47468
2.47177
2.46809
2.46362
2.45851
2.45253
2.44564
2.43772
2.42893
2.41973
2.41027
2.40044
2.38999
2.37889
2.36643
2.35362
2.33964
2.3254
2.30975
2.29382
2.27659
2.25847
1
1
1
1
1
1
1
1
1
1
1
1
1
1
1
1
1
1
1
1
1
1
1
1
1
1
1
1
1
1
1
1
1
1
1
1
1
1
1
1
1
1
1
1
1
1
1
1
1
1
1
1
1
1
1
1
1
1
1
1.00467
1.61934
2.36345
2.45833
2.45583
2.45787
2.46034
2.46258
2.46403
2.46487
2.46478
2.46435
2.46372
2.46251
2.46135
2.4603
2.45836
2.45553
2.45154
2.44659
2.44098
2.4345
2.42688
2.41846
2.40945
2.40013
2.39041
2.38021
2.36924
2.35728
2.3449
2.33186
2.31844
2.304
2.28919
2.27292
2.25636
1
1
1
1
1
1
1
1
1
1
1
1
1
1
1
1
1
1
1
1
1
1
1
1
1
1
1
1
1
1
1
1
1
1
1
1
1
1
1
1
1
1
1
1
1
1
1
1
1
1
1
1
1
1
1
1
1
1
1
1.00001
1.04202
1.88573
2.41404
2.44413
2.44259
2.44456
2.44608
2.44729
2.44798
2.44791
2.44752
2.44721
2.44653
2.44596
2.44539
2.44413
2.44198
2.43864
2.43409
2.42887
2.42283
2.41575
2.40783
2.39929
2.39045
2.38115
2.37141
2.36087
2.34947
2.33756
2.32527
2.31232
2.29872
2.28464
2.26922
2.25378
1
1
1
1
1
1
1
1
1
1
1
1
1
1
1
1
1
1
1
1
1
1
1
1
1
1
1
1
1
1
1
1
1
1
1
1
1
1
1
1
1
1
1
1
1
1
1
1
1
1
1
1
1
1
1
1
1
1
1
1
1.00016
1.1223
2.01059
2.41103
2.43418
2.43521
2.43591
2.43556
2.43505
2.43423
2.43319
2.43219
2.43126
2.4305
2.42977
2.42861
2.42678
2.42399
2.42005
2.41538
2.40995
2.40347
2.39612
2.38833
2.38026
2.3717
2.36265
2.35285
2.34225
2.33108
2.3195
2.30707
2.29418
2.28071
2.26609
2.2514
1
1
1
1
1
1
1
1
1
1
1
1
1
1
1
1
1
1
1
1
1
1
1
1
1
1
1
1
1
1
1
1
1
1
1
1
1
1
1
1
1
1
1
1
1
1
1
1
1
1
1
1
1
1
1
1
1
1
1
1
1
1.00106
1.20087
2.08761
2.39898
2.42697
2.42608
2.42535
2.4243
2.4229
2.42147
2.42012
2.41862
2.41713
2.41555
2.41371
2.41145
2.40857
2.40495
2.4007
2.39583
2.39004
2.38334
2.37635
2.36919
2.36155
2.35339
2.34461
2.33499
2.32467
2.31388
2.30219
2.29006
2.27733
2.2636
2.2496
1
1
1
1
1
1
1
1
1
1
1
1
1
1
1
1
1
1
1
1
1
1
1
1
1
1
1
1
1
1
1
1
1
1
1
1
1
1
1
1
1
1
1
1
1
1
1
1
1
1
1
1
1
1
1
1
1
1
1
1
1
1
1.00284
1.2788
2.14292
2.38743
2.40951
2.41125
2.41119
2.41079
2.40997
2.40879
2.40714
2.40511
2.40284
2.40022
2.3972
2.39382
2.39001
2.38576
2.38103
2.37567
2.36963
2.36334
2.35694
2.35019
2.34298
2.33525
2.32664
2.31737
2.30759
2.29687
2.28562
2.27387
2.26108
2.24785
1
1
1
1
1
1
1
1
1
1
1
1
1
1
1
1
1
1
1
1
1
1
1
1
1
1
1
1
1
1
1
1
1
1
1
1
1
1
1
1
1
1
1
1
1
1
1
1
1
1
1
1
1
1
1
1
1
1
1
1
1
1
1
1.0057
1.35926
2.1803
2.37372
2.38924
2.39339
2.39506
2.39578
2.39535
2.39434
2.39273
2.39049
2.38763
2.38427
2.38057
2.37653
2.37211
2.36723
2.36185
2.35608
2.35013
2.34417
2.33801
2.33152
2.32473
2.31723
2.30913
2.30043
2.29079
2.28046
2.26974
2.25787
2.24536
1
1
1
1
1
1
1
1
1
1
1
1
1
1
1
1
1
1
1
1
1
1
1
1
1
1
1
1
1
1
1
1
1
1
1
1
1
1
1
1
1
1
1
1
1
1
1
1
1
1
1
1
1
1
1
1
1
1
1
1
1
1
1
1.00001
1.01029
1.42886
2.20766
2.36108
2.37033
2.37387
2.37589
2.37729
2.37775
2.37727
2.37579
2.37354
2.37079
2.36753
2.36375
2.35941
2.35445
2.34904
2.34333
2.33751
2.33174
2.32589
2.31984
2.31363
2.30698
2.29979
2.292
2.28328
2.2738
2.26401
2.25313
2.24139
1
1
1
1
1
1
1
1
1
1
1
1
1
1
1
1
1
1
1
1
1
1
1
1
1
1
1
1
1
1
1
1
1
1
1
1
1
1
1
1
1
1
1
1
1
1
1
1
1
1
1
1
1
1
1
1
1
1
1
1
1
1
1
1
1.00002
1.01609
1.48744
2.22752
2.35178
2.3527
2.354
2.35548
2.35691
2.35767
2.35753
2.35686
2.35549
2.3533
2.35025
2.34634
2.34175
2.33669
2.33131
2.32575
2.32019
2.31454
2.30867
2.30268
2.29641
2.2897
2.28247
2.27443
2.26568
2.25665
2.24677
2.23585
1
1
1
1
1
1
1
1
1
1
1
1
1
1
1
1
1
1
1
1
1
1
1
1
1
1
1
1
1
1
1
1
1
1
1
1
1
1
1
1
1
1
1
1
1
1
1
1
1
1
1
1
1
1
1
1
1
1
1
1
1
1
1
1
1
1.00004
1.02265
1.54948
2.24178
2.33929
2.33773
2.33739
2.33718
2.33707
2.33716
2.3371
2.33676
2.33582
2.33403
2.33136
2.3279
2.32377
2.31915
2.31418
2.30901
2.30362
2.29795
2.29209
2.28602
2.27952
2.27253
2.26491
2.25667
2.24814
2.23902
2.22893
1
1
1
1
1
1
1
1
1
1
1
1
1
1
1
1
1
1
1
1
1
1
1
1
1
1
1
1
1
1
1
1
1
1
1
1
1
1
1
1
1
1
1
1
1
1
1
1
1
1
1
1
1
1
1
1
1
1
1
1
1
1
1
1
1
1
1.00007
1.03163
1.58036
2.24233
2.32792
2.32586
2.32345
2.32168
2.32018
2.31909
2.31818
2.31707
2.31572
2.31401
2.31172
2.30879
2.30529
2.30133
2.29696
2.29219
2.28701
2.28148
2.27564
2.26933
2.26252
2.25523
2.24739
2.23928
2.23068
2.22132
1
1
1
1
1
1
1
1
1
1
1
1
1
1
1
1
1
1
1
1
1
1
1
1
1
1
1
1
1
1
1
1
1
1
1
1
1
1
1
1
1
1
1
1
1
1
1
1
1
1
1
1
1
1
1
1
1
1
1
1
1
1
1
1
1
1
1
1.00013
1.03734
1.58215
2.23302
2.31732
2.31461
2.31144
2.30857
2.30586
2.30332
2.30081
2.29849
2.29635
2.29419
2.29183
2.28917
2.28614
2.28268
2.27876
2.27435
2.26951
2.26423
2.25844
2.25212
2.24531
2.23804
2.23046
2.22232
2.21371
1
1
1
1
1
1
1
1
1
1
1
1
1
1
1
1
1
1
1
1
1
1
1
1
1
1
1
1
1
1
1
1
1
1
1
1
1
1
1
1
1
1
1
1
1
1
1
1
1
1
1
1
1
1
1
1
1
1
1
1
1
1
1
1
1
1
1
1
1.00017
1.03806
1.57708
2.21548
2.30571
2.30374
2.29975
2.296
2.29212
2.28858
2.28523
2.28192
2.27878
2.27579
2.27293
2.27005
2.26694
2.26353
2.25979
2.25564
2.25107
2.24606
2.24055
2.23457
2.22814
2.22133
2.21398
2.20613
1
1
1
1
1
1
1
1
1
1
1
1
1
1
1
1
1
1
1
1
1
1
1
1
1
1
1
1
1
1
1
1
1
1
1
1
1
1
1
1
1
1
1
1
1
1
1
1
1
1
1
1
1
1
1
1
1
1
1
1
1
1
1
1
1
1
1
1
1
1.00017
1.03723
1.55348
2.18744
2.29307
2.29188
2.28786
2.28399
2.27974
2.27566
2.27163
2.26748
2.2634
2.25947
2.25567
2.25191
2.24815
2.24435
2.24041
2.23633
2.23197
2.22735
2.22236
2.21693
2.21116
2.20477
2.19797
1
1
1
1
1
1
1
1
1
1
1
1
1
1
1
1
1
1
1
1
1
1
1
1
1
1
1
1
1
1
1
1
1
1
1
1
1
1
1
1
1
1
1
1
1
1
1
1
1
1
1
1
1
1
1
1
1
1
1
1
1
1
1
1
1
1
1
1
1
1
1.00017
1.03326
1.51364
2.14495
2.27998
2.28012
2.27607
2.27255
2.26845
2.26393
2.25919
2.25446
2.2497
2.24484
2.24003
2.23541
2.23093
2.22659
2.22234
2.21809
2.21381
2.20936
2.20473
2.19981
2.19444
2.18878
1
1
1
1
1
1
1
1
1
1
1
1
1
1
1
1
1
1
1
1
1
1
1
1
1
1
1
1
1
1
1
1
1
1
1
1
1
1
1
1
1
1
1
1
1
1
1
1
1
1
1
1
1
1
1
1
1
1
1
1
1
1
1
1
1
1
1
1
1
1
1
1.00015
1.02726
1.45289
2.09563
2.25228
2.2693
2.26489
2.26123
2.25672
2.25195
2.2469
2.24175
2.23652
2.23127
2.2261
2.221
2.21601
2.21117
2.20652
2.20199
2.19753
2.19303
2.1884
2.18356
2.17841
1
1
1
1
1
1
1
1
1
1
1
1
1
1
1
1
1
1
1
1
1
1
1
1
1
1
1
1
1
1
1
1
1
1
1
1
1
1
1
1
1
1
1
1
1
1
1
1
1
1
1
1
1
1
1
1
1
1
1
1
1
1
1
1
1
1
1
1
1
1
1
1
1.00011
1.0197
1.38591
2.01439
2.22779
2.25722
2.25088
2.24726
2.24349
2.23943
2.23492
2.22994
2.22462
2.21925
2.21395
2.20871
2.20356
2.19849
2.19344
2.18842
2.18338
2.17839
2.17327
2.16817
1
1
1
1
1
1
1
1
1
1
1
1
1
1
1
1
1
1
1
1
1
1
1
1
1
1
1
1
1
1
1
1
1
1
1
1
1
1
1
1
1
1
1
1
1
1
1
1
1
1
1
1
1
1
1
1
1
1
1
1
1
1
1
1
1
1
1
1
1
1
1
1
1
1.00007
1.0131
1.30132
1.90469
2.19509
2.23969
2.23508
2.23311
2.23056
2.22733
2.22345
2.21916
2.21451
2.20952
2.20427
2.19886
2.19335
2.18783
2.18229
2.17671
2.1711
2.16543
2.15984
1
1
1
1
1
1
1
1
1
1
1
1
1
1
1
1
1
1
1
1
1
1
1
1
1
1
1
1
1
1
1
1
1
1
1
1
1
1
1
1
1
1
1
1
1
1
1
1
1
1
1
1
1
1
1
1
1
1
1
1
1
1
1
1
1
1
1
1
1
1
1
1
1
1
1.00004
1.00756
1.20782
1.77939
2.14987
2.21855
2.21784
2.21749
2.21575
2.21365
2.21078
2.20725
2.2032
2.19875
2.19386
2.18862
2.18315
2.17745
2.17162
2.16565
2.15963
2.15352
1
1
1
1
1
1
1
1
1
1
1
1
1
1
1
1
1
1
1
1
1
1
1
1
1
1
1
1
1
1
1
1
1
1
1
1
1
1
1
1
1
1
1
1
1
1
1
1
1
1
1
1
1
1
1
1
1
1
1
1
1
1
1
1
1
1
1
1
1
1
1
1
1
1
1
1.00002
1.00363
1.12763
1.6448
2.0984
2.18887
2.20148
2.19815
2.19802
2.19721
2.19561
2.19325
2.19023
2.18653
2.1823
2.17749
2.17242
2.16702
2.16128
2.15531
2.14912
1
1
1
1
1
1
1
1
1
1
1
1
1
1
1
1
1
1
1
1
1
1
1
1
1
1
1
1
1
1
1
1
1
1
1
1
1
1
1
1
1
1
1
1
1
1
1
1
1
1
1
1
1
1
1
1
1
1
1
1
1
1
1
1
1
1
1
1
1
1
1
1
1
1
1
1
1.00001
1.0015
1.06897
1.51425
2.01949
2.15769
2.18895
2.18094
2.18106
2.18067
2.17967
2.178
2.1757
2.17276
2.16925
2.16523
2.16072
2.1558
2.1506
2.14485
1
1
1
1
1
1
1
1
1
1
1
1
1
1
1
1
1
1
1
1
1
1
1
1
1
1
1
1
1
1
1
1
1
1
1
1
1
1
1
1
1
1
1
1
1
1
1
1
1
1
1
1
1
1
1
1
1
1
1
1
1
1
1
1
1
1
1
1
1
1
1
1
1
1
1
1
1
1
1.00054
1.03341
1.37978
1.90221
2.12959
2.16896
2.16632
2.16453
2.16339
2.16226
2.16074
2.15899
2.15688
2.15417
2.1512
2.14757
2.1434
2.13883
1
1
1
1
1
1
1
1
1
1
1
1
1
1
1
1
1
1
1
1
1
1
1
1
1
1
1
1
1
1
1
1
1
1
1
1
1
1
1
1
1
1
1
1
1
1
1
1
1
1
1
1
1
1
1
1
1
1
1
1
1
1
1
1
1
1
1
1
1
1
1
1
1
1
1
1
1
1
1
1.00017
1.01438
1.24399
1.75152
2.08744
2.1454
2.15257
2.14784
2.14627
2.14542
2.14426
2.14254
2.14102
2.13876
2.13641
2.13324
2.12991
1
1
1
1
1
1
1
1
1
1
1
1
1
1
1
1
1
1
1
1
1
1
1
1
1
1
1
1
1
1
1
1
1
1
1
1
1
1
1
1
1
1
1
1
1
1
1
1
1
1
1
1
1
1
1
1
1
1
1
1
1
1
1
1
1
1
1
1
1
1
1
1
1
1
1
1
1
1
1
1
1.00005
1.00534
1.12899
1.58783
2.01637
2.11574
2.13859
2.135
2.13222
2.1302
2.12903
2.12716
2.12515
2.12254
2.11982
2.11641
1
1
1
1
1
1
1
1
1
1
1
1
1
1
1
1
1
1
1
1
1
1
1
1
1
1
1
1
1
1
1
1
1
1
1
1
1
1
1
1
1
1
1
1
1
1
1
1
1
1
1
1
1
1
1
1
1
1
1
1
1
1
1
1
1
1
1
1
1
1
1
1
1
1
1
1
1
1
1
1
1
1.00001
1.00163
1.05594
1.4258
1.90288
2.0853
2.12295
2.12117
2.11646
2.11592
2.11415
2.11141
2.10648
2.10671
2.10896
1
1
1
1
1
1
1
1
1
1
1
1
1
1
1
1
1
1
1
1
1
1
1
1
1
1
1
1
1
1
1
1
1
1
1
1
1
1
1
1
1
1
1
1
1
1
1
1
1
1
1
1
1
1
1
1
1
1
1
1
1
1
1
1
1
1
1
1
1
1
1
1
1
1
1
1
1
1
1
1
1
1
1
1.0004
1.0208
1.27076
1.73068
2.0433
2.10001
2.11089
2.10666
2.09879
2.1
2.10693
2.12503
2.16392
1
1
1
1
1
1
1
1
1
1
1
1
1
1
1
1
1
1
1
1
1
1
1
1
1
1
1
1
1
1
1
1
1
1
1
1
1
1
1
1
1
1
1
1
1
1
1
1
1
1
1
1
1
1
1
1
1
1
1
1
1
1
1
1
1
1
1
1
1
1
1
1
1
1
1
1
1
1
1
1
1
1
1
1
1.00008
1.00689
1.12942
1.55301
1.9439
2.08665
2.08914
2.10738
2.13892
2.19144
2.25457
2.30905
1
1
1
1
1
1
1
1
1
1
1
1
1
1
1
1
1
1
1
1
1
1
1
1
1
1
1
1
1
1
1
1
1
1
1
1
1
1
1
1
1
1
1
1
1
1
1
1
1
1
1
1
1
1
1
1
1
1
1
1
1
1
1
1
1
1
1
1
1
1
1
1
1
1
1
1
1
1
1
1
1
1
1
1
1
1.00001
1.00175
1.04886
1.37085
1.81953
2.034
2.24544
2.301
2.34525
2.36866
2.37708
1
1
1
1
1
1
1
1
1
1
1
1
1
1
1
1
1
1
1
1
1
1
1
1
1
1
1
1
1
1
1
1
1
1
1
1
1
1
1
1
1
1
1
1
1
1
1
1
1
1
1
1
1
1
1
1
1
1
1
1
1
1
1
1
1
1
1
1
1
1
1
1
1
1
1
1
1
1
1
1
1
1
1
1
1
1
1
1.00033
1.0161
1.1862
2.12451
2.53795
2.50609
2.48085
2.46138
2.44468
1
1
1
1
1
1
1
1
1
1
1
1
1
1
1
1
1
1
1
1
1
1
1
1
1
1
1
1
1
1
1
1
1
1
1
1
1
1
1
1
1
1
1
1
1
1
1
1
1
1
1
1
1
1
1
1
1
1
1
1
1
1
1
1
1
1
1
1
1
1
1
1
1
1
1
1
1
1
1
1
1
1
1
1
1
1
1
1
1.00006
1.00331
2.28807
2.69075
2.64516
2.60077
2.5602
2.52751
1
1
1
1
1
1
1
1
1
1
1
1
1
1
1
1
1
1
1
1
1
1
1
1
1
1
1
1
1
1
1
1
1
1
1
1
1
1
1
1
1
1
1
1
1
1
1
1
1
1
1
1
1
1
1
1
1
1
1
1
1
1
1
1
1
1
1
1
1
1
1
1
1
1
1
1
1
1
1
1
1
1
1
1
1
1
1
1
1
1
2.28049
2.70962
2.703
2.6887
2.67041
2.64779
1
1
1
1
1
1
1
1
1
1
1
1
1
1
1
1
1
1
1
1
1
1
1
1
1
1
1
1
1
1
1
1
1
1
1
1
1
1
1
1
1
1
1
1
1
1
1
1
1
1
1
1
1
1
1
1
1
1
1
1
1
1
1
1
1
1
1
1
1
1
1
1
1
1
1
1
1
1
1
1
1
1
1
1
1
1
1
1
1
1
2.14249
2.71177
2.71917
2.71768
2.71489
2.70697
1
1
1
1
1
1
1
1
1
1
1
1
1
1
1
1
1
1
1
1
1
1
1
1
1
1
1
1
1
1
1
1
1
1
1
1
1
1
1
1
1
1
1
1
1
1
1
1
1
1
1
1
1
1
1
1
1
1
1
1
1
1
1
1
1
1
1
1
1
1
1
1
1
1
1
1
1
1
1
1
1
1
1
1
1
1
1
1
1
1
1.93374
2.67671
2.71535
2.7148
2.71326
2.71096
1
1
1
1
1
1
1
1
1
1
1
1
1
1
1
1
1
1
1
1
1
1
1
1
1
1
1
1
1
1
1
1
1
1
1
1
1
1
1
1
1
1
1
1
1
1
1
1
1
1
1
1
1
1
1
1
1
1
1
1
1
1
1
1
1
1
1
1
1
1
1
1
1
1
1
1
1
1
1
1
1
1
1
1
1
1
1
1
1
1
1.69443
2.61481
2.70779
2.70718
2.70586
2.70443
1
1
1
1
1
1
1
1
1
1
1
1
1
1
1
1
1
1
1
1
1
1
1
1
1
1
1
1
1
1
1
1
1
1
1
1
1
1
1
1
1
1
1
1
1
1
1
1
1
1
1
1
1
1
1
1
1
1
1
1
1
1
1
1
1
1
1
1
1
1
1
1
1
1
1
1
1
1
1
1
1
1
1
1
1
1
1
1
1
1
1.44104
2.53404
2.70058
2.69831
2.6966
2.69507
1
1
1
1
1
1
1
1
1
1
1
1
1
1
1
1
1
1
1
1
1
1
1
1
1
1
1
1
1
1
1
1
1
1
1
1
1
1
1
1
1
1
1
1
1
1
1
1
1
1
1
1
1
1
1
1
1
1
1
1
1
1
1
1
1
1
1
1
1
1
1
1
1
1
1
1
1
1
1
1
1
1
1
1
1
1
1
1
1
1
1.21262
2.43398
2.70179
2.69817
2.69498
2.6926
1
1
1
1
1
1
1
1
1
1
1
1
1
1
1
1
1
1
1
1
1
1
1
1
1
1
1
1
1
1
1
1
1
1
1
1
1
1
1
1
1
1
1
1
1
1
1
1
1
1
1
1
1
1
1
1
1
1
1
1
1
1
1
1
1
1
1
1
1
1
1
1
1
1
1
1
1
1
1
1
1
1
1
1
1
1
1
1
1
1
1.00579
2.30267
2.70247
2.70307
2.69859
2.69591
1
1
1
1
1
1
1
1
1
1
1
1
1
1
1
1
1
1
1
1
1
1
1
1
1
1
1
1
1
1
1
1
1
1
1
1
1
1
1
1
1
1
1
1
1
1
1
1
1
1
1
1
1
1
1
1
1
1
1
1
1
1
1
1
1
1
1
1
1
1
1
1
1
1
1
1
1
1
1
1
1
1
1
1
1
1
1
1
1
1
1.00001
2.16506
2.69578
2.70801
2.70304
2.70006
1
1
1
1
1
1
1
1
1
1
1
1
1
1
1
1
1
1
1
1
1
1
1
1
1
1
1
1
1
1
1
1
1
1
1
1
1
1
1
1
1
1
1
1
1
1
1
1
1
1
1
1
1
1
1
1
1
1
1
1
1
1
1
1
1
1
1
1
1
1
1
1
1
1
1
1
1
1
1
1
1
1
1
1
1
1
1
1
1
1
1
2.01638
2.6828
2.71476
2.7093
2.70591
1
1
1
1
1
1
1
1
1
1
1
1
1
1
1
1
1
1
1
1
1
1
1
1
1
1
1
1
1
1
1
1
1
1
1
1
1
1
1
1
1
1
1
1
1
1
1
1
1
1
1
1
1
1
1
1
1
1
1
1
1
1
1
1
1
1
1
1
1
1
1
1
1
1
1
1
1
1
1
1
1
1
1
1
1
1
1
1
1
1
1
1.86538
2.6603
2.71833
2.71212
2.70824
1
1
1
1
1
1
1
1
1
1
1
1
1
1
1
1
1
1
1
1
1
1
1
1
1
1
1
1
1
1
1
1
1
1
1
1
1
1
1
1
1
1
1
1
1
1
1
1
1
1
1
1
1
1
1
1
1
1
1
1
1
1
1
1
1
1
1
1
1
1
1
1
1
1
1
1
1
1
1
1
1
1
1
1
1
1
1
1
1
1
1
1.70735
2.62916
2.71677
2.7113
2.70769
1
1
1
1
1
1
1
1
1
1
1
1
1
1
1
1
1
1
1
1
1
1
1
1
1
1
1
1
1
1
1
1
1
1
1
1
1
1
1
1
1
1
1
1
1
1
1
1
1
1
1
1
1
1
1
1
1
1
1
1
1
1
1
1
1
1
1
1
1
1
1
1
1
1
1
1
1
1
1
1
1
1
1
1
1
1
1
1
1
1
1
1.5594
2.58697
2.71226
2.70837
2.70514
1
1
1
1
1
1
1
1
1
1
1
1
1
1
1
1
1
1
1
1
1
1
1
1
1
1
1
1
1
1
1
1
1
1
1
1
1
1
1
1
1
1
1
1
1
1
1
1
1
1
1
1
1
1
1
1
1
1
1
1
1
1
1
1
1
1
1
1
1
1
1
1
1
1
1
1
1
1
1
1
1
1
1
1
1
1
1
1
1
1
1
1.43164
2.54104
2.70685
2.70355
2.70005
1
1
1
1
1
1
1
1
1
1
1
1
1
1
1
1
1
1
1
1
1
1
1
1
1
1
1
1
1
1
1
1
1
1
1
1
1
1
1
1
1
1
1
1
1
1
1
1
1
1
1
1
1
1
1
1
1
1
1
1
1
1
1
1
1
1
1
1
1
1
1
1
1
1
1
1
1
1
1
1
1
1
1
1
1
1
1
1
1
1
1
1.32532
2.49455
2.70156
2.69783
2.69394
1
1
1
1
1
1
1
1
1
1
1
1
1
1
1
1
1
1
1
1
1
1
1
1
1
1
1
1
1
1
1
1
1
1
1
1
1
1
1
1
1
1
1
1
1
1
1
1
1
1
1
1
1
1
1
1
1
1
1
1
1
1
1
1
1
1
1
1
1
1
1
1
1
1
1
1
1
1
1
1
1
1
1
1
1
1
1
1
1
1
1
1.22413
2.43803
2.69615
2.69224
2.68864
1
1
1
1
1
1
1
1
1
1
1
1
1
1
1
1
1
1
1
1
1
1
1
1
1
1
1
1
1
1
1
1
1
1
1
1
1
1
1
1
1
1
1
1
1
1
1
1
1
1
1
1
1
1
1
1
1
1
1
1
1
1
1
1
1
1
1
1
1
1
1
1
1
1
1
1
1
1
1
1
1
1
1
1
1
1
1
1
1
1
1
1.11425
2.36858
2.69133
2.6907
2.6895
1
1
1
1
1
1
1
1
1
1
1
1
1
1
1
1
1
1
1
1
1
1
1
1
1
1
1
1
1
1
1
1
1
1
1
1
1
1
1
1
1
1
1
1
1
1
1
1
1
1
1
1
1
1
1
1
1
1
1
1
1
1
1
1
1
1
1
1
1
1
1
1
1
1
1
1
1
1
1
1
1
1
1
1
1
1
1
1
1
1
1
1.00254
2.30345
2.68923
2.69761
2.69542
1
1
1
1
1
1
1
1
1
1
1
1
1
1
1
1
1
1
1
1
1
1
1
1
1
1
1
1
1
1
1
1
1
1
1
1
1
1
1
1
1
1
1
1
1
1
1
1
1
1
1
1
1
1
1
1
1
1
1
1
1
1
1
1
1
1
1
1
1
1
1
1
1
1
1
1
1
1
1
1
1
1
1
1
1
1
1
1
1
1
1
1
2.24956
2.68774
2.7043
2.69932
1
1
1
1
1
1
1
1
1
1
1
1
1
1
1
1
1
1
1
1
1
1
1
1
1
1
1
1
1
1
1
1
1
1
1
1
1
1
1
1
1
1
1
1
1
1
1
1
1
1
1
1
1
1
1
1
1
1
1
1
1
1
1
1
1
1
1
1
1
1
1
1
1
1
1
1
1
1
1
1
1
1
1
1
1
1
1
1
1
1
1
1
2.21445
2.69023
2.70576
2.70061
1
1
1
1
1
1
1
1
1
1
1
1
1
1
1
1
1
1
1
1
1
1
1
1
1
1
1
1
1
1
1
1
1
1
1
1
1
1
1
1
1
1
1
1
1
1
1
1
1
1
1
1
1
1
1
1
1
1
1
1
1
1
1
1
1
1
1
1
1
1
1
1
1
1
1
1
1
1
1
1
1
1
1
1
1
1
1
1
1
1
1
1
2.19894
2.69033
2.70506
2.70038
1.4869
0.72766
0.658927
0.861491
0.983293
1.02422
1.05584
1.09691
1.10517
1.12365
1.1737
1.25577
1.35392
1.45085
1.49386
1.51133
1.52183
1.53407
1.54782
1.56408
1.59013
1.61311
1.61267
1.5965
1.58774
1.59003
1.60605
1.63397
1.6506
1.65107
1.64384
1.6348
1.63397
1.63979
1.65043
1.6516
1.64903
1.64546
1.64193
1.63871
1.63776
1.63742
1.6376
1.63851
1.63992
1.64313
1.64969
1.65285
1.65238
1.64945
1.65092
1.76939
2.5095
2.73205
2.72161
2.71574
2.70979
2.70314
2.69699
2.69217
2.68841
2.6846
2.67923
2.67086
2.6596
2.64703
2.63594
2.62819
2.62382
2.62197
2.62136
2.61996
2.61605
2.60938
2.60115
2.59238
2.58387
2.57626
2.56972
2.56377
2.55606
2.54693
2.5379
2.5296
2.52263
2.51675
2.51283
2.50959
2.50334
2.49426
2.48433
2.47432
2.46541
2.45824
2.45398
2.4529
2.45184
2.44833
2.44395
2.43883
2.4334
2.42798
2.42236
2.41662
2.41015
2.40318
2.39557
2.38761
2.38069
2.37548
2.37114
2.3677
2.36382
2.35813
2.35111
2.34298
2.33433
2.32639
2.31955
2.31341
2.30856
2.30436
2.29911
2.29329
2.28712
2.28035
2.27365
2.26799
2.26318