/*--------------------------------*- C++ -*----------------------------------*\
  =========                 |
  \\      /  F ield         | OpenFOAM: The Open Source CFD Toolbox
   \\    /   O peration     | Website:  https://openfoam.org
    \\  /    A nd           | Version:  7
     \\/     M anipulation  |
\*---------------------------------------------------------------------------*/
FoamFile
{
    version     2.0;
    format      ascii;
    class       volScalarField;
    location    "5.4";
    object      p;
}
// * * * * * * * * * * * * * * * * * * * * * * * * * * * * * * * * * * * * * //

dimensions      [1 -1 -2 0 0 0 0];

internalField   nonuniform List<scalar> 
19968
(
1
1
1
1
1
1
1
1
1
1
1
1
1
1
1
1
1
1
1
1
1
1
1
1
1
1
1
1
1
1
1
1
1
1
1
1
1
1
1
1
1
1
1
1
1
1
1
1
1.51534
7.98053
10.4414
10.4537
10.5215
10.5789
10.636
10.6907
10.7453
10.8014
10.8588
10.9167
10.9729
11.0253
11.074
11.1215
11.1692
11.2163
11.2625
11.3081
11.3523
11.3943
11.4346
11.4742
11.5142
11.5541
11.5929
11.6295
11.6635
11.6953
11.7262
11.7571
11.788
11.8181
11.8461
11.8714
11.8941
11.9148
11.9343
11.9525
11.9689
11.9833
11.9959
12.0077
12.0194
12.0311
12.0411
12.05
1
1
1
1
1
1
1
1
1
1
1
1
1
1
1
1
1
1
1
1
1
1
1
1
1
1
1
1
1
1
1
1
1
1
1
1
1
1
1
1
1
1
1
1
1
1
1
1
1.48562
7.90815
10.4263
10.4586
10.5223
10.5778
10.6337
10.6882
10.7429
10.7991
10.8563
10.9136
10.9693
11.0213
11.0701
11.1171
11.1642
11.2106
11.2567
11.3024
11.347
11.3896
11.4303
11.4702
11.5103
11.5501
11.5887
11.6252
11.6591
11.6912
11.7222
11.7531
11.7838
11.8135
11.8411
11.8659
11.8882
11.9087
11.928
11.9463
11.9631
11.978
11.991
12.0028
12.0139
12.0245
12.0332
12.0409
1
1
1
1
1
1
1
1
1
1
1
1
1
1
1
1
1
1
1
1
1
1
1
1
1
1
1
1
1
1
1
1
1
1
1
1
1
1
1
1
1
1
1
1
1
1
1
1
1.41877
7.75455
10.4209
10.4542
10.515
10.5698
10.6255
10.6803
10.7355
10.7921
10.8494
10.9063
10.9617
11.0135
11.0624
11.1089
11.1552
11.2008
11.2465
11.2921
11.337
11.3802
11.4216
11.4621
11.5025
11.5423
11.5807
11.6171
11.6511
11.6835
11.7148
11.7456
11.776
11.8052
11.8322
11.8566
11.8786
11.8988
11.9178
11.9361
11.9534
11.9691
11.983
11.9951
12.0056
12.0146
12.0214
12.0273
1
1
1
1
1
1
1
1
1
1
1
1
1
1
1
1
1
1
1
1
1
1
1
1
1
1
1
1
1
1
1
1
1
1
1
1
1
1
1
1
1
1
1
1
1
1
1
1
1.32506
7.51207
10.4089
10.4466
10.5047
10.5596
10.6154
10.6706
10.7261
10.7828
10.8397
10.8959
10.9508
11.0022
11.051
11.0969
11.1422
11.1867
11.2317
11.2771
11.3223
11.366
11.4082
11.4494
11.4902
11.5302
11.5686
11.605
11.6393
11.6719
11.7034
11.734
11.7636
11.7919
11.818
11.8416
11.8629
11.8825
11.9012
11.9194
11.9372
11.954
11.969
11.9816
11.9915
11.9988
12.0034
12.0073
1
1
1
1
1
1
1
1
1
1
1
1
1
1
1
1
1
1
1
1
1
1
1
1
1
1
1
1
1
1
1
1
1
1
1
1
1
1
1
1
1
1
1
1
1
1
1
1
1.20811
7.19796
10.3972
10.4373
10.4915
10.5458
10.6015
10.6572
10.7133
10.7703
10.8274
10.8834
10.9382
10.9897
11.0389
11.0844
11.1287
11.1717
11.2156
11.2601
11.3049
11.3489
11.3915
11.4333
11.4745
11.5149
11.5536
11.5903
11.625
11.6579
11.6893
11.7194
11.7482
11.7756
11.801
11.8241
11.8451
11.8644
11.8828
11.9006
11.9182
11.9349
11.9498
11.9616
11.9696
11.974
11.9757
11.977
1
1
1
1
1
1
1
1
1
1
1
1
1
1
1
1
1
1
1
1
1
1
1
1
1
1
1
1
1
1
1
1
1
1
1
1
1
1
1
1
1
1
1
1
1
1
1
1
1.00921
6.6901
10.3701
10.4249
10.481
10.5381
10.5954
10.6522
10.7085
10.7647
10.8203
10.8746
10.9282
10.9791
11.028
11.0729
11.1155
11.1561
11.1976
11.2402
11.2838
11.3268
11.3687
11.4098
11.4504
11.4904
11.5291
11.5659
11.6007
11.6333
11.6641
11.6931
11.7206
11.7468
11.7715
11.7945
11.8159
11.8358
11.8548
11.8732
11.8914
11.9087
11.9241
11.9358
11.9425
11.9448
11.9442
11.9437
1
1
1
1
1
1
1
1
1
1
1
1
1
1
1
1
1
1
1
1
1
1
1
1
1
1
1
1
1
1
1
1
1
1
1
1
1
1
1
1
1
1
1
1
1
1
1
1
1.00005
5.96738
10.2821
10.3806
10.4361
10.497
10.5564
10.6148
10.6719
10.7278
10.7831
10.8377
10.8915
10.9433
10.9927
11.0384
11.0811
11.1212
11.1622
11.2042
11.2468
11.2888
11.3293
11.3695
11.4097
11.45
11.4896
11.5275
11.5631
11.5959
11.626
11.6538
11.6801
11.7054
11.7298
11.7533
11.7757
11.7969
11.817
11.8361
11.8543
11.8714
11.8861
11.8968
11.9021
11.9029
11.9009
11.8994
1
1
1
1
1
1
1
1
1
1
1
1
1
1
1
1
1
1
1
1
1
1
1
1
1
1
1
1
1
1
1
1
1
1
1
1
1
1
1
1
1
1
1
1
1
1
1
1
1
5.02763
10.1352
10.3518
10.4038
10.4702
10.5319
10.5919
10.6493
10.7039
10.7571
10.8106
10.8635
10.9151
10.9641
11.0096
11.0514
11.0902
11.13
11.171
11.2121
11.2524
11.2908
11.329
11.3679
11.4078
11.4475
11.4858
11.5216
11.5539
11.583
11.6093
11.6339
11.6579
11.6816
11.7053
11.7285
11.7508
11.7717
11.7911
11.809
11.8249
11.8382
11.8473
11.8511
11.8509
11.848
11.8461
1
1
1
1
1
1
1
1
1
1
1
1
1
1
1
1
1
1
1
1
1
1
1
1
1
1
1
1
1
1
1
1
1
1
1
1
1
1
1
1
1
1
1
1
1
1
1
1
1
3.94507
9.83545
10.3313
10.3766
10.4447
10.5047
10.5637
10.6209
10.675
10.7267
10.7787
10.8304
10.8809
10.9287
10.9735
11.0144
11.052
11.0901
11.1292
11.1679
11.2058
11.2414
11.2771
11.3139
11.3523
11.391
11.4287
11.464
11.4958
11.5238
11.5489
11.5721
11.5946
11.6173
11.6405
11.6639
11.6869
11.7087
11.7286
11.7463
11.7615
11.7735
11.7814
11.7844
11.7839
11.7808
11.779
1
1
1
1
1
1
1
1
1
1
1
1
1
1
1
1
1
1
1
1
1
1
1
1
1
1
1
1
1
1
1
1
1
1
1
1
1
1
1
1
1
1
1
1
1
1
1
1
1
2.81203
9.28807
10.3175
10.375
10.439
10.4903
10.5431
10.5969
10.6495
10.6987
10.7476
10.7968
10.845
10.8909
10.9346
10.9748
11.0111
11.0472
11.084
11.12
11.1559
11.1892
11.2221
11.2558
11.2908
11.3262
11.3609
11.3939
11.4239
11.4506
11.4744
11.4963
11.5175
11.539
11.5613
11.5842
11.6072
11.6291
11.6489
11.6658
11.6795
11.6896
11.6954
11.697
11.6959
11.6924
11.6906
1
1
1
1
1
1
1
1
1
1
1
1
1
1
1
1
1
1
1
1
1
1
1
1
1
1
1
1
1
1
1
1
1
1
1
1
1
1
1
1
1
1
1
1
1
1
1
1
1
1.78643
8.3221
10.3571
10.3436
10.4016
10.4484
10.5005
10.5538
10.6064
10.6547
10.7017
10.7501
10.7982
10.8439
10.8871
10.9271
10.9628
10.9971
11.0323
11.0667
11.101
11.1335
11.1648
11.1957
11.2269
11.2583
11.2891
11.3186
11.3458
11.37
11.391
11.4097
11.4272
11.4445
11.4624
11.4812
11.5005
11.5198
11.538
11.5543
11.5678
11.5777
11.5832
11.5849
11.584
11.581
11.5795
1
1
1
1
1
1
1
1
1
1
1
1
1
1
1
1
1
1
1
1
1
1
1
1
1
1
1
1
1
1
1
1
1
1
1
1
1
1
1
1
1
1
1
1
1
1
1
1
1
1.02909
6.63475
10.3486
10.3651
10.3939
10.4339
10.4785
10.5257
10.5741
10.6197
10.6624
10.7059
10.7491
10.7905
10.8303
10.8675
10.9004
10.931
10.9625
10.9942
11.0257
11.0568
11.0857
11.1137
11.141
11.1681
11.1947
11.2206
11.245
11.267
11.2861
11.3027
11.3177
11.332
11.3465
11.3616
11.3774
11.3935
11.409
11.4224
11.4316
11.4362
11.4362
11.4323
11.4274
11.4222
11.4194
1
1
1
1
1
1
1
1
1
1
1
1
1
1
1
1
1
1
1
1
1
1
1
1
1
1
1
1
1
1
1
1
1
1
1
1
1
1
1
1
1
1
1
1
1
1
1
1
1
1.00005
4.54362
9.91571
10.1969
10.2585
10.3233
10.378
10.4289
10.4768
10.5215
10.5624
10.6031
10.6449
10.6855
10.7246
10.7616
10.795
10.8255
10.8563
10.8879
10.9186
10.9489
10.9767
11.0028
11.0276
11.0515
11.0744
11.0964
11.1173
11.1361
11.152
11.1649
11.1755
11.1845
11.1926
11.1998
11.2064
11.2126
11.2191
11.225
11.2288
11.2299
11.2291
11.2257
11.2223
11.2184
11.2169
1
1
1
1
1
1
1
1
1
1
1
1
1
1
1
1
1
1
1
1
1
1
1
1
1
1
1
1
1
1
1
1
1
1
1
1
1
1
1
1
1
1
1
1
1
1
1
1
1
1
2.34741
8.76324
10.1435
10.187
10.2655
10.3237
10.3751
10.4214
10.4634
10.5013
10.5379
10.5756
10.6132
10.6494
10.6835
10.7144
10.7426
10.7698
10.7978
10.8247
10.8499
10.873
10.8937
10.9129
10.9308
10.9473
10.9627
10.9769
10.9892
10.9986
11.0046
11.0079
11.0095
11.0103
11.0093
11.0081
11.0069
11.0064
11.0053
11.0018
10.9919
10.9758
10.9515
10.9232
10.8946
10.8709
1
1
1
1
1
1
1
1
1
1
1
1
1
1
1
1
1
1
1
1
1
1
1
1
1
1
1
1
1
1
1
1
1
1
1
1
1
1
1
1
1
1
1
1
1
1
1
1
1
1
1.05563
6.32484
10.2093
10.2326
10.2532
10.2824
10.3143
10.3493
10.3848
10.4195
10.4524
10.4848
10.517
10.5484
10.578
10.6053
10.63
10.653
10.6758
10.698
10.718
10.7359
10.7507
10.763
10.7739
10.7833
10.7919
10.7986
10.803
10.8047
10.8021
10.7951
10.7853
10.7733
10.7583
10.7412
10.7205
10.6951
10.663
10.6225
10.5738
10.5204
10.4725
10.4296
10.4068
10.396
1
1
1
1
1
1
1
1
1
1
1
1
1
1
1
1
1
1
1
1
1
1
1
1
1
1
1
1
1
1
1
1
1
1
1
1
1
1
1
1
1
1
1
1
1
1
1
1
1
1
1.00008
3.24096
9.25364
10.0445
10.0969
10.145
10.1895
10.2334
10.273
10.3064
10.3358
10.3647
10.3954
10.4275
10.4583
10.4853
10.5079
10.5271
10.5444
10.5607
10.5753
10.587
10.5949
10.599
10.6
10.5991
10.597
10.5931
10.5883
10.5803
10.5667
10.546
10.5187
10.4865
10.4509
10.4118
10.3673
10.3155
10.2555
10.1883
10.115
10.0378
9.94589
9.85748
9.73822
9.82605
1
1
1
1
1
1
1
1
1
1
1
1
1
1
1
1
1
1
1
1
1
1
1
1
1
1
1
1
1
1
1
1
1
1
1
1
1
1
1
1
1
1
1
1
1
1
1
1
1
1
1
1.21746
7.29931
10.0822
10.0636
10.0849
10.1187
10.1571
10.1951
10.2245
10.2493
10.2722
10.2962
10.3226
10.3496
10.3742
10.3941
10.4094
10.4208
10.4295
10.4367
10.4419
10.4441
10.4419
10.434
10.422
10.4079
10.393
10.3778
10.3601
10.3361
10.302
10.2568
10.2028
10.1424
10.0756
9.99819
9.9056
9.79023
9.64746
9.45793
9.20526
8.82645
8.26362
7.3317
5.43507
1
1
1
1
1
1
1
1
1
1
1
1
1
1
1
1
1
1
1
1
1
1
1
1
1
1
1
1
1
1
1
1
1
1
1
1
1
1
1
1
1
1
1
1
1
1
1
1
1
1
1
1.00159
4.5805
9.55568
9.91876
9.96656
10.0171
10.0641
10.1068
10.133
10.1511
10.1673
10.186
10.2093
10.2352
10.2602
10.2807
10.295
10.3037
10.3067
10.3069
10.3059
10.3037
10.2986
10.2879
10.27
10.2462
10.2191
10.1915
10.1625
10.1283
10.0832
10.0236
9.95047
9.86571
9.77105
9.65939
9.52735
9.35974
9.15423
8.8776
8.51983
8.00136
7.33302
6.11233
4.50018
1
1
1
1
1
1
1
1
1
1
1
1
1
1
1
1
1
1
1
1
1
1
1
1
1
1
1
1
1
1
1
1
1
1
1
1
1
1
1
1
1
1
1
1
1
1
1
1
1
1
1
0.999996
1.89581
8.12677
9.89175
9.89381
9.95122
9.99853
10.0383
10.0598
10.0746
10.0881
10.1022
10.12
10.1402
10.1608
10.1783
10.1904
10.1951
10.1931
10.1852
10.1743
10.1639
10.1537
10.139
10.1163
10.0844
10.0459
10.0049
9.96242
9.91512
9.85739
9.78346
9.69331
9.58591
9.46518
9.3216
9.15342
8.94494
8.69073
8.36878
7.95006
7.41818
6.65359
5.64777
4.54087
1
1
1
1
1
1
1
1
1
1
1
1
1
1
1
1
1
1
1
1
1
1
1
1
1
1
1
1
1
1
1
1
1
1
1
1
1
1
1
1
1
1
1
1
1
1
1
1
1
1
1
0.999999
1.02981
5.30845
9.71828
9.84213
9.87388
9.90493
9.93172
9.95172
9.97436
9.99579
10.0128
10.0287
10.0446
10.06
10.0718
10.0783
10.0782
10.0711
10.0571
10.0383
10.0196
10.0018
9.98081
9.95294
9.91581
9.87038
9.81902
9.76443
9.70339
9.63182
9.54313
9.43791
9.31313
9.17135
9.00401
8.8074
8.57187
8.28896
7.94778
7.521
7.00132
6.32689
5.56612
4.72407
1
1
1
1
1
1
1
1
1
1
1
1
1
1
1
1
1
1
1
1
1
1
1
1
1
1
1
1
1
1
1
1
1
1
1
1
1
1
1
1
1
1
1
1
1
1
1
1
1
1
1
1
1
2.10716
8.34426
9.85852
9.81549
9.84221
9.86305
9.87642
9.89221
9.91084
9.9266
9.94064
9.95312
9.96112
9.96458
9.96211
9.95455
9.94332
9.92768
9.90722
9.88357
9.85724
9.82673
9.79037
9.74625
9.69517
9.63672
9.57335
9.50075
9.41563
9.31231
9.19297
9.0562
8.90154
8.72195
8.5105
8.26198
7.96847
7.62734
7.21615
6.74358
6.19137
5.59221
4.94032
1
1
1
1
1
1
1
1
1
1
1
1
1
1
1
1
1
1
1
1
1
1
1
1
1
1
1
1
1
1
1
1
1
1
1
1
1
1
1
1
1
1
1
1
1
1
1
1
1
1
1
1
0.999999
1.03979
5.34012
9.67687
9.74957
9.77899
9.79292
9.80367
9.81507
9.82785
9.83931
9.84948
9.85789
9.86279
9.86091
9.85088
9.83404
9.81458
9.79431
9.77264
9.74694
9.71478
9.67534
9.6304
9.57919
9.5229
9.4592
9.3889
9.30695
9.21044
9.09502
8.96395
8.8182
8.6563
8.47262
8.25881
8.01171
7.72116
7.39629
7.00916
6.59715
6.13616
5.64641
5.12515
1
1
1
1
1
1
1
1
1
1
1
1
1
1
1
1
1
1
1
1
1
1
1
1
1
1
1
1
1
1
1
1
1
1
1
1
1
1
1
1
1
1
1
1
1
1
1
1
1
1
1
1
1
1.00003
1.9618
8.13304
9.73772
9.71917
9.72923
9.73338
9.73715
9.74049
9.74402
9.74681
9.7498
9.75307
9.74709
9.73283
9.71082
9.68434
9.65841
9.63464
9.60719
9.5708
9.52453
9.47256
9.41557
9.35557
9.28878
9.21329
9.12391
9.01883
8.89578
8.75693
8.60413
8.43776
8.25452
8.047
7.81262
7.53595
7.23382
6.8837
6.52206
6.12001
5.70875
5.26968
1
1
1
1
1
1
1
1
1
1
1
1
1
1
1
1
1
1
1
1
1
1
1
1
1
1
1
1
1
1
1
1
1
1
1
1
1
1
1
1
1
1
1
1
1
1
1
1
1
1
1
1
1
1
1.02876
4.79517
9.39547
9.61481
9.63153
9.64368
9.65972
9.66522
9.66315
9.65755
9.65662
9.65717
9.64824
9.62968
9.60307
9.57021
9.53586
9.50505
9.47081
9.42793
9.3761
9.31971
9.25984
9.19773
9.12852
9.048
8.95197
8.8411
8.71528
8.57421
8.4184
8.24903
8.06615
7.86567
7.64511
7.39099
7.11388
6.80743
6.48264
6.13397
5.77801
5.39778
1
1
1
1
1
1
1
1
1
1
1
1
1
1
1
1
1
1
1
1
1
1
1
1
1
1
1
1
1
1
1
1
1
1
1
1
1
1
1
1
1
1
1
1
1
1
1
1
1
1
1
1
1
1
1.00002
1.50002
7.55573
9.66674
9.61227
9.59733
9.59011
9.5833
9.57084
9.55732
9.55097
9.54633
9.53402
9.51277
9.48573
9.4531
9.41457
9.37815
9.33681
9.28888
9.23436
9.17512
9.11171
9.04648
8.97443
8.89031
8.7904
8.67651
8.55066
8.41134
8.25782
8.08973
7.91096
7.71481
7.50602
7.27432
7.02019
6.75413
6.4636
6.15895
5.83781
5.50826
1
1
1
1
1
1
1
1
1
1
1
1
1
1
1
1
1
1
1
1
1
1
1
1
1
1
1
1
1
1
1
1
1
1
1
1
1
1
1
1
1
1
1
1
1
1
1
1
1
1
1
1
1
1
1
1.0074
3.82564
8.98735
9.40272
9.43801
9.46641
9.47062
9.46226
9.44731
9.43201
9.42262
9.41023
9.39355
9.37056
9.34096
9.3009
9.25763
9.2068
9.15351
9.09683
9.03656
8.97141
8.90306
8.82683
8.73924
8.63758
8.52333
8.40001
8.26557
8.11863
7.9563
7.78603
7.59156
7.3938
7.17798
6.94478
6.70924
6.44687
6.17939
5.89172
5.60496
1
1
1
1
1
1
1
1
1
1
1
1
1
1
1
1
1
1
1
1
1
1
1
1
1
1
1
1
1
1
1
1
1
1
1
1
1
1
1
1
1
1
1
1
1
1
1
1
1
1
1
1
1
1
1
1
1.21028
6.21757
9.36074
9.39628
9.38252
9.37391
9.37178
9.35929
9.33585
9.31723
9.303
9.28681
9.26634
9.23882
9.19926
9.14965
9.09119
9.03646
8.97792
8.91364
8.84505
8.77295
8.69119
8.59991
8.49739
8.38408
8.26364
8.1332
7.99442
7.83874
7.67859
7.49123
7.30625
7.10341
6.88818
6.6712
6.43075
6.19441
5.93807
5.68363
1
1
1
1
1
1
1
1
1
1
1
1
1
1
1
1
1
1
1
1
1
1
1
1
1
1
1
1
1
1
1
1
1
1
1
1
1
1
1
1
1
1
1
1
1
1
1
1
1
1
1
1
1
1
1
1
1.00134
2.12914
7.97499
9.31409
9.25654
9.26311
9.26654
9.26402
9.24278
9.21719
9.19998
9.18181
9.16033
9.13221
9.09318
9.04151
8.98117
8.92733
8.86749
8.79899
8.72603
8.65006
8.5638
8.47013
8.36749
8.25739
8.13942
8.0125
7.88332
7.73268
7.5811
7.40756
7.23533
7.04575
6.84563
6.64273
6.42239
6.20865
5.97859
5.74907
1
1
1
1
1
1
1
1
1
1
1
1
1
1
1
1
1
1
1
1
1
1
1
1
1
1
1
1
1
1
1
1
1
1
1
1
1
1
1
1
1
1
1
1
1
1
1
1
1
1
1
1
1
1
1
1
1
1.03638
4.12189
8.86578
9.15224
9.17296
9.18493
9.18162
9.15853
9.13149
9.11226
9.08649
9.05822
9.02683
8.98646
8.93579
8.87889
8.823
8.76609
8.69469
8.61846
8.53847
8.45254
8.35628
8.25509
8.14964
8.03398
7.91212
7.78332
7.64088
7.49501
7.33431
7.17232
6.99605
6.80934
6.6218
6.41934
6.22201
6.01205
5.80427
1
1
1
1
1
1
1
1
1
1
1
1
1
1
1
1
1
1
1
1
1
1
1
1
1
1
1
1
1
1
1
1
1
1
1
1
1
1
1
1
1
1
1
1
1
1
1
1
1
1
1
1
1
1
1
1
1
1.00007
1.24933
5.68194
8.98862
9.14511
9.13701
9.1342
9.10776
9.07257
9.04226
9.00706
8.96884
8.92986
8.88548
8.83483
8.77995
8.72259
8.66805
8.59827
8.52187
8.43923
8.35216
8.2559
8.15583
8.05234
7.94198
7.82182
7.69447
7.55981
7.42016
7.26883
7.11532
6.95208
6.7768
6.60386
6.41792
6.23668
6.04388
5.85353
1
1
1
1
1
1
1
1
1
1
1
1
1
1
1
1
1
1
1
1
1
1
1
1
1
1
1
1
1
1
1
1
1
1
1
1
1
1
1
1
1
1
1
1
1
1
1
1
1
1
1
1
1
1
1
1
1
1
1.00196
1.6135
7.17953
9.14715
9.09672
9.06829
9.0239
8.98376
8.94498
8.90574
8.8658
8.82434
8.78192
8.73516
8.68307
8.62574
8.56884
8.50391
8.42854
8.34786
8.26143
8.16911
8.071
7.96924
7.86054
7.74501
7.62258
7.49265
7.35847
7.21459
7.06746
6.91315
6.74834
6.58593
6.41487
6.24725
6.07017
5.89412
1
1
1
1
1
1
1
1
1
1
1
1
1
1
1
1
1
1
1
1
1
1
1
1
1
1
1
1
1
1
1
1
1
1
1
1
1
1
1
1
1
1
1
1
1
1
1
1
1
1
1
1
1
1
1
1
1
1
1
1.01085
2.95181
8.27071
8.96064
8.89387
8.8647
8.84083
8.82018
8.79469
8.76432
8.72731
8.68453
8.64052
8.59066
8.53374
8.47649
8.41436
8.34222
8.26503
8.18169
8.0914
7.99489
7.89477
7.78897
7.67738
7.55951
7.43442
7.30523
7.16875
7.02779
6.8799
6.72514
6.56987
6.41253
6.25513
6.09261
5.92797
1
1
1
1
1
1
1
1
1
1
1
1
1
1
1
1
1
1
1
1
1
1
1
1
1
1
1
1
1
1
1
1
1
1
1
1
1
1
1
1
1
1
1
1
1
1
1
1
1
1
1
1
1
1
1
1
1
1
1
1.00002
1.10008
4.29761
8.59462
8.79457
8.7621
8.76329
8.74971
8.72815
8.69904
8.66229
8.61806
8.57192
8.52198
8.46259
8.40307
8.33793
8.26563
8.18924
8.10777
8.02044
7.92559
7.82769
7.72558
7.61756
7.50421
7.38444
7.2596
7.12928
6.99445
6.85312
6.70711
6.55784
6.41081
6.26111
6.11103
5.9556
1
1
1
1
1
1
1
1
1
1
1
1
1
1
1
1
1
1
1
1
1
1
1
1
1
1
1
1
1
1
1
1
1
1
1
1
1
1
1
1
1
1
1
1
1
1
1
1
1
1
1
1
1
1
1
1
1
1
1
1
1.00045
1.28165
5.12862
8.58366
8.71148
8.70877
8.69875
8.6744
8.64337
8.60461
8.55876
8.50946
8.45587
8.39546
8.33312
8.26565
8.19333
8.11745
8.03671
7.95051
7.8589
7.76319
7.66384
7.56055
7.4524
7.33797
7.21748
7.09261
6.96338
6.82893
6.69039
6.54895
6.40981
6.26752
6.12746
5.9802
1
1
1
1
1
1
1
1
1
1
1
1
1
1
1
1
1
1
1
1
1
1
1
1
1
1
1
1
1
1
1
1
1
1
1
1
1
1
1
1
1
1
1
1
1
1
1
1
1
1
1
1
1
1
1
1
1
1
1
1
1
1.00261
1.47341
5.79927
8.58301
8.68662
8.65652
8.62468
8.58865
8.54634
8.49964
8.45112
8.39719
8.33758
8.2736
8.20475
8.13176
8.05492
7.97326
7.88698
7.79753
7.70508
7.60947
7.5103
7.40635
7.29627
7.18001
7.05975
6.9353
6.80643
6.67446
6.54238
6.41006
6.27517
6.14309
6.00453
1
1
1
1
1
1
1
1
1
1
1
1
1
1
1
1
1
1
1
1
1
1
1
1
1
1
1
1
1
1
1
1
1
1
1
1
1
1
1
1
1
1
1
1
1
1
1
1
1
1
1
1
1
1
1
1
1
1
1
1
1
1
1.00675
1.69218
6.38179
8.55069
8.60526
8.57477
8.53343
8.48975
8.44219
8.39235
8.33724
8.27697
8.21303
8.14467
8.07212
7.99549
7.91416
7.82878
7.74084
7.65103
7.55943
7.4636
7.36243
7.25586
7.14382
7.02828
6.90842
6.78527
6.66099
6.53756
6.41182
6.28353
6.15809
6.02859
1
1
1
1
1
1
1
1
1
1
1
1
1
1
1
1
1
1
1
1
1
1
1
1
1
1
1
1
1
1
1
1
1
1
1
1
1
1
1
1
1
1
1
1
1
1
1
1
1
1
1
1
1
1
1
1
1
1
1
1
1
1
1.00001
1.01362
1.94576
6.81042
8.51409
8.52801
8.49531
8.44702
8.39738
8.34233
8.28236
8.22046
8.15528
8.08668
8.01491
7.93962
7.86035
7.77776
7.69286
7.60605
7.51689
7.42298
7.32337
7.21882
7.10998
6.99873
6.88475
6.76897
6.65278
6.5368
6.41778
6.2939
6.17354
6.05131
1
1
1
1
1
1
1
1
1
1
1
1
1
1
1
1
1
1
1
1
1
1
1
1
1
1
1
1
1
1
1
1
1
1
1
1
1
1
1
1
1
1
1
1
1
1
1
1
1
1
1
1
1
1
1
1
1
1
1
1
1
1
1
1.00003
1.02451
2.19258
7.15401
8.47495
8.45635
8.40713
8.35083
8.29103
8.22932
8.16671
8.09974
8.03037
7.95976
7.88635
7.8096
7.72987
7.64778
7.56321
7.47504
7.38233
7.28458
7.18309
7.07876
6.97279
6.86487
6.75589
6.64679
6.53702
6.42409
6.30333
6.18683
6.07007
1
1
1
1
1
1
1
1
1
1
1
1
1
1
1
1
1
1
1
1
1
1
1
1
1
1
1
1
1
1
1
1
1
1
1
1
1
1
1
1
1
1
1
1
1
1
1
1
1
1
1
1
1
1
1
1
1
1
1
1
1
1
1
1
1.00007
1.03838
2.47265
7.40308
8.39761
8.35378
8.30413
8.24132
8.17765
8.11394
8.04903
7.98321
7.91534
7.84392
7.76882
7.6905
7.60908
7.52436
7.43645
7.34461
7.2492
7.15178
7.05246
6.95179
6.84915
6.74591
6.64183
6.53654
6.42827
6.31111
6.19791
6.08575
1
1
1
1
1
1
1
1
1
1
1
1
1
1
1
1
1
1
1
1
1
1
1
1
1
1
1
1
1
1
1
1
1
1
1
1
1
1
1
1
1
1
1
1
1
1
1
1
1
1
1
1
1
1
1
1
1
1
1
1
1
1
1
1
1
1.00014
1.05788
2.76626
7.49474
8.28622
8.2335
8.17927
8.12724
8.06742
8.00592
7.94179
7.87474
7.80434
7.72982
7.65172
7.57065
7.48664
7.39987
7.31049
7.21905
7.12592
7.03107
6.93452
6.83586
6.7367
6.63578
6.53358
6.42842
6.31622
6.20607
6.09812
1
1
1
1
1
1
1
1
1
1
1
1
1
1
1
1
1
1
1
1
1
1
1
1
1
1
1
1
1
1
1
1
1
1
1
1
1
1
1
1
1
1
1
1
1
1
1
1
1
1
1
1
1
1
1
1
1
1
1
1
1
1
1
1
1
1
1.00025
1.08309
2.88691
7.4461
8.17549
8.1318
8.08084
8.02857
7.97184
7.91075
7.84433
7.77244
7.69637
7.61796
7.53705
7.45414
7.36935
7.28274
7.19433
7.10408
7.01212
6.91844
6.82286
6.72654
6.62868
6.52914
6.42691
6.3203
6.21322
6.10978
1
1
1
1
1
1
1
1
1
1
1
1
1
1
1
1
1
1
1
1
1
1
1
1
1
1
1
1
1
1
1
1
1
1
1
1
1
1
1
1
1
1
1
1
1
1
1
1
1
1
1
1
1
1
1
1
1
1
1
1
1
1
1
1
1
1
1
1.00043
1.09633
2.85851
7.33891
8.09136
8.04759
7.99592
7.93852
7.87616
7.80988
7.73837
7.66284
7.58549
7.50579
7.42444
7.34162
7.25744
7.17164
7.08374
6.99409
6.90298
6.80998
6.7161
6.6205
6.52331
6.42438
6.32136
6.21994
6.12048
1
1
1
1
1
1
1
1
1
1
1
1
1
1
1
1
1
1
1
1
1
1
1
1
1
1
1
1
1
1
1
1
1
1
1
1
1
1
1
1
1
1
1
1
1
1
1
1
1
1
1
1
1
1
1
1
1
1
1
1
1
1
1
1
1
1
1
1
1.00056
1.09492
2.8135
7.16781
7.99436
7.95982
7.8989
7.83575
7.76652
7.69681
7.62669
7.55308
7.47718
7.39906
7.31891
7.23676
7.15255
7.06665
6.97904
6.88931
6.79856
6.70668
6.61309
6.51945
6.42345
6.32582
6.22888
6.13105
1
1
1
1
1
1
1
1
1
1
1
1
1
1
1
1
1
1
1
1
1
1
1
1
1
1
1
1
1
1
1
1
1
1
1
1
1
1
1
1
1
1
1
1
1
1
1
1
1
1
1
1
1
1
1
1
1
1
1
1
1
1
1
1
1
1
1
1
1
1.00055
1.09066
2.70242
6.92658
7.89052
7.86283
7.79515
7.72975
7.66062
7.59201
7.5212
7.44843
7.37355
7.2965
7.21682
7.13456
7.05026
6.96414
6.87642
6.78792
6.69834
6.60893
6.51723
6.42449
6.33187
6.23789
6.14598
1
1
1
1
1
1
1
1
1
1
1
1
1
1
1
1
1
1
1
1
1
1
1
1
1
1
1
1
1
1
1
1
1
1
1
1
1
1
1
1
1
1
1
1
1
1
1
1
1
1
1
1
1
1
1
1
1
1
1
1
1
1
1
1
1
1
1
1
1
1
1.00052
1.08024
2.53255
6.59288
7.77784
7.76462
7.69441
7.63095
7.5626
7.4928
7.42142
7.3486
7.27301
7.19492
7.11505
7.03316
6.95045
6.86722
6.7821
6.69557
6.60775
6.51899
6.43024
6.34053
6.25299
6.16498
1
1
1
1
1
1
1
1
1
1
1
1
1
1
1
1
1
1
1
1
1
1
1
1
1
1
1
1
1
1
1
1
1
1
1
1
1
1
1
1
1
1
1
1
1
1
1
1
1
1
1
1
1
1
1
1
1
1
1
1
1
1
1
1
1
1
1
1
1
1
1
1.00044
1.06537
2.30938
6.16023
7.63355
7.67306
7.60335
7.53936
7.46893
7.39701
7.32303
7.24755
7.17109
7.09455
7.01691
6.93806
6.85842
6.7779
6.69588
6.61232
6.52853
6.44344
6.35692
6.27114
6.18318
1
1
1
1
1
1
1
1
1
1
1
1
1
1
1
1
1
1
1
1
1
1
1
1
1
1
1
1
1
1
1
1
1
1
1
1
1
1
1
1
1
1
1
1
1
1
1
1
1
1
1
1
1
1
1
1
1
1
1
1
1
1
1
1
1
1
1
1
1
1
1
1
1.00033
1.04837
2.05654
5.57632
7.48186
7.60038
7.50718
7.43902
7.3692
7.29895
7.22764
7.15414
7.07941
7.00355
6.92744
6.85171
6.77634
6.69995
6.62121
6.54076
6.45868
6.37498
6.29007
6.20549
1
1
1
1
1
1
1
1
1
1
1
1
1
1
1
1
1
1
1
1
1
1
1
1
1
1
1
1
1
1
1
1
1
1
1
1
1
1
1
1
1
1
1
1
1
1
1
1
1
1
1
1
1
1
1
1
1
1
1
1
1
1
1
1
1
1
1
1
1
1
1
1
1
1.00022
1.03215
1.78545
4.83797
7.30004
7.49864
7.41511
7.3514
7.28552
7.21739
7.14737
7.07724
7.00616
6.93288
6.85783
6.78201
6.70663
6.62979
6.55338
6.47401
6.3933
6.30816
6.22301
1
1
1
1
1
1
1
1
1
1
1
1
1
1
1
1
1
1
1
1
1
1
1
1
1
1
1
1
1
1
1
1
1
1
1
1
1
1
1
1
1
1
1
1
1
1
1
1
1
1
1
1
1
1
1
1
1
1
1
1
1
1
1
1
1
1
1
1
1
1
1
1
1
1
1.00012
1.01884
1.52262
4.06389
6.9926
7.39794
7.34324
7.28474
7.21404
7.14621
7.07646
7.00533
6.93399
6.86095
6.78844
6.71369
6.63896
6.55992
6.48067
6.39812
6.31786
6.22943
1
1
1
1
1
1
1
1
1
1
1
1
1
1
1
1
1
1
1
1
1
1
1
1
1
1
1
1
1
1
1
1
1
1
1
1
1
1
1
1
1
1
1
1
1
1
1
1
1
1
1
1
1
1
1
1
1
1
1
1
1
1
1
1
1
1
1
1
1
1
1
1
1
1
1
1.00006
1.0094
1.3139
3.31049
6.54411
7.29283
7.29307
7.20571
7.14121
7.07441
7.00512
6.93448
6.86359
6.79304
6.71772
6.64227
6.56263
6.48685
6.40095
6.34077
6.27109
1
1
1
1
1
1
1
1
1
1
1
1
1
1
1
1
1
1
1
1
1
1
1
1
1
1
1
1
1
1
1
1
1
1
1
1
1
1
1
1
1
1
1
1
1
1
1
1
1
1
1
1
1
1
1
1
1
1
1
1
1
1
1
1
1
1
1
1
1
1
1
1
1
1
1
1
1.00002
1.00406
1.1696
2.64709
5.88026
7.14107
7.26099
7.14367
7.07781
7.01018
6.94625
6.87363
6.80009
6.72067
6.64539
6.56856
6.5079
6.47096
6.48717
6.622
1
1
1
1
1
1
1
1
1
1
1
1
1
1
1
1
1
1
1
1
1
1
1
1
1
1
1
1
1
1
1
1
1
1
1
1
1
1
1
1
1
1
1
1
1
1
1
1
1
1
1
1
1
1
1
1
1
1
1
1
1
1
1
1
1
1
1
1
1
1
1
1
1
1
1
1
1
1.00001
1.00154
1.08296
2.08373
4.99717
6.95072
7.14363
7.0782
7.00232
6.94273
6.87547
6.79157
6.71653
6.6714
6.66353
6.74474
6.98728
7.39981
7.97279
1
1
1
1
1
1
1
1
1
1
1
1
1
1
1
1
1
1
1
1
1
1
1
1
1
1
1
1
1
1
1
1
1
1
1
1
1
1
1
1
1
1
1
1
1
1
1
1
1
1
1
1
1
1
1
1
1
1
1
1
1
1
1
1
1
1
1
1
1
1
1
1
1
1
1
1
1
1
1
1.00051
1.03626
1.63725
3.99562
6.60196
7.0363
7.05054
6.95777
6.84586
6.80771
6.85387
7.03717
7.42384
7.98346
8.55549
9.02275
9.30172
1
1
1
1
1
1
1
1
1
1
1
1
1
1
1
1
1
1
1
1
1
1
1
1
1
1
1
1
1
1
1
1
1
1
1
1
1
1
1
1
1
1
1
1
1
1
1
1
1
1
1
1
1
1
1
1
1
1
1
1
1
1
1
1
1
1
1
1
1
1
1
1
1
1
1
1
1
1
1
1
1.00015
1.01382
1.32333
3.06312
5.95619
6.92798
6.90173
7.05608
7.35035
7.93271
8.64515
9.23088
9.62723
9.75619
9.75409
9.66003
1
1
1
1
1
1
1
1
1
1
1
1
1
1
1
1
1
1
1
1
1
1
1
1
1
1
1
1
1
1
1
1
1
1
1
1
1
1
1
1
1
1
1
1
1
1
1
1
1
1
1
1
1
1
1
1
1
1
1
1
1
1
1
1
1
1
1
1
1
1
1
1
1
1
1
1
1
1
1
1
1
1.00004
1.00449
1.14034
2.29393
5.0469
6.83688
8.64189
9.28891
9.85766
10.1615
10.2194
10.1745
10.0771
9.94727
9.77041
1
1
1
1
1
1
1
1
1
1
1
1
1
1
1
1
1
1
1
1
1
1
1
1
1
1
1
1
1
1
1
1
1
1
1
1
1
1
1
1
1
1
1
1
1
1
1
1
1
1
1
1
1
1
1
1
1
1
1
1
1
1
1
1
1
1
1
1
1
1
1
1
1
1
1
1
1
1
1
1
1
1
1.00001
1.00116
1.05476
1.66364
7.21011
11.2703
10.9165
10.7597
10.6009
10.452
10.3109
10.1662
10.0005
9.80735
1
1
1
1
1
1
1
1
1
1
1
1
1
1
1
1
1
1
1
1
1
1
1
1
1
1
1
1
1
1
1
1
1
1
1
1
1
1
1
1
1
1
1
1
1
1
1
1
1
1
1
1
1
1
1
1
1
1
1
1
1
1
1
1
1
1
1
1
1
1
1
1
1
1
1
1
1
1
1
1
1
1
1
1
1.00033
1.01421
6.98264
11.2247
10.85
10.6444
10.4387
10.2859
10.1467
10.0144
9.9027
9.79075
1
1
1
1
1
1
1
1
1
1
1
1
1
1
1
1
1
1
1
1
1
1
1
1
1
1
1
1
1
1
1
1
1
1
1
1
1
1
1
1
1
1
1
1
1
1
1
1
1
1
1
1
1
1
1
1
1
1
1
1
1
1
1
1
1
1
1
1
1
1
1
1
1
1
1
1
1
1
1
1
1
1
1
1
1
1.00002
6.10395
10.521
10.4914
10.4445
10.3664
10.2953
10.2234
10.1476
10.0819
10.0202
1
1
1
1
1
1
1
1
1
1
1
1
1
1
1
1
1
1
1
1
1
1
1
1
1
1
1
1
1
1
1
1
1
1
1
1
1
1
1
1
1
1
1
1
1
1
1
1
1
1
1
1
1
1
1
1
1
1
1
1
1
1
1
1
1
1
1
1
1
1
1
1
1
1
1
1
1
1
1
1
1
1
1
1
1
1
4.55951
10.0507
10.362
10.3612
10.3541
10.3112
10.2474
10.1839
10.1182
10.0591
1
1
1
1
1
1
1
1
1
1
1
1
1
1
1
1
1
1
1
1
1
1
1
1
1
1
1
1
1
1
1
1
1
1
1
1
1
1
1
1
1
1
1
1
1
1
1
1
1
1
1
1
1
1
1
1
1
1
1
1
1
1
1
1
1
1
1
1
1
1
1
1
1
1
1
1
1
1
1
1
1
1
1
1
1
1
3.03878
9.33956
10.3299
10.2885
10.2649
10.2486
10.227
10.1898
10.1449
10.098
1
1
1
1
1
1
1
1
1
1
1
1
1
1
1
1
1
1
1
1
1
1
1
1
1
1
1
1
1
1
1
1
1
1
1
1
1
1
1
1
1
1
1
1
1
1
1
1
1
1
1
1
1
1
1
1
1
1
1
1
1
1
1
1
1
1
1
1
1
1
1
1
1
1
1
1
1
1
1
1
1
1
1
1
1
1
1.82225
8.38315
10.4253
10.3698
10.3312
10.2889
10.249
10.2125
10.1667
10.1189
1
1
1
1
1
1
1
1
1
1
1
1
1
1
1
1
1
1
1
1
1
1
1
1
1
1
1
1
1
1
1
1
1
1
1
1
1
1
1
1
1
1
1
1
1
1
1
1
1
1
1
1
1
1
1
1
1
1
1
1
1
1
1
1
1
1
1
1
1
1
1
1
1
1
1
1
1
1
1
1
1
1
1
1
1
1
1.07344
7.00859
10.3975
10.3609
10.3073
10.2694
10.2343
10.2018
10.1641
10.1244
1
1
1
1
1
1
1
1
1
1
1
1
1
1
1
1
1
1
1
1
1
1
1
1
1
1
1
1
1
1
1
1
1
1
1
1
1
1
1
1
1
1
1
1
1
1
1
1
1
1
1
1
1
1
1
1
1
1
1
1
1
1
1
1
1
1
1
1
1
1
1
1
1
1
1
1
1
1
1
1
1
1
1
1
1
1
1.00028
5.49016
10.1609
10.33
10.2959
10.2738
10.239
10.2037
10.1649
10.1233
1
1
1
1
1
1
1
1
1
1
1
1
1
1
1
1
1
1
1
1
1
1
1
1
1
1
1
1
1
1
1
1
1
1
1
1
1
1
1
1
1
1
1
1
1
1
1
1
1
1
1
1
1
1
1
1
1
1
1
1
1
1
1
1
1
1
1
1
1
1
1
1
1
1
1
1
1
1
1
1
1
1
1
1
1
1
1
4.04679
9.78963
10.3471
10.2976
10.2735
10.2378
10.2024
10.166
10.1288
1
1
1
1
1
1
1
1
1
1
1
1
1
1
1
1
1
1
1
1
1
1
1
1
1
1
1
1
1
1
1
1
1
1
1
1
1
1
1
1
1
1
1
1
1
1
1
1
1
1
1
1
1
1
1
1
1
1
1
1
1
1
1
1
1
1
1
1
1
1
1
1
1
1
1
1
1
1
1
1
1
1
1
1
1
1
1
2.78896
9.267
10.3649
10.2998
10.2729
10.2377
10.2032
10.168
10.1323
1
1
1
1
1
1
1
1
1
1
1
1
1
1
1
1
1
1
1
1
1
1
1
1
1
1
1
1
1
1
1
1
1
1
1
1
1
1
1
1
1
1
1
1
1
1
1
1
1
1
1
1
1
1
1
1
1
1
1
1
1
1
1
1
1
1
1
1
1
1
1
1
1
1
1
1
1
1
1
1
1
1
1
1
1
1
1
1.83375
8.45041
10.4121
10.3378
10.2985
10.2579
10.2184
10.1793
10.1408
1
1
1
1
1
1
1
1
1
1
1
1
1
1
1
1
1
1
1
1
1
1
1
1
1
1
1
1
1
1
1
1
1
1
1
1
1
1
1
1
1
1
1
1
1
1
1
1
1
1
1
1
1
1
1
1
1
1
1
1
1
1
1
1
1
1
1
1
1
1
1
1
1
1
1
1
1
1
1
1
1
1
1
1
1
1
1
1.26346
7.46431
10.4435
10.3834
10.3285
10.2839
10.2406
10.1984
10.157
1
1
1
1
1
1
1
1
1
1
1
1
1
1
1
1
1
1
1
1
1
1
1
1
1
1
1
1
1
1
1
1
1
1
1
1
1
1
1
1
1
1
1
1
1
1
1
1
1
1
1
1
1
1
1
1
1
1
1
1
1
1
1
1
1
1
1
1
1
1
1
1
1
1
1
1
1
1
1
1
1
1
1
1
1
1
1
1.00482
6.32016
10.3491
10.399
10.339
10.3008
10.2572
10.214
10.1703
1
1
1
1
1
1
1
1
1
1
1
1
1
1
1
1
1
1
1
1
1
1
1
1
1
1
1
1
1
1
1
1
1
1
1
1
1
1
1
1
1
1
1
1
1
1
1
1
1
1
1
1
1
1
1
1
1
1
1
1
1
1
1
1
1
1
1
1
1
1
1
1
1
1
1
1
1
1
1
1
1
1
1
1
1
1
1
1.00001
5.1983
10.1679
10.394
10.336
10.3047
10.2654
10.2269
10.1881
1
1
1
1
1
1
1
1
1
1
1
1
1
1
1
1
1
1
1
1
1
1
1
1
1
1
1
1
1
1
1
1
1
1
1
1
1
1
1
1
1
1
1
1
1
1
1
1
1
1
1
1
1
1
1
1
1
1
1
1
1
1
1
1
1
1
1
1
1
1
1
1
1
1
1
1
1
1
1
1
1
1
1
1
1
1
1
1
4.18535
9.9333
10.4231
10.3566
10.3247
10.2856
10.2471
10.2076
1
1
1
1
1
1
1
1
1
1
1
1
1
1
1
1
1
1
1
1
1
1
1
1
1
1
1
1
1
1
1
1
1
1
1
1
1
1
1
1
1
1
1
1
1
1
1
1
1
1
1
1
1
1
1
1
1
1
1
1
1
1
1
1
1
1
1
1
1
1
1
1
1
1
1
1
1
1
1
1
1
1
1
1
1
1
1
1
3.32915
9.64101
10.4518
10.3734
10.3383
10.2983
10.2594
10.2198
1
1
1
1
1
1
1
1
1
1
1
1
1
1
1
1
1
1
1
1
1
1
1
1
1
1
1
1
1
1
1
1
1
1
1
1
1
1
1
1
1
1
1
1
1
1
1
1
1
1
1
1
1
1
1
1
1
1
1
1
1
1
1
1
1
1
1
1
1
1
1
1
1
1
1
1
1
1
1
1
1
1
1
1
1
1
1
1
2.64295
9.30167
10.4609
10.382
10.345
10.3054
10.2671
10.2286
1
1
1
1
1
1
1
1
1
1
1
1
1
1
1
1
1
1
1
1
1
1
1
1
1
1
1
1
1
1
1
1
1
1
1
1
1
1
1
1
1
1
1
1
1
1
1
1
1
1
1
1
1
1
1
1
1
1
1
1
1
1
1
1
1
1
1
1
1
1
1
1
1
1
1
1
1
1
1
1
1
1
1
1
1
1
1
1
2.15184
8.90406
10.4601
10.3885
10.3514
10.3133
10.276
10.2376
1
1
1
1
1
1
1
1
1
1
1
1
1
1
1
1
1
1
1
1
1
1
1
1
1
1
1
1
1
1
1
1
1
1
1
1
1
1
1
1
1
1
1
1
1
1
1
1
1
1
1
1
1
1
1
1
1
1
1
1
1
1
1
1
1
1
1
1
1
1
1
1
1
1
1
1
1
1
1
1
1
1
1
1
1
1
1
1
1.81391
8.49514
10.4463
10.3893
10.3551
10.3169
10.2794
10.241
1
1
1
1
1
1
1
1
1
1
1
1
1
1
1
1
1
1
1
1
1
1
1
1
1
1
1
1
1
1
1
1
1
1
1
1
1
1
1
1
1
1
1
1
1
1
1
1
1
1
1
1
1
1
1
1
1
1
1
1
1
1
1
1
1
1
1
1
1
1
1
1
1
1
1
1
1
1
1
1
1
1
1
1
1
1
1
1
1.5759
8.09673
10.4281
10.387
10.3569
10.323
10.2873
10.2503
1
1
1
1
1
1
1
1
1
1
1
1
1
1
1
1
1
1
1
1
1
1
1
1
1
1
1
1
1
1
1
1
1
1
1
1
1
1
1
1
1
1
1
1
1
1
1
1
1
1
1
1
1
1
1
1
1
1
1
1
1
1
1
1
1
1
1
1
1
1
1
1
1
1
1
1
1
1
1
1
1
1
1
1
1
1
1
1
1.4015
7.72241
10.4231
10.392
10.3551
10.3227
10.2865
10.2512
1
1
1
1
1
1
1
1
1
1
1
1
1
1
1
1
1
1
1
1
1
1
1
1
1
1
1
1
1
1
1
1
1
1
1
1
1
1
1
1
1
1
1
1
1
1
1
1
1
1
1
1
1
1
1
1
1
1
1
1
1
1
1
1
1
1
1
1
1
1
1
1
1
1
1
1
1
1
1
1
1
1
1
1
1
1
1
1
1.25105
7.33327
10.426
10.4035
10.363
10.336
10.301
10.2655
1
1
1
1
1
1
1
1
1
1
1
1
1
1
1
1
1
1
1
1
1
1
1
1
1
1
1
1
1
1
1
1
1
1
1
1
1
1
1
1
1
1
1
1
1
1
1
1
1
1
1
1
1
1
1
1
1
1
1
1
1
1
1
1
1
1
1
1
1
1
1
1
1
1
1
1
1
1
1
1
1
1
1
1
1
1
1
1
1.08967
6.98189
10.4628
10.451
10.3986
10.3627
10.321
10.28
1
1
1
1
1
1
1
1
1
1
1
1
1
1
1
1
1
1
1
1
1
1
1
1
1
1
1
1
1
1
1
1
1
1
1
1
1
1
1
1
1
1
1
1
1
1
1
1
1
1
1
1
1
1
1
1
1
1
1
1
1
1
1
1
1
1
1
1
1
1
1
1
1
1
1
1
1
1
1
1
1
1
1
1
1
1
1
1
1.00133
6.72919
10.4754
10.4812
10.4158
10.3735
10.3295
10.2877
1
1
1
1
1
1
1
1
1
1
1
1
1
1
1
1
1
1
1
1
1
1
1
1
1
1
1
1
1
1
1
1
1
1
1
1
1
1
1
1
1
1
1
1
1
1
1
1
1
1
1
1
1
1
1
1
1
1
1
1
1
1
1
1
1
1
1
1
1
1
1
1
1
1
1
1
1
1
1
1
1
1
1
1
1
1
1
1
1
6.58731
10.4469
10.4855
10.4192
10.3805
10.3374
10.2958
1.06677
0.242963
0.0464668
0.0161701
0.0253118
0.0565437
0.0883771
0.116475
0.154599
0.223441
0.313642
0.401726
0.493257
0.576862
0.639865
0.718381
0.776765
0.829963
0.886963
0.922165
0.938431
0.967365
1.00758
1.02132
1.03972
1.05677
1.06699
1.06202
1.07159
1.09878
1.13821
1.18693
1.22597
1.24987
1.25506
1.25158
1.24838
1.24739
1.24855
1.2519
1.26509
1.28944
1.30315
1.30394
1.29996
1.30591
1.3636
1.62121
2.42618
5.22025
6.16789
6.24649
6.29366
6.32365
6.33731
6.34844
6.3588
6.37412
6.40551
6.4391
6.44639
6.42403
6.38649
6.34259
6.29954
6.26117
6.22539
6.17902
6.11813
6.05254
5.99284
5.94759