/*--------------------------------*- C++ -*----------------------------------*\
  =========                 |
  \\      /  F ield         | OpenFOAM: The Open Source CFD Toolbox
   \\    /   O peration     | Website:  https://openfoam.org
    \\  /    A nd           | Version:  7
     \\/     M anipulation  |
\*---------------------------------------------------------------------------*/
FoamFile
{
    version     2.0;
    format      ascii;
    class       volScalarField;
    location    "5.4";
    object      rho;
}
// * * * * * * * * * * * * * * * * * * * * * * * * * * * * * * * * * * * * * //

dimensions      [1 -3 0 0 0 0 0];

internalField   nonuniform List<scalar> 
19968
(
1.40001
1.40001
1.40001
1.40001
1.40001
1.40001
1.40001
1.40001
1.40001
1.40001
1.40001
1.40001
1.40001
1.40001
1.40001
1.40001
1.40001
1.40001
1.40001
1.40001
1.40001
1.40001
1.40001
1.40001
1.40001
1.40001
1.40001
1.40001
1.40001
1.40001
1.40001
1.40001
1.40001
1.40001
1.40001
1.40001
1.40001
1.40001
1.40001
1.40001
1.40001
1.40001
1.40001
1.40001
1.40001
1.40001
1.40001
1.40001
1.68883
4.56261
5.44321
5.43846
5.45696
5.47573
5.49747
5.52034
5.54383
5.56735
5.58983
5.61021
5.62808
5.64405
5.65987
5.6772
5.69627
5.71574
5.73446
5.75177
5.76722
5.78109
5.79437
5.80816
5.82289
5.83805
5.85273
5.86619
5.87829
5.88946
5.90032
5.91128
5.92235
5.93315
5.94321
5.9523
5.96047
5.96797
5.975
5.98156
5.98749
5.99265
5.99707
6.00108
6.00501
6.00889
6.01229
6.0154
1.40001
1.40001
1.40001
1.40001
1.40001
1.40001
1.40001
1.40001
1.40001
1.40001
1.40001
1.40001
1.40001
1.40001
1.40001
1.40001
1.40001
1.40001
1.40001
1.40001
1.40001
1.40001
1.40001
1.40001
1.40001
1.40001
1.40001
1.40001
1.40001
1.40001
1.40001
1.40001
1.40001
1.40001
1.40001
1.40001
1.40001
1.40001
1.40001
1.40001
1.40001
1.40001
1.40001
1.40001
1.40001
1.40001
1.40001
1.40001
1.67223
4.53458
5.43656
5.43898
5.45693
5.47565
5.49712
5.51979
5.54318
5.56663
5.58895
5.60907
5.62678
5.64267
5.65853
5.67573
5.69456
5.71378
5.73242
5.74975
5.76532
5.77936
5.79281
5.80674
5.82152
5.83664
5.85123
5.86462
5.87673
5.88796
5.89889
5.90987
5.92086
5.93151
5.94141
5.95035
5.95839
5.96579
5.97276
5.97935
5.9854
5.99073
5.99531
5.99933
6.00306
6.00654
6.00947
6.01216
1.40001
1.40001
1.40001
1.40001
1.40001
1.40001
1.40001
1.40001
1.40001
1.40001
1.40001
1.40001
1.40001
1.40001
1.40001
1.40001
1.40001
1.40001
1.40001
1.40001
1.40001
1.40001
1.40001
1.40001
1.40001
1.40001
1.40001
1.40001
1.40001
1.40001
1.40001
1.40001
1.40001
1.40001
1.40001
1.40001
1.40001
1.40001
1.40001
1.40001
1.40001
1.40001
1.40001
1.40001
1.40001
1.40001
1.40001
1.40001
1.63605
4.47833
5.43157
5.43623
5.45463
5.47384
5.49538
5.51789
5.54101
5.56414
5.58616
5.60613
5.62397
5.64002
5.65608
5.67311
5.69159
5.71038
5.72877
5.74599
5.76166
5.77594
5.78968
5.80385
5.81874
5.83384
5.84832
5.86165
5.8738
5.88516
5.89619
5.90717
5.91805
5.92853
5.93825
5.94703
5.95494
5.96223
5.96913
5.97574
5.98196
5.98758
5.99246
5.9966
6.0001
6.00304
6.0053
6.00734
1.40001
1.40001
1.40001
1.40001
1.40001
1.40001
1.40001
1.40001
1.40001
1.40001
1.40001
1.40001
1.40001
1.40001
1.40001
1.40001
1.40001
1.40001
1.40001
1.40001
1.40001
1.40001
1.40001
1.40001
1.40001
1.40001
1.40001
1.40001
1.40001
1.40001
1.40001
1.40001
1.40001
1.40001
1.40001
1.40001
1.40001
1.40001
1.40001
1.40001
1.40001
1.40001
1.40001
1.40001
1.40001
1.40001
1.40001
1.40001
1.58461
4.38753
5.42287
5.4325
5.45195
5.47189
5.49344
5.51564
5.53801
5.56027
5.58167
5.60151
5.6197
5.63612
5.65246
5.66926
5.68719
5.7053
5.72324
5.74027
5.75604
5.77065
5.78482
5.79933
5.81438
5.82946
5.84385
5.85715
5.86938
5.88089
5.89201
5.90292
5.91356
5.9237
5.93309
5.94159
5.94928
5.95638
5.96316
5.96976
5.97617
5.98217
5.98746
5.9918
5.99509
5.99741
5.99889
6.00021
1.40001
1.40001
1.40001
1.40001
1.40001
1.40001
1.40001
1.40001
1.40001
1.40001
1.40001
1.40001
1.40001
1.40001
1.40001
1.40001
1.40001
1.40001
1.40001
1.40001
1.40001
1.40001
1.40001
1.40001
1.40001
1.40001
1.40001
1.40001
1.40001
1.40001
1.40001
1.40001
1.40001
1.40001
1.40001
1.40001
1.40001
1.40001
1.40001
1.40001
1.40001
1.40001
1.40001
1.40001
1.40001
1.40001
1.40001
1.40001
1.51937
4.26918
5.41495
5.42868
5.44833
5.46852
5.48972
5.51132
5.53294
5.55452
5.57557
5.59551
5.61432
5.63157
5.64852
5.66525
5.6825
5.69961
5.71674
5.73329
5.74906
5.76401
5.77863
5.79349
5.80869
5.82379
5.83818
5.85154
5.86394
5.87561
5.88679
5.89757
5.90793
5.91774
5.92687
5.93522
5.94283
5.94985
5.95651
5.96299
5.96934
5.97534
5.9806
5.98466
5.98728
5.98858
5.989
5.98944
1.40001
1.40001
1.40001
1.40001
1.40001
1.40001
1.40001
1.40001
1.40001
1.40001
1.40001
1.40001
1.40001
1.40001
1.40001
1.40001
1.40001
1.40001
1.40001
1.40001
1.40001
1.40001
1.40001
1.40001
1.40001
1.40001
1.40001
1.40001
1.40001
1.40001
1.40001
1.40001
1.40001
1.40001
1.40001
1.40001
1.40001
1.40001
1.40001
1.40001
1.40001
1.40001
1.40001
1.40001
1.40001
1.40001
1.40001
1.40001
1.40655
4.07872
5.40297
5.4239
5.44537
5.46696
5.48834
5.50923
5.52997
5.55064
5.57093
5.59035
5.60928
5.62736
5.64499
5.66164
5.67783
5.69336
5.70905
5.72468
5.74019
5.7553
5.77011
5.78496
5.79994
5.81476
5.82895
5.84228
5.85475
5.86646
5.8775
5.88795
5.89785
5.90725
5.91613
5.92446
5.93223
5.9395
5.94641
5.95313
5.95971
5.96596
5.97141
5.97543
5.9776
5.97817
5.97779
5.97756
1.40001
1.40001
1.40001
1.40001
1.40001
1.40001
1.40001
1.40001
1.40001
1.40001
1.40001
1.40001
1.40001
1.40001
1.40001
1.40001
1.40001
1.40001
1.40001
1.40001
1.40001
1.40001
1.40001
1.40001
1.40001
1.40001
1.40001
1.40001
1.40001
1.40001
1.40001
1.40001
1.40001
1.40001
1.40001
1.40001
1.40001
1.40001
1.40001
1.40001
1.40001
1.40001
1.40001
1.40001
1.40001
1.40001
1.40001
1.40001
1.40005
3.78286
5.36751
5.40765
5.42966
5.45293
5.47478
5.49569
5.51615
5.53635
5.55629
5.57593
5.59546
5.61458
5.63302
5.65001
5.66577
5.68041
5.69528
5.71043
5.72579
5.74097
5.75577
5.7705
5.78528
5.80001
5.81432
5.82796
5.84076
5.85265
5.86359
5.8737
5.88316
5.89222
5.90099
5.9095
5.91767
5.92543
5.93276
5.93974
5.94638
5.95254
5.9578
5.9615
5.96315
5.96322
5.96236
5.96174
1.40001
1.40001
1.40001
1.40001
1.40001
1.40001
1.40001
1.40001
1.40001
1.40001
1.40001
1.40001
1.40001
1.40001
1.40001
1.40001
1.40001
1.40001
1.40001
1.40001
1.40001
1.40001
1.40001
1.40001
1.40001
1.40001
1.40001
1.40001
1.40001
1.40001
1.40001
1.40001
1.40001
1.40001
1.40001
1.40001
1.40001
1.40001
1.40001
1.40001
1.40001
1.40001
1.40001
1.40001
1.40001
1.40001
1.40001
1.40001
1.40001
3.38568
5.31666
5.40061
5.42043
5.44499
5.46736
5.489
5.50975
5.52949
5.54869
5.56798
5.58726
5.60625
5.6244
5.64108
5.65617
5.66991
5.6839
5.69839
5.71321
5.72798
5.74219
5.7563
5.77047
5.78478
5.7989
5.81258
5.82547
5.8373
5.84794
5.85753
5.8664
5.87497
5.8835
5.89207
5.90055
5.90871
5.91639
5.92351
5.93004
5.93584
5.94061
5.94375
5.9449
5.94462
5.94343
5.94267
1.40001
1.40001
1.40001
1.40001
1.40001
1.40001
1.40001
1.40001
1.40001
1.40001
1.40001
1.40001
1.40001
1.40001
1.40001
1.40001
1.40001
1.40001
1.40001
1.40001
1.40001
1.40001
1.40001
1.40001
1.40001
1.40001
1.40001
1.40001
1.40001
1.40001
1.40001
1.40001
1.40001
1.40001
1.40001
1.40001
1.40001
1.40001
1.40001
1.40001
1.40001
1.40001
1.40001
1.40001
1.40001
1.40001
1.40001
1.40001
1.40001
2.9078
5.22382
5.40356
5.41698
5.44033
5.46149
5.48275
5.5037
5.52359
5.54245
5.56112
5.57953
5.59742
5.61444
5.63038
5.64486
5.65794
5.67114
5.68479
5.69855
5.71238
5.72545
5.73849
5.75166
5.76514
5.77866
5.79198
5.80469
5.81634
5.82666
5.83578
5.84407
5.85207
5.86019
5.86859
5.87716
5.8856
5.89361
5.90094
5.90746
5.91301
5.91738
5.92013
5.921
5.92064
5.91939
5.91868
1.40001
1.40001
1.40001
1.40001
1.40001
1.40001
1.40001
1.40001
1.40001
1.40001
1.40001
1.40001
1.40001
1.40001
1.40001
1.40001
1.40001
1.40001
1.40001
1.40001
1.40001
1.40001
1.40001
1.40001
1.40001
1.40001
1.40001
1.40001
1.40001
1.40001
1.40001
1.40001
1.40001
1.40001
1.40001
1.40001
1.40001
1.40001
1.40001
1.40001
1.40001
1.40001
1.40001
1.40001
1.40001
1.40001
1.40001
1.40001
1.40001
2.36786
5.0453
5.4104
5.42504
5.44595
5.46337
5.48192
5.5015
5.52104
5.53919
5.55655
5.57334
5.58935
5.60466
5.61952
5.63348
5.64615
5.65866
5.67146
5.68404
5.69674
5.7086
5.72025
5.73192
5.74391
5.75606
5.76818
5.77997
5.79091
5.80062
5.80913
5.81683
5.82426
5.83188
5.83993
5.84833
5.85677
5.86482
5.87211
5.87838
5.88345
5.88717
5.88922
5.88963
5.88904
5.88764
5.88689
1.40001
1.40001
1.40001
1.40001
1.40001
1.40001
1.40001
1.40001
1.40001
1.40001
1.40001
1.40001
1.40001
1.40001
1.40001
1.40001
1.40001
1.40001
1.40001
1.40001
1.40001
1.40001
1.40001
1.40001
1.40001
1.40001
1.40001
1.40001
1.40001
1.40001
1.40001
1.40001
1.40001
1.40001
1.40001
1.40001
1.40001
1.40001
1.40001
1.40001
1.40001
1.40001
1.40001
1.40001
1.40001
1.40001
1.40001
1.40001
1.40001
1.84704
4.71426
5.42792
5.41848
5.43742
5.45286
5.47094
5.49031
5.50998
5.528
5.54483
5.56123
5.57686
5.59157
5.6059
5.61967
5.63222
5.64434
5.65662
5.66845
5.6802
5.69126
5.7018
5.71214
5.72251
5.73307
5.74367
5.75407
5.76376
5.7723
5.77959
5.78595
5.7919
5.79791
5.80429
5.8111
5.8182
5.82529
5.83202
5.83808
5.84313
5.84682
5.84881
5.84922
5.84872
5.84742
5.84678
1.40001
1.40001
1.40001
1.40001
1.40001
1.40001
1.40001
1.40001
1.40001
1.40001
1.40001
1.40001
1.40001
1.40001
1.40001
1.40001
1.40001
1.40001
1.40001
1.40001
1.40001
1.40001
1.40001
1.40001
1.40001
1.40001
1.40001
1.40001
1.40001
1.40001
1.40001
1.40001
1.40001
1.40001
1.40001
1.40001
1.40001
1.40001
1.40001
1.40001
1.40001
1.40001
1.40001
1.40001
1.40001
1.40001
1.40001
1.40001
1.40001
1.42145
4.05888
5.40815
5.41851
5.43143
5.44731
5.46396
5.48133
5.49928
5.51632
5.532
5.54741
5.56204
5.57565
5.5889
5.60175
5.61347
5.62441
5.63551
5.64628
5.65669
5.66684
5.6761
5.68507
5.69386
5.7028
5.71177
5.72065
5.72902
5.73643
5.74268
5.748
5.75281
5.75757
5.76257
5.76794
5.77364
5.77953
5.78524
5.79025
5.79382
5.79563
5.79565
5.79416
5.79217
5.79004
5.78895
1.40001
1.40001
1.40001
1.40001
1.40001
1.40001
1.40001
1.40001
1.40001
1.40001
1.40001
1.40001
1.40001
1.40001
1.40001
1.40001
1.40001
1.40001
1.40001
1.40001
1.40001
1.40001
1.40001
1.40001
1.40001
1.40001
1.40001
1.40001
1.40001
1.40001
1.40001
1.40001
1.40001
1.40001
1.40001
1.40001
1.40001
1.40001
1.40001
1.40001
1.40001
1.40001
1.40001
1.40001
1.40001
1.40001
1.40001
1.40001
1.40001
1.40004
3.17287
5.24392
5.36329
5.38776
5.41158
5.43092
5.44874
5.46564
5.48172
5.49667
5.5115
5.52642
5.54059
5.55412
5.56707
5.57896
5.5899
5.60073
5.6115
5.62154
5.6312
5.63989
5.64806
5.6559
5.66361
5.67113
5.67839
5.68516
5.69102
5.69574
5.69937
5.70228
5.70483
5.7073
5.70964
5.7118
5.71397
5.71632
5.71859
5.72014
5.72068
5.7204
5.71919
5.71805
5.7168
5.71643
1.40001
1.40001
1.40001
1.40001
1.40001
1.40001
1.40001
1.40001
1.40001
1.40001
1.40001
1.40001
1.40001
1.40001
1.40001
1.40001
1.40001
1.40001
1.40001
1.40001
1.40001
1.40001
1.40001
1.40001
1.40001
1.40001
1.40001
1.40001
1.40001
1.40001
1.40001
1.40001
1.40001
1.40001
1.40001
1.40001
1.40001
1.40001
1.40001
1.40001
1.40001
1.40001
1.40001
1.40001
1.40001
1.40001
1.40001
1.40001
1.40001
1.4
2.14959
4.88356
5.36613
5.3755
5.40064
5.41963
5.43638
5.45134
5.46504
5.47784
5.49075
5.50443
5.518
5.53086
5.54274
5.55345
5.56314
5.57247
5.58188
5.59064
5.59859
5.60566
5.6119
5.61777
5.6233
5.62843
5.63307
5.63713
5.64029
5.64229
5.64304
5.64292
5.64239
5.64192
5.64112
5.64012
5.63927
5.63883
5.6384
5.63713
5.63356
5.62772
5.61925
5.61016
5.60157
5.59427
1.40001
1.40001
1.40001
1.40001
1.40001
1.40001
1.40001
1.40001
1.40001
1.40001
1.40001
1.40001
1.40001
1.40001
1.40001
1.40001
1.40001
1.40001
1.40001
1.40001
1.40001
1.40001
1.40001
1.40001
1.40001
1.40001
1.40001
1.40001
1.40001
1.40001
1.40001
1.40001
1.40001
1.40001
1.40001
1.40001
1.40001
1.40001
1.40001
1.40001
1.40001
1.40001
1.40001
1.40001
1.40001
1.40001
1.40001
1.40001
1.40001
1.40001
1.44058
3.94706
5.38059
5.3953
5.40407
5.41422
5.4237
5.43342
5.44315
5.45341
5.46431
5.476
5.48785
5.49906
5.50912
5.5179
5.52569
5.53298
5.54029
5.54745
5.55369
5.55908
5.56333
5.56678
5.56976
5.57222
5.57418
5.5753
5.5754
5.57437
5.57169
5.56752
5.5626
5.55706
5.55053
5.54329
5.5349
5.525
5.51288
5.49785
5.47985
5.46014
5.44287
5.42845
5.42214
5.41954
1.40001
1.40001
1.40001
1.40001
1.40001
1.40001
1.40001
1.40001
1.40001
1.40001
1.40001
1.40001
1.40001
1.40001
1.40001
1.40001
1.40001
1.40001
1.40001
1.40001
1.40001
1.40001
1.40001
1.40001
1.40001
1.40001
1.40001
1.40001
1.40001
1.40001
1.40001
1.40001
1.40001
1.40001
1.40001
1.40001
1.40001
1.40001
1.40001
1.40001
1.40001
1.40001
1.40001
1.40001
1.40001
1.40001
1.40001
1.40001
1.40001
1.40001
1.40005
2.59568
5.06256
5.33975
5.35671
5.37357
5.38797
5.40062
5.41114
5.42006
5.42906
5.43913
5.45036
5.46169
5.47174
5.47972
5.48586
5.49099
5.49584
5.50065
5.50498
5.50824
5.51005
5.51044
5.50966
5.5081
5.50603
5.50334
5.50011
5.49543
5.4885
5.47899
5.46733
5.45393
5.43924
5.42332
5.40558
5.38537
5.36234
5.33695
5.30969
5.28102
5.24436
5.20299
5.14616
5.16463
1.40001
1.40001
1.40001
1.40001
1.40001
1.40001
1.40001
1.40001
1.40001
1.40001
1.40001
1.40001
1.40001
1.40001
1.40001
1.40001
1.40001
1.40001
1.40001
1.40001
1.40001
1.40001
1.40001
1.40001
1.40001
1.40001
1.40001
1.40001
1.40001
1.40001
1.40001
1.40001
1.40001
1.40001
1.40001
1.40001
1.40001
1.40001
1.40001
1.40001
1.40001
1.40001
1.40001
1.40001
1.40001
1.40001
1.40001
1.40001
1.40001
1.40001
1.40001
1.54383
4.36118
5.36087
5.35388
5.36149
5.37232
5.38302
5.39268
5.39964
5.40621
5.41335
5.42154
5.43038
5.43863
5.44509
5.44947
5.45235
5.45448
5.45616
5.45758
5.45834
5.45795
5.45586
5.45162
5.44576
5.43917
5.43238
5.42526
5.4169
5.4061
5.39159
5.37301
5.35103
5.32667
5.29992
5.2693
5.23309
5.18843
5.13365
5.06139
4.96484
4.81653
4.58616
4.17523
3.26557
1.40001
1.40001
1.40001
1.40001
1.40001
1.40001
1.40001
1.40001
1.40001
1.40001
1.40001
1.40001
1.40001
1.40001
1.40001
1.40001
1.40001
1.40001
1.40001
1.40001
1.40001
1.40001
1.40001
1.40001
1.40001
1.40001
1.40001
1.40001
1.40001
1.40001
1.40001
1.40001
1.40001
1.40001
1.40001
1.40001
1.40001
1.40001
1.40001
1.40001
1.40001
1.40001
1.40001
1.40001
1.40001
1.40001
1.40001
1.40001
1.40001
1.40001
1.40001
1.40104
3.20039
5.15334
5.31335
5.33025
5.34651
5.35976
5.37073
5.37603
5.37942
5.38337
5.38898
5.39622
5.40366
5.40977
5.41368
5.4155
5.41594
5.41516
5.41367
5.4118
5.40943
5.406
5.40049
5.39217
5.3818
5.37028
5.35835
5.34575
5.33115
5.31251
5.28837
5.259
5.22514
5.18748
5.14334
5.0914
5.02583
4.94571
4.83792
4.69781
4.49068
4.21388
3.68014
2.91445
1.40001
1.40001
1.40001
1.40001
1.40001
1.40001
1.40001
1.40001
1.40001
1.40001
1.40001
1.40001
1.40001
1.40001
1.40001
1.40001
1.40001
1.40001
1.40001
1.40001
1.40001
1.40001
1.40001
1.40001
1.40001
1.40001
1.40001
1.40001
1.40001
1.40001
1.40001
1.40001
1.40001
1.40001
1.40001
1.40001
1.40001
1.40001
1.40001
1.40001
1.40001
1.40001
1.40001
1.40001
1.40001
1.40001
1.40001
1.40001
1.40001
1.40001
1.40001
1.4
1.93256
4.70056
5.33192
5.32269
5.33835
5.35056
5.35906
5.36118
5.3625
5.36497
5.36861
5.37339
5.3781
5.38177
5.3837
5.38391
5.38241
5.37911
5.37405
5.3679
5.36199
5.35617
5.34872
5.33818
5.3244
5.30821
5.29094
5.27313
5.25359
5.23016
5.20052
5.16455
5.12184
5.07385
5.01688
4.95022
4.86767
4.76699
4.63902
4.4713
4.25454
3.93455
3.49481
2.97755
1.40001
1.40001
1.40001
1.40001
1.40001
1.40001
1.40001
1.40001
1.40001
1.40001
1.40001
1.40001
1.40001
1.40001
1.40001
1.40001
1.40001
1.40001
1.40001
1.40001
1.40001
1.40001
1.40001
1.40001
1.40001
1.40001
1.40001
1.40001
1.40001
1.40001
1.40001
1.40001
1.40001
1.40001
1.40001
1.40001
1.40001
1.40001
1.40001
1.40001
1.40001
1.40001
1.40001
1.40001
1.40001
1.40001
1.40001
1.40001
1.40001
1.40001
1.40001
1.4
1.42225
3.5283
5.24309
5.30974
5.323
5.32993
5.33211
5.33272
5.33674
5.34266
5.34769
5.35166
5.35415
5.35499
5.35394
5.35136
5.34717
5.34133
5.33353
5.3238
5.31412
5.30482
5.29425
5.28118
5.26484
5.24547
5.22387
5.20117
5.1762
5.14734
5.1119
5.07001
5.02039
4.96394
4.89721
4.81867
4.72435
4.61069
4.47276
4.29859
4.0831
3.79741
3.46531
3.07865
1.40001
1.40001
1.40001
1.40001
1.40001
1.40001
1.40001
1.40001
1.40001
1.40001
1.40001
1.40001
1.40001
1.40001
1.40001
1.40001
1.40001
1.40001
1.40001
1.40001
1.40001
1.40001
1.40001
1.40001
1.40001
1.40001
1.40001
1.40001
1.40001
1.40001
1.40001
1.40001
1.40001
1.40001
1.40001
1.40001
1.40001
1.40001
1.40001
1.40001
1.40001
1.40001
1.40001
1.40001
1.40001
1.40001
1.40001
1.40001
1.40001
1.40001
1.40001
1.40001
1.4
2.0526
4.80123
5.33513
5.31121
5.31448
5.31412
5.31375
5.31683
5.32295
5.3283
5.33178
5.33263
5.33029
5.32537
5.31845
5.31069
5.3028
5.29404
5.28325
5.27099
5.25759
5.24258
5.22549
5.20569
5.18344
5.15856
5.13204
5.10221
5.06773
5.02631
4.97868
4.92412
4.8623
4.79028
4.70518
4.60471
4.48541
4.34564
4.17546
3.97695
3.74061
3.47777
3.18313
1.40001
1.40001
1.40001
1.40001
1.40001
1.40001
1.40001
1.40001
1.40001
1.40001
1.40001
1.40001
1.40001
1.40001
1.40001
1.40001
1.40001
1.40001
1.40001
1.40001
1.40001
1.40001
1.40001
1.40001
1.40001
1.40001
1.40001
1.40001
1.40001
1.40001
1.40001
1.40001
1.40001
1.40001
1.40001
1.40001
1.40001
1.40001
1.40001
1.40001
1.40001
1.40001
1.40001
1.40001
1.40001
1.40001
1.40001
1.40001
1.40001
1.40001
1.40001
1.40001
1.4
1.4298
3.5531
5.2468
5.28009
5.29019
5.29215
5.29376
5.29713
5.30216
5.30662
5.3092
5.30891
5.30557
5.29827
5.28781
5.27609
5.26499
5.25435
5.24287
5.22928
5.21279
5.19342
5.17209
5.1486
5.12351
5.09592
5.06613
5.03207
4.99253
4.94579
4.89303
4.83448
4.76937
4.69523
4.60857
4.50784
4.38867
4.25421
4.09236
3.91768
3.71904
3.50365
3.2689
1.40001
1.40001
1.40001
1.40001
1.40001
1.40001
1.40001
1.40001
1.40001
1.40001
1.40001
1.40001
1.40001
1.40001
1.40001
1.40001
1.40001
1.40001
1.40001
1.40001
1.40001
1.40001
1.40001
1.40001
1.40001
1.40001
1.40001
1.40001
1.40001
1.40001
1.40001
1.40001
1.40001
1.40001
1.40001
1.40001
1.40001
1.40001
1.40001
1.40001
1.40001
1.40001
1.40001
1.40001
1.40001
1.40001
1.40001
1.40001
1.40001
1.40001
1.40001
1.40001
1.4
1.40002
1.97934
4.73926
5.29249
5.27627
5.27493
5.27374
5.27489
5.27681
5.27858
5.27896
5.2776
5.2743
5.26578
5.25368
5.24021
5.22667
5.214
5.20181
5.1874
5.16876
5.1459
5.12084
5.09411
5.0667
5.03719
5.00471
4.96703
4.92333
4.87271
4.81603
4.75394
4.68639
4.61183
4.52707
4.4308
4.31647
4.19048
4.04305
3.88878
3.71535
3.53411
3.3365
1.40001
1.40001
1.40001
1.40001
1.40001
1.40001
1.40001
1.40001
1.40001
1.40001
1.40001
1.40001
1.40001
1.40001
1.40001
1.40001
1.40001
1.40001
1.40001
1.40001
1.40001
1.40001
1.40001
1.40001
1.40001
1.40001
1.40001
1.40001
1.40001
1.40001
1.40001
1.40001
1.40001
1.40001
1.40001
1.40001
1.40001
1.40001
1.40001
1.40001
1.40001
1.40001
1.40001
1.40001
1.40001
1.40001
1.40001
1.40001
1.40001
1.40001
1.40001
1.40001
1.40001
1.40001
1.42152
3.31978
5.14382
5.24085
5.24376
5.24638
5.25208
5.2548
5.25402
5.25104
5.24879
5.2452
5.23637
5.22345
5.20896
5.19317
5.17775
5.16339
5.14673
5.12556
5.10006
5.07251
5.04381
5.01482
4.98369
4.94861
4.90763
4.8608
4.80806
4.74939
4.68502
4.61533
4.54009
4.45746
4.36613
4.26032
4.14402
4.01423
3.87511
3.7236
3.56703
3.39668
1.40001
1.40001
1.40001
1.40001
1.40001
1.40001
1.40001
1.40001
1.40001
1.40001
1.40001
1.40001
1.40001
1.40001
1.40001
1.40001
1.40001
1.40001
1.40001
1.40001
1.40001
1.40001
1.40001
1.40001
1.40001
1.40001
1.40001
1.40001
1.40001
1.40001
1.40001
1.40001
1.40001
1.40001
1.40001
1.40001
1.40001
1.40001
1.40001
1.40001
1.40001
1.40001
1.40001
1.40001
1.40001
1.40001
1.40001
1.40001
1.40001
1.40001
1.40001
1.40001
1.40001
1.40001
1.40001
1.71823
4.51526
5.27651
5.25205
5.24163
5.23581
5.23177
5.22559
5.21855
5.21388
5.20845
5.19898
5.18616
5.17193
5.15663
5.14003
5.12423
5.10556
5.0829
5.05647
5.02757
4.99705
4.96632
4.93358
4.89661
4.85354
4.80478
4.75106
4.69193
4.62722
4.55682
4.48219
4.40042
4.31313
4.21586
4.10847
3.99511
3.87018
3.73757
3.59622
3.44896
1.40001
1.40001
1.40001
1.40001
1.40001
1.40001
1.40001
1.40001
1.40001
1.40001
1.40001
1.40001
1.40001
1.40001
1.40001
1.40001
1.40001
1.40001
1.40001
1.40001
1.40001
1.40001
1.40001
1.40001
1.40001
1.40001
1.40001
1.40001
1.40001
1.40001
1.40001
1.40001
1.40001
1.40001
1.40001
1.40001
1.40001
1.40001
1.40001
1.40001
1.40001
1.40001
1.40001
1.40001
1.40001
1.40001
1.40001
1.40001
1.40001
1.40001
1.40001
1.40001
1.40001
1.40001
1.40001
1.40545
2.90568
5.0258
5.18371
5.19156
5.1992
5.19793
5.19273
5.18404
5.17475
5.16712
5.15766
5.14699
5.13468
5.12055
5.10346
5.08552
5.06385
5.03983
5.01316
4.9842
4.95306
4.92096
4.88634
4.84773
4.80368
4.75435
4.70096
4.64281
4.57952
4.51015
4.43774
4.35555
4.27188
4.18039
4.08107
3.97998
3.86659
3.74997
3.62317
3.49512
1.40001
1.40001
1.40001
1.40001
1.40001
1.40001
1.40001
1.40001
1.40001
1.40001
1.40001
1.40001
1.40001
1.40001
1.40001
1.40001
1.40001
1.40001
1.40001
1.40001
1.40001
1.40001
1.40001
1.40001
1.40001
1.40001
1.40001
1.40001
1.40001
1.40001
1.40001
1.40001
1.40001
1.40001
1.40001
1.40001
1.40001
1.40001
1.40001
1.40001
1.40001
1.40001
1.40001
1.40001
1.40001
1.40001
1.40001
1.40001
1.40001
1.40001
1.40001
1.40001
1.40001
1.40001
1.40001
1.40001
1.54601
3.9544
5.1688
5.18399
5.1783
5.17335
5.17014
5.16184
5.14807
5.13566
5.12456
5.11347
5.10193
5.08814
5.07087
5.05043
5.02604
5.00197
4.97529
4.9454
4.91333
4.87996
4.84319
4.80311
4.75871
4.70971
4.65722
4.60011
4.53923
4.47143
4.40197
4.32152
4.24213
4.15517
4.06265
3.96874
3.86423
3.76057
3.64719
3.53342
1.40001
1.40001
1.40001
1.40001
1.40001
1.40001
1.40001
1.40001
1.40001
1.40001
1.40001
1.40001
1.40001
1.40001
1.40001
1.40001
1.40001
1.40001
1.40001
1.40001
1.40001
1.40001
1.40001
1.40001
1.40001
1.40001
1.40001
1.40001
1.40001
1.40001
1.40001
1.40001
1.40001
1.40001
1.40001
1.40001
1.40001
1.40001
1.40001
1.40001
1.40001
1.40001
1.40001
1.40001
1.40001
1.40001
1.40001
1.40001
1.40001
1.40001
1.40001
1.40001
1.40001
1.40001
1.40001
1.40001
1.40103
2.08054
4.73269
5.18388
5.15394
5.15238
5.14821
5.14153
5.12662
5.10903
5.09504
5.08226
5.06974
5.05513
5.03735
5.01551
4.99005
4.96636
4.93947
4.90834
4.87497
4.84038
4.802
4.76113
4.71687
4.66939
4.61807
4.56232
4.50499
4.43854
4.37169
4.29592
4.22088
4.13859
4.05165
3.96308
3.86648
3.77201
3.66967
3.5666
1.40001
1.40001
1.40001
1.40001
1.40001
1.40001
1.40001
1.40001
1.40001
1.40001
1.40001
1.40001
1.40001
1.40001
1.40001
1.40001
1.40001
1.40001
1.40001
1.40001
1.40001
1.40001
1.40001
1.40001
1.40001
1.40001
1.40001
1.40001
1.40001
1.40001
1.40001
1.40001
1.40001
1.40001
1.40001
1.40001
1.40001
1.40001
1.40001
1.40001
1.40001
1.40001
1.40001
1.40001
1.40001
1.40001
1.40001
1.40001
1.40001
1.40001
1.40001
1.40001
1.40001
1.40001
1.40001
1.40001
1.40001
1.42752
3.06631
5.03305
5.1317
5.13252
5.13205
5.12535
5.10873
5.08917
5.07328
5.05709
5.0412
5.02463
5.00558
4.98322
4.9583
4.93324
4.90717
4.87476
4.84011
4.80401
4.76588
4.72407
4.6806
4.63532
4.58534
4.53199
4.47496
4.41172
4.34679
4.2757
4.20421
4.12679
4.04484
3.96229
3.87269
3.78467
3.69077
3.5969
1.40001
1.40001
1.40001
1.40001
1.40001
1.40001
1.40001
1.40001
1.40001
1.40001
1.40001
1.40001
1.40001
1.40001
1.40001
1.40001
1.40001
1.40001
1.40001
1.40001
1.40001
1.40001
1.40001
1.40001
1.40001
1.40001
1.40001
1.40001
1.40001
1.40001
1.40001
1.40001
1.40001
1.40001
1.40001
1.40001
1.40001
1.40001
1.40001
1.40001
1.40001
1.40001
1.40001
1.40001
1.40001
1.40001
1.40001
1.40001
1.40001
1.40001
1.40001
1.40001
1.40001
1.40001
1.40001
1.40001
1.40001
1.40006
1.57119
3.76158
5.08306
5.13049
5.12495
5.11952
5.10249
5.0803
5.06045
5.04054
5.0199
4.99987
4.97856
4.95517
4.92997
4.90335
4.87738
4.84488
4.80963
4.77211
4.73332
4.6914
4.6484
4.60409
4.55663
4.50444
4.44842
4.38863
4.3263
4.2589
4.1906
4.11825
4.04068
3.96385
3.88099
3.79957
3.71253
3.62606
1.40001
1.40001
1.40001
1.40001
1.40001
1.40001
1.40001
1.40001
1.40001
1.40001
1.40001
1.40001
1.40001
1.40001
1.40001
1.40001
1.40001
1.40001
1.40001
1.40001
1.40001
1.40001
1.40001
1.40001
1.40001
1.40001
1.40001
1.40001
1.40001
1.40001
1.40001
1.40001
1.40001
1.40001
1.40001
1.40001
1.40001
1.40001
1.40001
1.40001
1.40001
1.40001
1.40001
1.40001
1.40001
1.40001
1.40001
1.40001
1.40001
1.40001
1.40001
1.40001
1.40001
1.40001
1.40001
1.40001
1.40001
1.40001
1.40154
1.79131
4.44865
5.16596
5.13583
5.11469
5.08809
5.06342
5.04009
5.01789
4.99589
4.97408
4.95267
4.92979
4.90457
4.87679
4.84872
4.81711
4.7813
4.7438
4.70471
4.66401
4.62155
4.57787
4.5312
4.48119
4.42759
4.37012
4.31032
4.24612
4.18044
4.11171
4.03842
3.96594
3.88935
3.81369
3.73323
3.65261
1.40001
1.40001
1.40001
1.40001
1.40001
1.40001
1.40001
1.40001
1.40001
1.40001
1.40001
1.40001
1.40001
1.40001
1.40001
1.40001
1.40001
1.40001
1.40001
1.40001
1.40001
1.40001
1.40001
1.40001
1.40001
1.40001
1.40001
1.40001
1.40001
1.40001
1.40001
1.40001
1.40001
1.40001
1.40001
1.40001
1.40001
1.40001
1.40001
1.40001
1.40001
1.40001
1.40001
1.40001
1.40001
1.40001
1.40001
1.40001
1.40001
1.40001
1.40001
1.40001
1.40001
1.40001
1.40001
1.40001
1.40001
1.40001
1.40001
1.40833
2.52756
4.88846
5.10417
5.07063
5.04946
5.0304
5.01343
4.99545
4.97629
4.9555
4.93255
4.90936
4.88355
4.85449
4.82493
4.79316
4.75747
4.72037
4.6817
4.64114
4.59881
4.55542
4.50972
4.46129
4.40967
4.35438
4.29682
4.23582
4.17277
4.10674
4.03774
3.96837
3.89779
3.82669
3.75272
3.67703
1.40001
1.40001
1.40001
1.40001
1.40001
1.40001
1.40001
1.40001
1.40001
1.40001
1.40001
1.40001
1.40001
1.40001
1.40001
1.40001
1.40001
1.40001
1.40001
1.40001
1.40001
1.40001
1.40001
1.40001
1.40001
1.40001
1.40001
1.40001
1.40001
1.40001
1.40001
1.40001
1.40001
1.40001
1.40001
1.40001
1.40001
1.40001
1.40001
1.40001
1.40001
1.40001
1.40001
1.40001
1.40001
1.40001
1.40001
1.40001
1.40001
1.40001
1.40001
1.40001
1.40001
1.40001
1.40001
1.40001
1.40001
1.40001
1.40001
1.40002
1.47389
3.17527
4.98134
5.03659
5.02032
5.01699
5.00628
4.99142
4.9732
4.95227
4.92789
4.90257
4.87528
4.84364
4.81165
4.77721
4.74017
4.70228
4.66336
4.6231
4.58059
4.5374
4.49265
4.44528
4.39524
4.34195
4.28604
4.22748
4.16687
4.1035
4.03823
3.97151
3.90557
3.83809
3.76989
3.6986
1.40001
1.40001
1.40001
1.40001
1.40001
1.40001
1.40001
1.40001
1.40001
1.40001
1.40001
1.40001
1.40001
1.40001
1.40001
1.40001
1.40001
1.40001
1.40001
1.40001
1.40001
1.40001
1.40001
1.40001
1.40001
1.40001
1.40001
1.40001
1.40001
1.40001
1.40001
1.40001
1.40001
1.40001
1.40001
1.40001
1.40001
1.40001
1.40001
1.40001
1.40001
1.40001
1.40001
1.40001
1.40001
1.40001
1.40001
1.40001
1.40001
1.40001
1.40001
1.40001
1.40001
1.40001
1.40001
1.40001
1.40001
1.40001
1.40001
1.40001
1.40038
1.59303
3.56274
4.98197
5.00905
5.00445
4.99734
4.98414
4.96747
4.94702
4.92294
4.89664
4.8677
4.83513
4.80124
4.76508
4.72729
4.68883
4.64932
4.6085
4.56628
4.52296
4.47844
4.43223
4.38365
4.33195
4.27726
4.22045
4.16172
4.10089
4.03855
3.9751
3.91264
3.8486
3.78515
3.71794
1.40001
1.40001
1.40001
1.40001
1.40001
1.40001
1.40001
1.40001
1.40001
1.40001
1.40001
1.40001
1.40001
1.40001
1.40001
1.40001
1.40001
1.40001
1.40001
1.40001
1.40001
1.40001
1.40001
1.40001
1.40001
1.40001
1.40001
1.40001
1.40001
1.40001
1.40001
1.40001
1.40001
1.40001
1.40001
1.40001
1.40001
1.40001
1.40001
1.40001
1.40001
1.40001
1.40001
1.40001
1.40001
1.40001
1.40001
1.40001
1.40001
1.40001
1.40001
1.40001
1.40001
1.40001
1.40001
1.40001
1.40001
1.40001
1.40001
1.40001
1.40001
1.40209
1.71262
3.87798
5.00941
5.00845
4.99299
4.97611
4.95763
4.93644
4.91299
4.88795
4.85973
4.82821
4.79422
4.75797
4.72019
4.68131
4.64104
4.5995
4.55727
4.5143
4.47029
4.42475
4.37688
4.32599
4.27211
4.21633
4.15879
4.09962
4.03943
3.97953
3.91979
3.85899
3.79926
3.73627
1.40001
1.40001
1.40001
1.40001
1.40001
1.40001
1.40001
1.40001
1.40001
1.40001
1.40001
1.40001
1.40001
1.40001
1.40001
1.40001
1.40001
1.40001
1.40001
1.40001
1.40001
1.40001
1.40001
1.40001
1.40001
1.40001
1.40001
1.40001
1.40001
1.40001
1.40001
1.40001
1.40001
1.40001
1.40001
1.40001
1.40001
1.40001
1.40001
1.40001
1.40001
1.40001
1.40001
1.40001
1.40001
1.40001
1.40001
1.40001
1.40001
1.40001
1.40001
1.40001
1.40001
1.40001
1.40001
1.40001
1.40001
1.40001
1.40001
1.40001
1.40001
1.40001
1.40533
1.84414
4.15958
5.013
4.99847
4.97621
4.9525
4.92844
4.90328
4.87724
4.8487
4.81753
4.78449
4.74949
4.71283
4.6747
4.6349
4.59371
4.55177
4.5093
4.46619
4.42113
4.37341
4.32293
4.26975
4.2149
4.15826
4.10043
4.04253
3.98561
3.92821
3.87002
3.81315
3.75429
1.40001
1.40001
1.40001
1.40001
1.40001
1.40001
1.40001
1.40001
1.40001
1.40001
1.40001
1.40001
1.40001
1.40001
1.40001
1.40001
1.40001
1.40001
1.40001
1.40001
1.40001
1.40001
1.40001
1.40001
1.40001
1.40001
1.40001
1.40001
1.40001
1.40001
1.40001
1.40001
1.40001
1.40001
1.40001
1.40001
1.40001
1.40001
1.40001
1.40001
1.40001
1.40001
1.40001
1.40001
1.40001
1.40001
1.40001
1.40001
1.40001
1.40001
1.40001
1.40001
1.40001
1.40001
1.40001
1.40001
1.40001
1.40001
1.40001
1.40001
1.40001
1.40001
1.40002
1.41066
1.99337
4.36199
5.01987
4.99484
4.9667
4.93625
4.90682
4.8759
4.84333
4.81034
4.77635
4.74132
4.70533
4.66818
4.62963
4.5899
4.54935
4.50808
4.46572
4.42105
4.37347
4.32319
4.2705
4.21643
4.16112
4.10533
4.04997
3.99541
3.94019
3.88335
3.82833
3.77248
1.40001
1.40001
1.40001
1.40001
1.40001
1.40001
1.40001
1.40001
1.40001
1.40001
1.40001
1.40001
1.40001
1.40001
1.40001
1.40001
1.40001
1.40001
1.40001
1.40001
1.40001
1.40001
1.40001
1.40001
1.40001
1.40001
1.40001
1.40001
1.40001
1.40001
1.40001
1.40001
1.40001
1.40001
1.40001
1.40001
1.40001
1.40001
1.40001
1.40001
1.40001
1.40001
1.40001
1.40001
1.40001
1.40001
1.40001
1.40001
1.40001
1.40001
1.40001
1.40001
1.40001
1.40001
1.40001
1.40001
1.40001
1.40001
1.40001
1.40001
1.40001
1.40001
1.40001
1.40003
1.41901
2.13521
4.52195
5.02087
4.99254
4.95717
4.92052
4.88358
4.84743
4.81164
4.77478
4.73767
4.70082
4.66351
4.62541
4.58653
4.54699
4.50654
4.4645
4.4202
4.37322
4.32399
4.27289
4.22065
4.16742
4.11394
4.06091
4.00822
3.95481
3.89853
3.84454
3.79057
1.40001
1.40001
1.40001
1.40001
1.40001
1.40001
1.40001
1.40001
1.40001
1.40001
1.40001
1.40001
1.40001
1.40001
1.40001
1.40001
1.40001
1.40001
1.40001
1.40001
1.40001
1.40001
1.40001
1.40001
1.40001
1.40001
1.40001
1.40001
1.40001
1.40001
1.40001
1.40001
1.40001
1.40001
1.40001
1.40001
1.40001
1.40001
1.40001
1.40001
1.40001
1.40001
1.40001