/*--------------------------------*- C++ -*----------------------------------*\
  =========                 |
  \\      /  F ield         | OpenFOAM: The Open Source CFD Toolbox
   \\    /   O peration     | Website:  https://openfoam.org
    \\  /    A nd           | Version:  7
     \\/     M anipulation  |
\*---------------------------------------------------------------------------*/
FoamFile
{
    version     2.0;
    format      ascii;
    class       volScalarField;
    location    "5.4";
    object      T;
}
// * * * * * * * * * * * * * * * * * * * * * * * * * * * * * * * * * * * * * //

dimensions      [0 0 0 1 0 0 0];

internalField   nonuniform List<scalar> 
19968
(
1
1
1
1
1
1
1
1
1
1
1
1
1
1
1
1
1
1
1
1
1
1
1
1
1
1
1
1
1
1
1
1
1
1
1
1
1
1
1
1
1
1
1
1
1
1
1
1
1.25618
2.44877
2.68554
2.69107
2.69934
2.70476
2.70859
2.71125
2.71356
2.71619
2.71966
2.72421
2.72954
2.73481
2.73923
2.74258
2.74511
2.74729
2.74962
2.75244
2.75578
2.75937
2.76277
2.76576
2.76837
2.77076
2.7731
2.77546
2.77783
2.78014
2.78235
2.7845
2.7866
2.78863
2.79051
2.79219
2.79369
2.79506
2.79633
2.79752
2.79859
2.79955
2.80043
2.8013
2.8022
2.80311
2.80386
2.80448
1
1
1
1
1
1
1
1
1
1
1
1
1
1
1
1
1
1
1
1
1
1
1
1
1
1
1
1
1
1
1
1
1
1
1
1
1
1
1
1
1
1
1
1
1
1
1
1
1.24377
2.44156
2.68494
2.69206
2.69955
2.70452
2.7082
2.71088
2.71326
2.71596
2.71946
2.72399
2.72928
2.7345
2.7389
2.7422
2.7447
2.74686
2.74918
2.75203
2.75542
2.75904
2.76247
2.76548
2.76809
2.77047
2.7728
2.77517
2.77754
2.77986
2.78208
2.78423
2.78632
2.78832
2.79017
2.79182
2.7933
2.79464
2.79591
2.7971
2.7982
2.79919
2.8001
2.80097
2.80183
2.80266
2.80333
2.80387
1
1
1
1
1
1
1
1
1
1
1
1
1
1
1
1
1
1
1
1
1
1
1
1
1
1
1
1
1
1
1
1
1
1
1
1
1
1
1
1
1
1
1
1
1
1
1
1
1.21408
2.42421
2.68603
2.69229
2.69882
2.70336
2.70697
2.70982
2.71246
2.71542
2.71908
2.72359
2.72876
2.73384
2.73818
2.74145
2.74394
2.74608
2.74843
2.75131
2.75474
2.7584
2.76185
2.76489
2.76752
2.76992
2.77226
2.77463
2.77702
2.77935
2.78159
2.78373
2.7858
2.78776
2.78958
2.7912
2.79265
2.79397
2.79522
2.79641
2.79755
2.7986
2.79956
2.80045
2.80127
2.802
2.80254
2.80296
1
1
1
1
1
1
1
1
1
1
1
1
1
1
1
1
1
1
1
1
1
1
1
1
1
1
1
1
1
1
1
1
1
1
1
1
1
1
1
1
1
1
1
1
1
1
1
1
1.17069
2.39701
2.68724
2.6922
2.6975
2.70171
2.70534
2.70847
2.71155
2.71496
2.71884
2.72326
2.72812
2.73292
2.73712
2.74034
2.74286
2.74505
2.74747
2.7504
2.75384
2.75749
2.76094
2.76399
2.76666
2.7691
2.77148
2.77388
2.77628
2.77862
2.78085
2.78296
2.78498
2.78689
2.78864
2.79021
2.79161
2.79289
2.79411
2.7953
2.79646
2.79758
2.79862
2.79954
2.80033
2.80093
2.80133
2.80162
1
1
1
1
1
1
1
1
1
1
1
1
1
1
1
1
1
1
1
1
1
1
1
1
1
1
1
1
1
1
1
1
1
1
1
1
1
1
1
1
1
1
1
1
1
1
1
1
1.1132
2.36045
2.68813
2.69169
2.69591
2.69985
2.70362
2.70718
2.71079
2.71463
2.71872
2.72304
2.72759
2.73204
2.73602
2.73919
2.7418
2.74412
2.74665
2.74959
2.75297
2.7565
2.75985
2.76287
2.76558
2.76811
2.77057
2.77303
2.77545
2.77777
2.77996
2.78203
2.78399
2.78584
2.78754
2.78908
2.79046
2.79171
2.7929
2.79406
2.7952
2.79631
2.79733
2.7982
2.79885
2.79926
2.79946
2.79958
1
1
1
1
1
1
1
1
1
1
1
1
1
1
1
1
1
1
1
1
1
1
1
1
1
1
1
1
1
1
1
1
1
1
1
1
1
1
1
1
1
1
1
1
1
1
1
1
1.00451
2.29635
2.68708
2.69085
2.69468
2.69864
2.70276
2.70694
2.71105
2.71511
2.71921
2.72336
2.72753
2.73145
2.73503
2.73809
2.7408
2.74329
2.74594
2.74886
2.75205
2.7553
2.75839
2.76125
2.76394
2.76652
2.76907
2.77157
2.77398
2.77625
2.77835
2.78031
2.78218
2.78396
2.78562
2.78715
2.78855
2.78984
2.79106
2.79225
2.79342
2.79457
2.79562
2.79647
2.79703
2.7973
2.79735
2.79735
1
1
1
1
1
1
1
1
1
1
1
1
1
1
1
1
1
1
1
1
1
1
1
1
1
1
1
1
1
1
1
1
1
1
1
1
1
1
1
1
1
1
1
1
1
1
1
1
1.00002
2.20848
2.68186
2.68747
2.69089
2.69504
2.69947
2.70407
2.70853
2.71279
2.71698
2.72112
2.7251
2.72872
2.73208
2.73518
2.73813
2.74094
2.74387
2.74689
2.74995
2.75291
2.7557
2.75839
2.76108
2.7638
2.76652
2.76916
2.77161
2.77384
2.77585
2.77771
2.7795
2.78122
2.78288
2.78444
2.7859
2.78727
2.78856
2.78978
2.79096
2.79208
2.79308
2.79386
2.79433
2.79449
2.79442
2.79436
1
1
1
1
1
1
1
1
1
1
1
1
1
1
1
1
1
1
1
1
1
1
1
1
1
1
1
1
1
1
1
1
1
1
1
1
1
1
1
1
1
1
1
1
1
1
1
1
1
2.07896
2.66885
2.68351
2.68713
2.69207
2.69686
2.70154
2.70595
2.71011
2.71416
2.71819
2.72209
2.72574
2.72915
2.73235
2.73542
2.73838
2.74145
2.74453
2.7475
2.75026
2.7528
2.75535
2.75802
2.76086
2.76372
2.76645
2.76892
2.77107
2.77297
2.77473
2.77641
2.77807
2.7797
2.78128
2.78279
2.78422
2.78556
2.7868
2.78794
2.78898
2.78987
2.79053
2.79089
2.79098
2.79084
2.79075
1
1
1
1
1
1
1
1
1
1
1
1
1
1
1
1
1
1
1
1
1
1
1
1
1
1
1
1
1
1
1
1
1
1
1
1
1
1
1
1
1
1
1
1
1
1
1
1
1
1.89941
2.63594
2.67672
2.6818
2.68781
2.69278
2.6974
2.70169
2.70568
2.70954
2.71352
2.71755
2.72148
2.72516
2.72858
2.73174
2.73472
2.73776
2.74081
2.74369
2.74635
2.74877
2.75124
2.75391
2.7568
2.75972
2.76248
2.76494
2.76705
2.7689
2.77059
2.77221
2.77381
2.77539
2.77695
2.77848
2.77996
2.78136
2.78263
2.78376
2.78473
2.78552
2.7861
2.78639
2.78645
2.7863
2.78622
1
1
1
1
1
1
1
1
1
1
1
1
1
1
1
1
1
1
1
1
1
1
1
1
1
1
1
1
1
1
1
1
1
1
1
1
1
1
1
1
1
1
1
1
1
1
1
1
1
1.66263
2.57732
2.66978
2.67742
2.68358
2.68818
2.69256
2.69667
2.70046
2.70406
2.70791
2.71213
2.71642
2.72047
2.72416
2.72741
2.7303
2.73317
2.7361
2.73891
2.74162
2.74409
2.74657
2.7492
2.752
2.7548
2.75743
2.75979
2.76184
2.76366
2.76534
2.76694
2.76851
2.77005
2.77158
2.7731
2.7746
2.77601
2.77728
2.77835
2.77921
2.77985
2.78028
2.78046
2.78047
2.78031
2.78022
1
1
1
1
1
1
1
1
1
1
1
1
1
1
1
1
1
1
1
1
1
1
1
1
1
1
1
1
1
1
1
1
1
1
1
1
1
1
1
1
1
1
1
1
1
1
1
1
1
1.35406
2.47144
2.67137
2.67255
2.67816
2.6826
2.68706
2.69118
2.69494
2.69839
2.70206
2.70627
2.71076
2.71506
2.71893
2.72223
2.72502
2.72769
2.73048
2.73328
2.73609
2.73876
2.74137
2.744
2.74665
2.74925
2.75168
2.7539
2.75588
2.75765
2.75927
2.76077
2.76217
2.76348
2.76475
2.76603
2.76732
2.76858
2.76976
2.77079
2.77163
2.77224
2.77263
2.77282
2.77286
2.77274
2.77269
1
1
1
1
1
1
1
1
1
1
1
1
1
1
1
1
1
1
1
1
1
1
1
1
1
1
1
1
1
1
1
1
1
1
1
1
1
1
1
1
1
1
1
1
1
1
1
1
1
1.01356
2.28848
2.67893
2.67809
2.67913
2.6816
2.68485
2.6884
2.69194
2.69521
2.69836
2.70185
2.70564
2.70942
2.71296
2.71604
2.71858
2.72089
2.72337
2.72603
2.7288
2.73162
2.73428
2.73687
2.73934
2.74171
2.74393
2.74601
2.74795
2.74976
2.75143
2.75294
2.75428
2.75548
2.7566
2.7577
2.75881
2.75991
2.76094
2.76177
2.76231
2.76256
2.76254
2.76232
2.76208
2.76182
2.76168
1
1
1
1
1
1
1
1
1
1
1
1
1
1
1
1
1
1
1
1
1
1
1
1
1
1
1
1
1
1
1
1
1
1
1
1
1
1
1
1
1
1
1
1
1
1
1
1
1
1.00002
2.00484
2.64727
2.66175
2.66565
2.67071
2.67528
2.6796
2.68359
2.68714
2.69026
2.69335
2.69666
2.70003
2.70331
2.70633
2.70894
2.71128
2.71372
2.7164
2.71919
2.72206
2.72477
2.72731
2.72967
2.73185
2.73388
2.73582
2.7377
2.7395
2.74115
2.74258
2.74378
2.74475
2.74555
2.7462
2.74676
2.74726
2.74771
2.74807
2.74825
2.74826
2.74819
2.74794
2.74768
2.7473
2.74711
1
1
1
1
1
1
1
1
1
1
1
1
1
1
1
1
1
1
1
1
1
1
1
1
1
1
1
1
1
1
1
1
1
1
1
1
1
1
1
1
1
1
1
1
1
1
1
1
1
1
1.52884
2.51222
2.64639
2.65313
2.66112
2.66684
2.67185
2.67641
2.68046
2.68389
2.6869
2.68983
2.69274
2.69565
2.69847
2.70107
2.70345
2.70577
2.70821
2.7107
2.71317
2.71551
2.71765
2.71961
2.72138
2.72301
2.72459
2.72616
2.72769
2.72906
2.73019
2.73106
2.73171
2.73213
2.73228
2.73245
2.73258
2.73265
2.73261
2.73234
2.73162
2.73045
2.72851
2.72587
2.7229
2.72052
1
1
1
1
1
1
1
1
1
1
1
1
1
1
1
1
1
1
1
1
1
1
1
1
1
1
1
1
1
1
1
1
1
1
1
1
1
1
1
1
1
1
1
1
1
1
1
1
1
1
1.0259
2.2434
2.65641
2.65523
2.65624
2.65882
2.66239
2.66667
2.67103
2.6749
2.67799
2.68057
2.683
2.68552
2.68815
2.69077
2.69325
2.69553
2.69771
2.69985
2.70186
2.70374
2.70539
2.70683
2.70811
2.70929
2.71047
2.71163
2.71268
2.7136
2.71427
2.71454
2.71447
2.71414
2.71355
2.71278
2.71167
2.71008
2.70787
2.70498
2.70143
2.69747
2.69371
2.68982
2.68705
2.68556
1
1
1
1
1
1
1
1
1
1
1
1
1
1
1
1
1
1
1
1
1
1
1
1
1
1
1
1
1
1
1
1
1
1
1
1
1
1
1
1
1
1
1
1
1
1
1
1
1
1
1.00004
1.74804
2.55901
2.63352
2.63888
2.64314
2.64764
2.6528
2.6579
2.66214
2.66531
2.66781
2.67022
2.67291
2.67587
2.67887
2.68165
2.68404
2.68607
2.68786
2.68946
2.69084
2.69197
2.69283
2.69345
2.69399
2.69448
2.6948
2.69515
2.69542
2.69536
2.69473
2.69349
2.69186
2.68996
2.68776
2.68505
2.68166
2.67751
2.67263
2.66703
2.66102
2.6551
2.65242
2.64926
2.6636
1
1
1
1
1
1
1
1
1
1
1
1
1
1
1
1
1
1
1
1
1
1
1
1
1
1
1
1
1
1
1
1
1
1
1
1
1
1
1
1
1
1
1
1
1
1
1
1
1
1
1
1.10404
2.34319
2.63298
2.63158
2.6334
2.63688
2.64165
2.64678
2.65098
2.65419
2.6566
2.65879
2.66127
2.66419
2.66734
2.67033
2.67282
2.67473
2.67613
2.67727
2.67823
2.67899
2.67944
2.6795
2.67931
2.67892
2.67843
2.67801
2.67757
2.67672
2.67507
2.67255
2.66938
2.66573
2.66153
2.65643
2.65004
2.64172
2.63097
2.61611
2.59574
2.56555
2.52261
2.45841
2.33011
1
1
1
1
1
1
1
1
1
1
1
1
1
1
1
1
1
1
1
1
1
1
1
1
1
1
1
1
1
1
1
1
1
1
1
1
1
1
1
1
1
1
1
1
1
1
1
1
1
1
1
1.00085
2.00373
2.59599
2.61348
2.61775
2.62303
2.62881
2.63456
2.6388
2.64184
2.64413
2.64622
2.64871
2.65179
2.65527
2.65865
2.66145
2.66346
2.66462
2.66542
2.66608
2.66667
2.66706
2.667
2.66648
2.66541
2.66408
2.66279
2.66148
2.65978
2.65722
2.65357
2.64893
2.64338
2.63702
2.62927
2.61978
2.60727
2.59133
2.56901
2.53901
2.49449
2.4363
2.32526
2.16174
1
1
1
1
1
1
1
1
1
1
1
1
1
1
1
1
1
1
1
1
1
1
1
1
1
1
1
1
1
1
1
1
1
1
1
1
1
1
1
1
1
1
1
1
1
1
1
1
1
1
1
0.999999
1.37338
2.42046
2.59728
2.60233
2.60975
2.61618
2.62242
2.62699
2.6302
2.63251
2.63442
2.6367
2.63966
2.64321
2.64682
2.64985
2.65183
2.65293
2.65337
2.65355
2.65378
2.65398
2.65384
2.65313
2.6516
2.64954
2.64733
2.645
2.64224
2.63862
2.63376
2.62766
2.62022
2.61168
2.60127
2.58874
2.57268
2.55236
2.52561
2.48924
2.44104
2.3675
2.26247
2.13505
1
1
1
1
1
1
1
1
1
1
1
1
1
1
1
1
1
1
1
1
1
1
1
1
1
1
1
1
1
1
1
1
1
1
1
1
1
1
1
1
1
1
1
1
1
1
1
1
1
1
1
1
1.01371
2.10636
2.59497
2.59505
2.59694
2.60171
2.60768
2.61264
2.61661
2.61932
2.62132
2.62354
2.62647
2.63009
2.63368
2.63666
2.63869
2.63971
2.6399
2.63979
2.63967
2.6396
2.63931
2.63846
2.63677
2.63439
2.63151
2.6283
2.62447
2.61972
2.61359
2.60613
2.59709
2.58664
2.57405
2.55888
2.54017
2.51689
2.48771
2.44951
2.4006
2.33256
2.24874
2.14825
1
1
1
1
1
1
1
1
1
1
1
1
1
1
1
1
1
1
1
1
1
1
1
1
1
1
1
1
1
1
1
1
1
1
1
1
1
1
1
1
1
1
1
1
1
1
1
1
1
1
1
1
1.00001
1.43722
2.43313
2.587
2.58731
2.59275
2.59842
2.60212
2.60478
2.60668
2.6082
2.61019
2.61305
2.6163
2.61963
2.62238
2.62422
2.62516
2.62537
2.62531
2.62513
2.62481
2.62418
2.62302
2.62113
2.61859
2.61535
2.61158
2.60693
2.60115
2.59381
2.58506
2.57482
2.56302
2.54908
2.53226
2.51195
2.48715
2.45725
2.41953
2.37394
2.31725
2.25119
2.17286
1
1
1
1
1
1
1
1
1
1
1
1
1
1
1
1
1
1
1
1
1
1
1
1
1
1
1
1
1
1
1
1
1
1
1
1
1
1
1
1
1
1
1
1
1
1
1
1
1
1
1
1
1
1.01812
2.10413
2.58208
2.58508
2.58793
2.59065
2.59271
2.59407
2.59499
2.59583
2.59725
2.59961
2.60254
2.60563
2.60813
2.60945
2.60978
2.60966
2.60959
2.60949
2.60911
2.60821
2.6068
2.60477
2.60214
2.59873
2.59458
2.58935
2.58279
2.57453
2.56478
2.55364
2.54098
2.52633
2.50889
2.48821
2.46308
2.43402
2.39785
2.35753
2.30991
2.25622
2.195
1
1
1
1
1
1
1
1
1
1
1
1
1
1
1
1
1
1
1
1
1
1
1
1
1
1
1
1
1
1
1
1
1
1
1
1
1
1
1
1
1
1
1
1
1
1
1
1
1
1
1
1
1
1.00002
1.3876
2.40254
2.57589
2.57888
2.58221
2.58389
2.58433
2.58428
2.58435
2.5849
2.58636
2.58884
2.59144
2.59361
2.5944
2.59403
2.59337
2.59305
2.59284
2.59234
2.59127
2.58974
2.58767
2.58508
2.58167
2.5773
2.57166
2.56461
2.5559
2.54561
2.53387
2.52068
2.50581
2.48855
2.46857
2.44421
2.41676
2.38365
2.34802
2.30612
2.26147
2.21118
1
1
1
1
1
1
1
1
1
1
1
1
1
1
1
1
1
1
1
1
1
1
1
1
1
1
1
1
1
1
1
1
1
1
1
1
1
1
1
1
1
1
1
1
1
1
1
1
1
1
1
1
1
1
1.01319
2.0222
2.55718
2.56843
2.57148
2.57343
2.57491
2.57505
2.57488
2.57485
2.5757
2.57761
2.57957
2.58098
2.581
2.58
2.57839
2.5772
2.57624
2.57516
2.57381
2.57223
2.57024
2.56777
2.56436
2.55976
2.55374
2.54641
2.53771
2.52747
2.51563
2.50225
2.48732
2.47046
2.45142
2.42879
2.40333
2.37416
2.34206
2.30626
2.26778
2.2248
1
1
1
1
1
1
1
1
1
1
1
1
1
1
1
1
1
1
1
1
1
1
1
1
1
1
1
1
1
1
1
1
1
1
1
1
1
1
1
1
1
1
1
1
1
1
1
1
1
1
1
1
1
1
1.00001
1.22221
2.34274
2.56485
2.56228
2.56338
2.5643
2.56446
2.56415
2.56399
2.56458
2.566
2.56736
2.56797
2.56772
2.56648
2.56427
2.56223
2.56027
2.55847
2.55675
2.55495
2.55279
2.5502
2.54668
2.54186
2.53559
2.52814
2.51964
2.50982
2.49847
2.48543
2.47098
2.45449
2.43639
2.41566
2.3922
2.36685
2.33816
2.307
2.27266
2.23592
1
1
1
1
1
1
1
1
1
1
1
1
1
1
1
1
1
1
1
1
1
1
1
1
1
1
1
1
1
1
1
1
1
1
1
1
1
1
1
1
1
1
1
1
1
1
1
1
1
1
1
1
1
1
1
1.00349
1.84326
2.50355
2.53946
2.54514
2.54905
2.55081
2.55111
2.55135
2.55179
2.55301
2.55433
2.55509
2.55495
2.5539
2.55147
2.54856
2.54541
2.54274
2.54044
2.53826
2.53581
2.5329
2.52901
2.52386
2.51737
2.50985
2.50163
2.49242
2.48194
2.46973
2.45631
2.44016
2.42314
2.40389
2.38239
2.36006
2.33427
2.307
2.27658
2.24512
1
1
1
1
1
1
1
1
1
1
1
1
1
1
1
1
1
1
1
1
1
1
1
1
1
1
1
1
1
1
1
1
1
1
1
1
1
1
1
1
1
1
1
1
1
1
1
1
1
1
1
1
1
1
1
1
1.09598
2.20125
2.53542
2.53759
2.53666
2.53675
2.53775
2.53845
2.53886
2.53992
2.54153
2.54261
2.54275
2.54207
2.5398
2.53633
2.53236
2.52922
2.52631
2.52338
2.52031
2.51686
2.51234
2.50669
2.49992
2.49225
2.48413
2.47527
2.46566
2.45431
2.4421
2.42687
2.41124
2.39335
2.3737
2.35332
2.32985
2.30609
2.27938
2.25196
1
1
1
1
1
1
1
1
1
1
1
1
1
1
1
1
1
1
1
1
1
1
1
1
1
1
1
1
1
1
1
1
1
1
1
1
1
1
1
1
1
1
1
1
1
1
1
1
1
1
1
1
1
1
1
1
1.00061
1.43271
2.35913
2.51544
2.51443
2.51697
2.51994
2.52253
2.52407
2.52575
2.52795
2.5293
2.52962
2.52914
2.52722
2.5238
2.51975
2.51659
2.51333
2.50973
2.50596
2.5019
2.49674
2.49064
2.48354
2.47578
2.46753
2.45874
2.44988
2.43904
2.4278
2.41406
2.39986
2.38344
2.36543
2.34662
2.32547
2.30438
2.28088
2.25669
1
1
1
1
1
1
1
1
1
1
1
1
1
1
1
1
1
1
1
1
1
1
1
1
1
1
1
1
1
1
1
1
1
1
1
1
1
1
1
1
1
1
1
1
1
1
1
1
1
1
1
1
1
1
1
1
1
1.0164
1.88196
2.46613
2.49687
2.50212
2.50562
2.50799
2.50982
2.51203
2.51459
2.5155
2.51558
2.51513
2.51341
2.51046
2.50701
2.50388
2.50094
2.49707
2.49289
2.48832
2.48298
2.47643
2.46916
2.46143
2.45295
2.44418
2.43504
2.42474
2.41398
2.40149
2.38839
2.3734
2.35686
2.3397
2.32064
2.30161
2.28053
2.25917
1
1
1
1
1
1
1
1
1
1
1
1
1
1
1
1
1
1
1
1
1
1
1
1
1
1
1
1
1
1
1
1
1
1
1
1
1
1
1
1
1
1
1
1
1
1
1
1
1
1
1
1
1
1
1
1
1
1.00003
1.11321
2.11474
2.4757
2.49551
2.496
2.49788
2.49896
2.50017
2.5016
2.5017
2.50133
2.50043
2.49866
2.49614
2.49332
2.49048
2.48808
2.4846
2.48057
2.47584
2.47037
2.46372
2.45637
2.44854
2.44014
2.43107
2.4216
2.41163
2.40119
2.38944
2.3771
2.36337
2.34801
2.33244
2.31516
2.29799
2.27916
2.26002
1
1
1
1
1
1
1
1
1
1
1
1
1
1
1
1
1
1
1
1
1
1
1
1
1
1
1
1
1
1
1
1
1
1
1
1
1
1
1
1
1
1
1
1
1
1
1
1
1
1
1
1
1
1
1
1
1
1
1.00087
1.26104
2.25942
2.47893
2.47973
2.48219
2.48296
2.48395
2.48468
2.48473
2.48448
2.4837
2.48244
2.48069
2.47857
2.47624
2.47414
2.47151
2.46795
2.46365
2.4584
2.45214
2.44494
2.43715
2.42867
2.41968
2.41026
2.40033
2.39005
2.37875
2.36685
2.35387
2.33945
2.32488
2.30909
2.29336
2.27638
2.25915
1
1
1
1
1
1
1
1
1
1
1
1
1
1
1
1
1
1
1
1
1
1
1
1
1
1
1
1
1
1
1
1
1
1
1
1
1
1
1
1
1
1
1
1
1
1
1
1
1
1
1
1
1
1
1
1
1
1
1
1.00488
1.63499
2.36865
2.45778
2.4556
2.45781
2.46048
2.46305
2.46476
2.46571
2.4656
2.46493
2.46402
2.46275
2.46108
2.45954
2.4577
2.45491
2.45131
2.44664
2.44078
2.43387
2.42628
2.41802
2.40925
2.40004
2.39029
2.38022
2.36938
2.35789
2.34539
2.33181
2.31779
2.30325
2.28846
2.27293
2.25703
1
1
1
1
1
1
1
1
1
1
1
1
1
1
1
1
1
1
1
1
1
1
1
1
1
1
1
1
1
1
1
1
1
1
1
1
1
1
1
1
1
1
1
1
1
1
1
1
1
1
1
1
1
1
1
1
1
1
1
1.00001
1.04493
1.89485
2.41552
2.4446
2.44346
2.44542
2.44686
2.44809
2.44887
2.44882
2.44838
2.44785
2.44721
2.44602
2.44497
2.44351
2.44125
2.43818
2.43406
2.42881
2.42236
2.41522
2.40745
2.39909
2.3903
2.38102
2.3713
2.36099
2.35003
2.3381
2.32528
2.31171
2.29804
2.28384
2.26942
2.25433
1
1
1
1
1
1
1
1
1
1
1
1
1
1
1
1
1
1
1
1
1
1
1
1
1
1
1
1
1
1
1
1
1
1
1
1
1
1
1
1
1
1
1
1
1
1
1
1
1
1
1
1
1
1
1
1
1
1
1
1
1.00018
1.12635
2.01533
2.41213
2.43482
2.4363
2.43696
2.43657
2.436
2.4351
2.43397
2.43295
2.432
2.43089
2.42988
2.42849
2.42649
2.42373
2.42002
2.41526
2.40951
2.40296
2.3958
2.38815
2.38007
2.37149
2.36238
2.35276
2.34248
2.33133
2.31929
2.3065
2.29353
2.27993
2.26635
2.25187
1
1
1
1
1
1
1
1
1
1
1
1
1
1
1
1
1
1
1
1
1
1
1
1
1
1
1
1
1
1
1
1
1
1
1
1
1
1
1
1
1
1
1
1
1
1
1
1
1
1
1
1
1
1
1
1
1
1
1
1
1
1.00113
1.20446
2.09362
2.39874
2.42816
2.42724
2.42651
2.42538
2.42379
2.42205
2.42057
2.41909
2.4176
2.41605
2.4142
2.41187
2.40892
2.40519
2.40065
2.39542
2.38955
2.38313
2.37628
2.36902
2.36127
2.35295
2.34414
2.33468
2.32437
2.31327
2.30162
2.28944
2.27657
2.26369
2.24994
1
1
1
1
1
1
1
1
1
1
1
1
1
1
1
1
1
1
1
1
1
1
1
1
1
1
1
1
1
1
1
1
1
1
1
1
1
1
1
1
1
1
1
1
1
1
1
1
1
1
1
1
1
1
1
1
1
1
1
1
1
1
1.00294
1.28464
2.14794
2.38799
2.41022
2.41243
2.41228
2.41165
2.41045
2.40901
2.40728
2.40534
2.40324
2.4008
2.39792
2.39453
2.39053
2.38594
2.38088
2.37542
2.36963
2.36344
2.35684
2.34985
2.34238
2.33449
2.32593
2.31669
2.30683
2.29642
2.28516
2.27311
2.26096
2.24811
1
1
1
1
1
1
1
1
1
1
1
1
1
1
1
1
1
1
1
1
1
1
1
1
1
1
1
1
1
1
1
1
1
1
1
1
1
1
1
1
1
1
1
1
1
1
1
1
1
1
1
1
1
1
1
1
1
1
1
1
1
1
1
1.00596
1.36657
2.18584
2.37451
2.39032
2.39464
2.39572
2.39592
2.39531
2.39408
2.39249
2.39041
2.38782
2.38472
2.38112
2.37698
2.37236
2.36738
2.3621
2.35655
2.35062
2.34431
2.33772
2.33087
2.32383
2.31637
2.30836
2.29975
2.29052
2.28033
2.26904
2.25764
2.2457
1
1
1
1
1
1
1
1
1
1
1
1
1
1
1
1
1
1
1
1
1
1
1
1
1
1
1
1
1
1
1
1
1
1
1
1
1
1
1
1
1
1
1
1
1
1
1
1
1
1
1
1
1
1
1
1
1
1
1
1
1
1
1
1.00001
1.01079
1.43762
2.2149
2.36313
2.37133
2.37434
2.37601
2.37684
2.37674
2.3762
2.37491
2.37302
2.37059
2.36752
2.36379
2.35948
2.35473
2.34959
2.34407
2.3382
2.33202
2.32572
2.31934
2.3129
2.30619
2.29908
2.29149
2.28327
2.27413
2.2636
2.25296
2.24191
1
1
1
1
1
1
1
1
1
1
1
1
1
1
1
1
1
1
1
1
1
1
1
1
1
1
1
1
1
1
1
1
1
1
1
1
1
1
1
1
1
1
1
1
1
1
1
1
1
1
1
1
1
1
1
1
1
1
1
1
1
1
1
1
1.00002
1.01696
1.51055
2.23682
2.35392
2.35378
2.35463
2.35508
2.35562
2.35609
2.35607
2.35567
2.35463
2.35274
2.35
2.34647
2.3422
2.33731
2.33199
2.32629
2.32037
2.31442
2.30841
2.30233
2.296
2.28939
2.28238
2.27481
2.26644
2.25664
2.24672
2.23653
1
1
1
1
1
1
1
1
1
1
1
1
1
1
1
1
1
1
1
1
1
1
1
1
1
1
1
1
1
1
1
1
1
1
1
1
1
1
1
1
1
1
1
1
1
1
1
1
1
1
1
1
1
1
1
1
1
1
1
1
1
1
1
1
1
1.00005
1.02569
1.57956
2.25204
2.3405
2.33799
2.33672
2.33645
2.33612
2.33619
2.33623
2.33599
2.33522
2.33366
2.33123
2.32796
2.32394
2.31931
2.31428
2.30901
2.30358
2.29798
2.29217
2.28604
2.27966
2.27284
2.26556
2.25759
2.24849
2.23916
2.2297
1
1
1
1
1
1
1
1
1
1
1
1
1
1
1
1
1
1
1
1
1
1
1
1
1
1
1
1
1
1
1
1
1
1
1
1
1
1
1
1
1
1
1
1
1
1
1
1
1
1
1
1
1
1
1
1
1
1
1
1
1
1
1
1
1
1
1.00009
1.03693
1.60654
2.24886
2.32793
2.32552
2.32336
2.32168
2.32031
2.31927
2.3183
2.31716
2.31574
2.31394
2.31158
2.30862
2.30508
2.30108
2.29671
2.292
2.28697
2.28159
2.27579
2.26965
2.26307
2.256
2.24833
2.23987
2.23102
2.22224
1
1
1
1
1
1
1
1
1
1
1
1
1
1
1
1
1
1
1
1
1
1
1
1
1
1
1
1
1
1
1
1
1
1
1
1
1
1
1
1
1
1
1
1
1
1
1
1
1
1
1
1
1
1
1
1
1
1
1
1
1
1
1
1
1
1
1
1.00016
1.04272
1.59969
2.23527
2.31739
2.31493
2.31233
2.3096
2.30685
2.30424
2.30164
2.29913
2.29677
2.29433
2.29172
2.28886
2.28573
2.28228
2.27844
2.2742
2.26954
2.26435
2.25872
2.25255
2.24587
2.23868
2.23075
2.22268
2.21454
1
1
1
1
1
1
1
1
1
1
1
1
1
1
1
1
1
1
1
1
1
1
1
1
1
1
1
1
1
1
1
1
1
1
1
1
1
1
1
1
1
1
1
1
1
1
1
1
1
1
1
1
1
1
1
1
1
1
1
1
1
1
1
1
1
1
1
1
1.00021
1.04196
1.58878
2.21611
2.30578
2.30411
2.30061
2.29709
2.29322
2.28964
2.28624
2.28281
2.2795
2.2763
2.27316
2.27001
2.26677
2.26338
2.25972
2.25564
2.25115
2.24619
2.24069
2.2348
2.22834
2.22138
2.21416
2.20656
1
1
1
1
1
1
1
1
1
1
1
1
1
1
1
1
1
1
1
1
1
1
1
1
1
1
1
1
1
1
1
1
1
1
1
1
1
1
1
1
1
1
1
1
1
1
1
1
1
1
1
1
1
1
1
1
1
1
1
1
1
1
1
1
1
1
1
1
1
1.0002
1.04
1.56243
2.18849
2.29322
2.29227
2.28847
2.28463
2.28046
2.27644
2.27235
2.26824
2.26418
2.2602
2.2563
2.25246
2.24866
2.24481
2.24082
2.23665
2.2322
2.22753
2.22237
2.2168
2.21093
2.20459
2.19814
1
1
1
1
1
1
1
1
1
1
1
1
1
1
1
1
1
1
1
1
1
1
1
1
1
1
1
1
1
1
1
1
1
1
1
1
1
1
1
1
1
1
1
1
1
1
1
1
1
1
1
1
1
1
1
1
1
1
1
1
1
1
1
1
1
1
1
1
1
1
1.00019
1.03525
1.52081
2.15005
2.27825
2.27965
2.27599
2.2725
2.26839
2.26405
2.25957
2.255
2.25032
2.24563
2.24101
2.23643
2.23196
2.2276
2.2232
2.21874
2.21416
2.20944
2.20458
2.19943
2.19424
2.18875
1
1
1
1
1
1
1
1
1
1
1
1
1
1
1
1
1
1
1
1
1
1
1
1
1
1
1
1
1
1
1
1
1
1
1
1
1
1
1
1
1
1
1
1
1
1
1
1
1
1
1
1
1
1
1
1
1
1
1
1
1
1
1
1
1
1
1
1
1
1
1
1.00016
1.02852
1.46329
2.09869
2.25406
2.26843
2.26419
2.26055
2.25632
2.25182
2.24707
2.24216
2.23717
2.2322
2.22719
2.22218
2.21726
2.21242
2.2076
2.20279
2.19809
2.19332
2.1884
2.18348
2.17824
1
1
1
1
1
1
1
1
1
1
1
1
1
1
1
1
1
1
1
1
1
1
1
1
1
1
1
1
1
1
1
1
1
1
1
1
1
1
1
1
1
1
1
1
1
1
1
1
1
1
1
1
1
1
1
1
1
1
1
1
1
1
1
1
1
1
1
1
1
1
1
1
1.00012
1.02093
1.39328
2.02138
2.22839
2.25693
2.25044
2.24686
2.24307
2.23906
2.23474
2.23002
2.22502
2.21986
2.21471
2.20966
2.20469
2.19968
2.19454
2.18936
2.18415
2.17892
2.17365
2.16845
1
1
1
1
1
1
1
1
1
1
1
1
1
1
1
1
1
1
1
1
1
1
1
1
1
1
1
1
1
1
1
1
1
1
1
1
1
1
1
1
1
1
1
1
1
1
1
1
1
1
1
1
1
1
1
1
1
1
1
1
1
1
1
1
1
1
1
1
1
1
1
1
1
1.00007
1.01378
1.30869
1.91375
2.19669
2.23959
2.23479
2.23269
2.23005
2.2268
2.223
2.21889
2.21447
2.2097
2.20462
2.19936
2.19407
2.18862
2.18322
2.17762
2.17198
2.16603
2.16004
1
1
1
1
1
1
1
1
1
1
1
1
1
1
1
1
1
1
1
1
1
1
1
1
1
1
1
1
1
1
1
1
1
1
1
1
1
1
1
1
1
1
1
1
1
1
1
1
1
1
1
1
1
1
1
1
1
1
1
1
1
1
1
1
1
1
1
1
1
1
1
1
1
1
1.00004
1.00796
1.21516
1.78863
2.15259
2.21872
2.21774
2.21719
2.2153
2.21312
2.21026
2.20683
2.20298
2.19862
2.194
2.18895
2.18371
2.17795
2.17214
2.16583
2.15974
2.15296
1
1
1
1
1
1
1
1
1
1
1
1
1
1
1
1
1
1
1
1
1
1
1
1
1
1
1
1
1
1
1
1
1
1
1
1
1
1
1
1
1
1
1
1
1
1
1
1
1
1
1
1
1
1
1
1
1
1
1
1
1
1
1
1
1
1
1
1
1
1
1
1
1
1
1
1.00002
1.00387
1.13284
1.65371
2.10151
2.19019
2.20109
2.19809
2.19781
2.19687
2.19518
2.1928
2.18985
2.18641
2.1821
2.17741
2.17195
2.16661
2.15995
2.15567
2.15151
1
1
1
1
1
1
1
1
1
1
1
1
1
1
1
1
1
1
1
1
1
1
1
1
1
1
1
1
1
1
1
1
1
1
1
1
1
1
1
1
1
1
1
1
1
1
1
1
1
1
1
1
1
1
1
1
1
1
1
1
1
1
1
1
1
1
1
1
1
1
1
1
1
1
1
1
1.00001
1.00161
1.07208
1.52222
2.0253
2.1585
2.18908
2.181
2.18103
2.18042
2.17968
2.17787
2.17543
2.17185
2.16811
2.16404
2.16008
2.16092
2.16406
2.17931
1
1
1
1
1
1
1
1
1
1
1
1
1
1
1
1
1
1
1
1
1
1
1
1
1
1
1
1
1
1
1
1
1
1
1
1
1
1
1
1
1
1
1
1
1
1
1
1
1
1
1
1
1
1
1
1
1
1
1
1
1
1
1
1
1
1
1
1
1
1
1
1
1
1
1
1
1
1
1.00058
1.03504
1.3881
1.90997
2.1311
2.16932
2.16667
2.16378
2.16345
2.16216
2.15952
2.1568
2.15745
2.1615
2.17308
2.19973
2.24042
2.29357
1
1
1
1
1
1
1
1
1
1
1
1
1
1
1
1
1
1
1
1
1
1
1
1
1
1
1
1
1
1
1
1
1
1
1
1
1
1
1
1
1
1
1
1
1
1
1
1
1
1
1
1
1
1
1
1
1
1
1
1
1
1
1
1
1
1
1
1
1
1
1
1
1
1
1
1
1
1
1
1.00018
1.01519
1.25175
1.76055
2.09258
2.14431
2.15429
2.14994
2.14296
2.14524
2.1543
2.17688
2.21602
2.26802
2.31876
2.3592
2.38375
1
1
1
1
1
1
1
1
1
1
1
1
1
1
1
1
1
1
1
1
1
1
1
1
1
1
1
1
1
1
1
1
1
1
1
1
1
1
1
1
1
1
1
1
1
1
1
1
1
1
1
1
1
1
1
1
1
1
1
1
1
1
1
1
1
1
1
1
1
1
1
1
1
1
1
1
1
1
1
1
1.00005
1.00569
1.13469
1.6008
2.01173
2.12881
2.13076
2.14896
2.17909
2.23027
2.28857
2.33535
2.36779
2.38251
2.38709
2.38142
1
1
1
1
1
1
1
1
1
1
1
1
1
1
1
1
1
1
1
1
1
1
1
1
1
1
1
1
1
1
1
1
1
1
1
1
1
1
1
1
1
1
1
1
1
1
1
1
1
1
1
1
1
1
1
1
1
1
1
1
1
1
1
1
1
1
1
1
1
1
1
1
1
1
1
1
1
1
1
1
1
1.00001
1.00177
1.05916
1.43366
1.90784
2.10189
2.26263
2.31326
2.35452
2.37569
2.38454
2.38313
2.37955
2.37545
2.36806
1
1
1
1
1
1
1
1
1
1
1
1
1
1
1
1
1
1
1
1
1
1
1
1
1
1
1
1
1
1
1
1
1
1
1
1
1
1
1
1
1
1
1
1
1
1
1
1
1
1
1
1
1
1
1
1
1
1
1
1
1
1
1
1
1
1
1
1
1
1
1
1
1
1
1
1
1
1
1
1
1
1
1
1.00043
1.0227
1.25295
2.16828
2.49978
2.4715
2.45424
2.43864
2.42531
2.41222
2.3983
2.38485
2.37117
1
1
1
1
1
1
1
1
1
1
1
1
1
1
1
1
1
1
1
1
1
1
1
1
1
1
1
1
1
1
1
1
1
1
1
1
1
1
1
1
1
1
1
1
1
1
1
1
1
1
1
1
1
1
1
1
1
1
1
1
1
1
1
1
1
1
1
1
1
1
1
1
1
1
1
1
1
1
1
1
1
1
1
1
1.00011
1.00582
2.27992
2.64974
2.60664
2.56431
2.52465
2.49232
2.46464
2.44024
2.41988
2.40153
1
1
1
1
1
1
1
1
1
1
1
1
1
1
1
1
1
1
1
1
1
1
1
1
1
1
1
1
1
1
1
1
1
1
1
1
1
1
1
1
1
1
1
1
1
1
1
1
1
1
1
1
1
1
1
1
1
1
1
1
1
1
1
1
1
1
1
1
1
1
1
1
1
1
1
1
1
1
1
1
1
1
1
1
1
1.00001
2.23614
2.69172
2.67893
2.65878
2.63308
2.60537
2.5767
2.54842
2.52226
2.49746
1
1
1
1
1
1
1
1
1
1
1
1
1
1
1
1
1
1
1
1
1
1
1
1
1
1
1
1
1
1
1
1
1
1
1
1
1
1
1
1
1
1
1
1
1
1
1
1
1
1
1
1
1
1
1
1
1
1
1
1
1
1
1
1
1
1
1
1
1
1
1
1
1
1
1
1
1
1
1
1
1
1
1
1
1
1
2.02725
2.68834
2.69553
2.6921
2.68562
2.67408
2.65808
2.63968
2.61889
2.5965
1
1
1
1
1
1
1
1
1
1
1
1
1
1
1
1
1
1
1
1
1
1
1
1
1
1
1
1
1
1
1
1
1
1
1
1
1
1
1
1
1
1
1
1
1
1
1
1
1
1
1
1
1
1
1
1
1
1
1
1
1
1
1
1
1
1
1
1
1
1
1
1
1
1
1
1
1
1
1
1
1
1
1
1
1
1
1.72596
2.61263
2.69273
2.68865
2.68519
2.68289
2.67988
2.67448
2.66668
2.6565
1
1
1
1
1
1
1
1
1
1
1
1
1
1
1
1
1
1
1
1
1
1
1
1
1
1
1
1
1
1
1
1
1
1
1
1
1
1
1
1
1
1
1
1
1
1
1
1
1
1
1
1
1
1
1
1
1
1
1
1
1
1
1
1
1
1
1
1
1
1
1
1
1
1
1
1
1
1
1
1
1
1
1
1
1
1
1.36739
2.48394
2.68964
2.68718
2.68641
2.68506
2.68299
2.68042
2.67676
2.67244
1
1
1
1
1
1
1
1
1
1
1
1
1
1
1
1
1
1
1
1
1
1
1
1
1
1
1
1
1
1
1
1
1
1
1
1
1
1
1
1
1
1
1
1
1
1
1
1
1
1
1
1
1
1
1
1
1
1
1
1
1
1
1
1
1
1
1
1
1
1
1
1
1
1
1
1
1
1
1
1
1
1
1
1
1
1
1.03853
2.32974
2.6853
2.68422
2.68279
2.68195
2.68045
2.67854
2.67595
2.67304
1
1
1
1
1
1
1
1
1
1
1
1
1
1
1
1
1
1
1
1
1
1
1
1
1
1
1
1
1
1
1
1
1
1
1
1
1
1
1
1
1
1
1
1
1
1
1
1
1
1
1
1
1
1
1
1
1
1
1
1
1
1
1
1
1
1
1
1
1
1
1
1
1
1
1
1
1
1
1
1
1
1
1
1
1
1
1.00014
2.14579
2.67045
2.6849
2.68278
2.68153
2.67913
2.6766
2.67389
2.67109
1
1
1
1
1
1
1
1
1
1
1
1
1
1
1
1
1
1
1
1
1
1
1
1
1
1
1
1
1
1
1
1
1
1
1
1
1
1
1
1
1
1
1
1
1
1
1
1
1
1
1
1
1
1
1
1
1
1
1
1
1
1
1
1
1
1
1
1
1
1
1
1
1
1
1
1
1
1
1
1
1
1
1
1
1
1
1
1.92246
2.64111
2.68713
2.6831
2.68069
2.67743
2.67437
2.67148
2.66879
1
1
1
1
1
1
1
1
1
1
1
1
1
1
1
1
1
1
1
1
1
1
1
1
1
1
1
1
1
1
1
1
1
1
1
1
1
1
1
1
1
1
1
1
1
1
1
1
1
1
1
1
1
1
1
1
1
1
1
1
1
1
1
1
1
1
1
1
1
1
1
1
1
1
1
1
1
1
1
1
1
1
1
1
1
1
1
1.66147
2.58822
2.68598
2.68098
2.67855
2.67557
2.67272
2.66995
2.66731
1
1
1
1
1
1
1
1
1
1
1
1
1
1
1
1
1
1
1
1
1
1
1
1
1
1
1
1
1
1
1
1
1
1
1
1
1
1
1
1
1
1
1
1
1
1
1
1
1
1
1
1
1
1
1
1
1
1
1
1
1
1
1
1
1
1
1
1
1
1
1
1
1
1
1
1
1
1
1
1
1
1
1
1
1
1
1
1.37466
2.49447
2.68548
2.68037
2.67804
2.67556
2.67307
2.67051
2.66789
1
1
1
1
1
1
1
1
1
1
1
1
1
1
1
1
1
1
1
1
1
1
1
1
1
1
1
1
1
1
1
1
1
1
1
1
1
1
1
1
1
1
1
1
1
1
1
1
1
1
1
1
1
1
1
1
1
1
1
1
1
1
1
1
1
1
1
1
1
1
1
1
1
1
1
1
1
1
1
1
1
1
1
1
1
1
1
1.13859
2.38658
2.68849
2.68438
2.68087
2.67833
2.676
2.67363
2.67108
1
1
1
1
1
1
1
1
1
1
1
1
1
1
1
1
1
1
1
1
1
1
1
1
1
1
1
1
1
1
1
1
1
1
1
1
1
1
1
1
1
1
1
1
1
1
1
1
1
1
1
1
1
1
1
1
1
1
1
1
1
1
1
1
1
1
1
1
1
1
1
1
1
1
1
1
1
1
1
1
1
1
1
1
1
1
1
1.00244
2.25329
2.68417
2.68976
2.68542
2.68312
2.68058
2.67809
2.67545
1
1
1
1
1
1
1
1
1
1
1
1
1
1
1
1
1
1
1
1
1
1
1
1
1
1
1
1
1
1
1
1
1
1
1
1
1
1
1
1
1
1
1
1
1
1
1
1
1
1
1
1
1
1
1
1
1
1
1
1
1
1
1
1
1
1
1
1
1
1
1
1
1
1
1
1
1
1
1
1
1
1
1
1
1
1
1
1
2.10381
2.67043
2.69236
2.68823
2.68637
2.68397
2.68163
2.67923
1
1
1
1
1
1
1
1
1
1
1
1
1
1
1
1
1
1
1
1
1
1
1
1
1
1
1
1
1
1
1
1
1
1
1
1
1
1
1
1
1
1
1
1
1
1
1
1
1
1
1
1
1
1
1
1
1
1
1
1
1
1
1
1
1
1
1
1
1
1
1
1
1
1
1
1
1
1
1
1
1
1
1
1
1
1
1
1
1.94578
2.65109
2.69583
2.69105
2.689
2.68639
2.68379
2.68109
1
1
1
1
1
1
1
1
1
1
1
1
1
1
1
1
1
1
1
1
1
1
1
1
1
1
1
1
1
1
1
1
1
1
1
1
1
1
1
1
1
1
1
1
1
1
1
1
1
1
1
1
1
1
1
1
1
1
1
1
1
1
1
1
1
1
1
1
1
1
1
1
1
1
1
1
1
1
1
1
1
1
1
1
1
1
1
1
1.78586
2.62668
2.69817
2.69232
2.68972
2.68681
2.68403
2.68122
1
1
1
1
1
1
1
1
1
1
1
1
1
1
1
1
1
1
1
1
1
1
1
1
1
1
1
1
1
1
1
1
1
1
1
1
1
1
1
1
1
1
1
1
1
1
1
1
1
1
1
1
1
1
1
1
1
1
1
1
1
1
1
1
1
1
1
1
1
1
1
1
1
1
1
1
1
1
1
1
1
1
1
1
1
1
1
1
1.62699
2.5941
2.69861
2.69264
2.68971
2.68664
2.68369
2.68068
1
1
1
1
1
1
1
1
1
1
1
1
1
1
1
1
1
1
1
1
1
1
1
1
1
1
1
1
1
1
1
1
1
1
1
1
1
1
1
1
1
1
1
1
1
1
1
1
1
1
1
1
1
1
1
1
1
1
1
1
1
1
1
1
1
1
1
1
1
1
1
1
1
1
1
1
1
1
1
1
1
1
1
1
1
1
1
1
1.48786
2.55377
2.69846
2.69299
2.68982
2.6865
2.68314
2.67963
1
1
1
1
1
1
1
1
1
1
1
1
1
1
1
1
1
1
1
1
1
1
1
1
1
1
1
1
1
1
1
1
1
1
1
1
1
1
1
1
1
1
1
1
1
1
1
1
1
1
1
1
1
1
1
1
1
1
1
1
1
1
1
1
1
1
1
1
1
1
1
1
1
1
1
1
1
1
1
1
1
1
1
1
1
1
1
1
1.37466
2.51158
2.69711
2.69255
2.68924
2.68548
2.68172
2.67797
1
1
1
1
1
1
1
1
1
1
1
1
1
1
1
1
1
1
1
1
1
1
1
1
1
1
1
1
1
1
1
1
1
1
1
1
1
1
1
1
1
1
1
1
1
1
1
1
1
1
1
1
1
1
1
1
1
1
1
1
1
1
1
1
1
1
1
1
1
1
1
1
1
1
1
1
1
1
1
1
1
1
1
1
1
1
1
1
1.28284
2.46868
2.69449
2.69075
2.6873
2.68378
2.68051
2.67736
1
1
1
1
1
1
1
1
1
1
1
1
1
1
1
1
1
1
1
1
1
1
1
1
1
1
1
1
1
1
1
1
1
1
1
1
1
1
1
1
1
1
1
1
1
1
1
1
1
1
1
1
1
1
1
1
1
1
1
1
1
1
1
1
1
1
1
1
1
1
1
1
1
1
1
1
1
1
1
1
1
1
1
1
1
1
1
1
1.20767
2.42568
2.69162
2.68842
2.68471
2.68196
2.67949
2.67725
1
1
1
1
1
1
1
1
1
1
1
1
1
1
1
1
1
1
1
1
1
1
1
1
1
1
1
1
1
1
1
1
1
1
1
1
1
1
1
1
1
1
1
1
1
1
1
1
1
1
1
1
1
1
1
1
1
1
1
1
1
1
1
1
1
1
1
1
1
1
1
1
1
1
1
1
1
1
1
1
1
1
1
1
1
1
1
1
1.13582
2.37834
2.68868
2.68639
2.68364
2.68292
2.68155
2.6798
1
1
1
1
1
1
1
1
1
1
1
1
1
1
1
1
1
1
1
1
1
1
1
1
1
1
1
1
1
1
1
1
1
1
1
1
1
1
1
1
1
1
1
1
1
1
1
1
1
1
1
1
1
1
1
1
1
1
1
1
1
1
1
1
1
1
1
1
1
1
1
1
1
1
1
1
1
1
1
1
1
1
1
1
1
1
1
1
1.05211
2.33435
2.6882
2.68923
2.68752
2.68694
2.6853
2.6831
1
1
1
1
1
1
1
1
1
1
1
1
1
1
1
1
1
1
1
1
1
1
1
1
1
1
1
1
1
1
1
1
1
1
1
1
1
1
1
1
1
1
1
1
1
1
1
1
1
1
1
1
1
1
1
1
1
1
1
1
1
1
1
1
1
1
1
1
1
1
1
1
1
1
1
1
1
1
1
1
1
1
1
1
1
1
1
1
1.00071
2.2967
2.68572
2.69398
2.69155
2.68974
2.68728
2.68479
1
1
1
1
1
1
1
1
1
1
1
1
1
1
1
1
1
1
1
1
1
1
1
1
1
1
1
1
1
1
1
1
1
1
1
1
1
1
1
1
1
1
1
1
1
1
1
1
1
1
1
1
1
1
1
1
1
1
1
1
1
1
1
1
1
1
1
1
1
1
1
1
1
1
1
1
1
1
1
1
1
1
1
1
1
1
1
1
1
2.27924
2.68288
2.6965
2.69282
2.69066
2.68809
2.68563
1.48684
0.947962
0.59112
0.522411
0.68044
0.917488
0.976493
1.01325
1.07406
1.16936
1.26425
1.34293
1.40927
1.44296
1.45058
1.46891
1.50664
1.57807
1.63492
1.63255
1.60269
1.58308
1.58815
1.60622
1.63309
1.64182
1.63315
1.6052
1.59217
1.59475
1.61017
1.63673
1.65114
1.65244
1.64881
1.64045
1.63455
1.63307
1.63342
1.63504
1.63957
1.6458
1.64805
1.64748
1.64466
1.64724
1.66952
1.75849
1.97817
2.4883
2.61455
2.61271
2.60762
2.60247
2.59836
2.59463
2.5906
2.58775
2.58777
2.58875
2.58809
2.58433
2.58026
2.57634
2.57283
2.56991
2.56692
2.56169
2.55325
2.54287
2.53239
2.5235
2.51695
2.51239
2.50833
2.50246
2.49418
2.48541
2.4763
2.46794
2.46217