/*--------------------------------*- C++ -*----------------------------------*\
  =========                 |
  \\      /  F ield         | OpenFOAM: The Open Source CFD Toolbox
   \\    /   O peration     | Website:  https://openfoam.org
    \\  /    A nd           | Version:  7
     \\/     M anipulation  |
\*---------------------------------------------------------------------------*/
FoamFile
{
    version     2.0;
    format      ascii;
    class       volVectorField;
    location    "5.4";
    object      U;
}
// * * * * * * * * * * * * * * * * * * * * * * * * * * * * * * * * * * * * * //

dimensions      [0 1 -1 0 0 0 0];

internalField   nonuniform List<vector> 
19968
(
(3 -1.00661e-18 0)
(3 1.28059e-16 0)
(3 3.3552e-16 0)
(3 2.58994e-16 0)
(3 2.33887e-16 0)
(3 3.54649e-16 0)
(3 4.50889e-16 0)
(3 3.21763e-16 0)
(3 2.42053e-16 0)
(3 7.30813e-16 0)
(3 1.06786e-15 0)
(3 8.14656e-16 0)
(3 7.83141e-16 0)
(3 1.24143e-15 0)
(3 2.16912e-15 0)
(3 2.47348e-15 0)
(3 2.19008e-15 0)
(3 1.7069e-15 0)
(3 1.20773e-15 0)
(3 1.65288e-15 0)
(3 1.09275e-15 0)
(3 -3.48393e-16 0)
(3 -1.44538e-15 0)
(3 -6.73843e-16 0)
(3 -1.77097e-16 0)
(3 2.08162e-16 0)
(3 5.52114e-16 0)
(3 1.16593e-15 0)
(3 1.05873e-15 0)
(3 8.06445e-16 0)
(3 1.20924e-15 0)
(3 7.26906e-16 0)
(3 3.08923e-16 0)
(3 -5.08591e-17 0)
(3 -1.87973e-17 0)
(3 1.32371e-16 0)
(3 4.76684e-18 0)
(3 -1.30183e-16 0)
(3 -1.08935e-15 0)
(3 -1.06154e-15 0)
(3 -1.18703e-15 0)
(3 -1.18747e-15 0)
(3 -2.56422e-16 0)
(3 -3.29525e-17 0)
(3 4.08328e-16 0)
(3 -6.03911e-16 0)
(3 -1.49379e-15 0)
(3 -1.84278e-15 0)
(2.82269 0.00178362 0)
(0.975147 0.00544946 0)
(0.759694 0.00462018 0)
(0.746569 0.00946039 0)
(0.728198 0.0100324 0)
(0.711889 0.00941762 0)
(0.696627 0.00851549 0)
(0.682335 0.00806767 0)
(0.668169 0.00824345 0)
(0.653381 0.00883623 0)
(0.637659 0.00944308 0)
(0.621443 0.0095481 0)
(0.605682 0.00916176 0)
(0.590746 0.0090127 0)
(0.576067 0.00943469 0)
(0.561079 0.0098363 0)
(0.546016 0.00969406 0)
(0.531163 0.00939762 0)
(0.516166 0.00944722 0)
(0.500619 0.00973798 0)
(0.484615 0.00995922 0)
(0.468522 0.0100191 0)
(0.452522 0.0100433 0)
(0.436532 0.0101237 0)
(0.420463 0.0102539 0)
(0.40435 0.0104067 0)
(0.388293 0.0105545 0)
(0.372342 0.01068 0)
(0.356429 0.0107925 0)
(0.340389 0.0109074 0)
(0.32406 0.0110268 0)
(0.307384 0.0111445 0)
(0.290431 0.0112563 0)
(0.273354 0.0113654 0)
(0.256294 0.011479 0)
(0.239302 0.0116027 0)
(0.222326 0.0117389 0)
(0.205231 0.0118888 0)
(0.187831 0.0120591 0)
(0.169943 0.0122621 0)
(0.151435 0.0125099 0)
(0.132281 0.0128082 0)
(0.11256 0.0131571 0)
(0.0924204 0.0135351 0)
(0.0720264 0.0139361 0)
(0.0514906 0.0143502 0)
(0.0308783 0.0145785 0)
(0.0106722 0.0148586 0)
(3 -2.01319e-16 0)
(3 -1.68117e-16 0)
(3 3.11345e-16 0)
(3 3.25332e-16 0)
(3 2.70242e-16 0)
(3 2.37102e-16 0)
(3 2.41154e-16 0)
(3 3.22059e-16 0)
(3 1.24047e-15 0)
(3 1.44695e-15 0)
(3 1.68313e-15 0)
(3 1.79195e-15 0)
(3 1.16967e-15 0)
(3 1.12586e-15 0)
(3 1.48272e-15 0)
(3 2.73793e-15 0)
(3 3.66886e-15 0)
(3 3.76588e-15 0)
(3 2.86682e-15 0)
(3 1.36395e-15 0)
(3 2.42739e-16 0)
(3 -1.45798e-16 0)
(3 -5.8599e-16 0)
(3 -4.89246e-16 0)
(3 -5.61144e-16 0)
(3 1.0526e-15 0)
(3 1.45403e-15 0)
(3 1.49447e-15 0)
(3 9.02521e-16 0)
(3 6.44035e-16 0)
(3 5.69536e-16 0)
(3 -8.27989e-18 0)
(3 -2.95266e-16 0)
(3 -2.87222e-16 0)
(3 6.65321e-17 0)
(3 -2.17286e-16 0)
(3 -2.55793e-16 0)
(3 -4.51367e-16 0)
(3 -1.33761e-15 0)
(3 -2.79915e-15 0)
(3 -3.84493e-15 0)
(3 -2.1595e-15 0)
(3 1.45447e-15 0)
(3 1.8882e-15 0)
(3 1.45462e-15 0)
(3 7.29898e-16 0)
(3 1.1437e-15 0)
(3 2.76076e-16 0)
(2.83458 0.0106219 0)
(0.979352 0.0263416 0)
(0.755794 0.02084 0)
(0.741017 0.0271822 0)
(0.72374 0.0286751 0)
(0.708155 0.027624 0)
(0.693235 0.0256432 0)
(0.678868 0.0245203 0)
(0.664525 0.0249771 0)
(0.649689 0.0266074 0)
(0.634056 0.0283458 0)
(0.617943 0.0287846 0)
(0.602208 0.0278513 0)
(0.587127 0.0274503 0)
(0.572378 0.0286071 0)
(0.557424 0.0297648 0)
(0.542402 0.0294669 0)
(0.527498 0.0287404 0)
(0.512373 0.0289143 0)
(0.496755 0.0297138 0)
(0.480761 0.0302737 0)
(0.464741 0.0304104 0)
(0.448795 0.030524 0)
(0.432791 0.0308195 0)
(0.416652 0.0312166 0)
(0.400459 0.0316528 0)
(0.384327 0.0320903 0)
(0.368304 0.032479 0)
(0.352318 0.0328195 0)
(0.33621 0.0331464 0)
(0.319828 0.033479 0)
(0.303117 0.0338165 0)
(0.286146 0.0341549 0)
(0.269068 0.0345027 0)
(0.252023 0.0348748 0)
(0.235064 0.0352791 0)
(0.218145 0.0357162 0)
(0.201142 0.0361861 0)
(0.183885 0.0367065 0)
(0.166203 0.0373116 0)
(0.147973 0.0380408 0)
(0.129161 0.0389195 0)
(0.109831 0.0399611 0)
(0.0901199 0.0411206 0)
(0.0701863 0.0423828 0)
(0.0501497 0.0437157 0)
(0.0300493 0.0444984 0)
(0.0103584 0.045411 0)
(3 -9.4223e-17 0)
(3 -2.70334e-17 0)
(3 -4.73244e-17 0)
(3 4.42384e-17 0)
(3 9.52091e-17 0)
(3 1.12952e-16 0)
(3 -4.28873e-17 0)
(3 -1.60992e-16 0)
(3 -3.15237e-16 0)
(3 -6.16688e-16 0)
(3 -5.14937e-17 0)
(3 6.92776e-16 0)
(3 2.68219e-16 0)
(3 1.43127e-17 0)
(3 -2.11199e-16 0)
(3 -4.43225e-16 0)
(3 -4.71287e-16 0)
(3 4.39146e-16 0)
(3 6.65331e-16 0)
(3 6.2247e-16 0)
(3 6.08767e-17 0)
(3 6.67301e-16 0)
(3 1.11996e-15 0)
(3 7.84436e-16 0)
(3 3.22673e-16 0)
(3 5.85135e-16 0)
(3 7.53294e-16 0)
(3 -5.5853e-16 0)
(3 -2.88195e-16 0)
(3 3.29058e-16 0)
(3 6.77518e-16 0)
(3 4.92869e-16 0)
(3 8.06305e-16 0)
(3 1.04379e-15 0)
(3 2.99228e-16 0)
(3 -3.90618e-16 0)
(3 -5.50681e-16 0)
(3 -1.06442e-15 0)
(3 -1.4369e-15 0)
(3 -2.05807e-15 0)
(3 -2.75166e-15 0)
(3 -1.91303e-15 0)
(3 -2.51608e-16 0)
(3 1.25136e-15 0)
(3 1.10033e-15 0)
(3 4.51997e-16 0)
(3 -4.78963e-16 0)
(3 -1.03794e-15 0)
(2.86504 0.0174431 0)
(0.994969 0.0460219 0)
(0.759288 0.0382431 0)
(0.744318 0.0465232 0)
(0.727289 0.0482849 0)
(0.711728 0.0467403 0)
(0.696533 0.0440645 0)
(0.681522 0.0426037 0)
(0.666489 0.0433548 0)
(0.651213 0.045791 0)
(0.635406 0.0483686 0)
(0.619205 0.0490875 0)
(0.603336 0.0477716 0)
(0.587931 0.0471888 0)
(0.572959 0.0489286 0)
(0.557905 0.0506931 0)
(0.542789 0.0503163 0)
(0.527698 0.0493657 0)
(0.512307 0.0498057 0)
(0.496478 0.0511362 0)
(0.480334 0.051985 0)
(0.464229 0.0521593 0)
(0.448209 0.0523897 0)
(0.432091 0.0529612 0)
(0.415785 0.0536495 0)
(0.399388 0.0543458 0)
(0.383034 0.0550472 0)
(0.366768 0.0557004 0)
(0.35053 0.0562848 0)
(0.33418 0.0568327 0)
(0.317581 0.05737 0)
(0.300676 0.0578994 0)
(0.28353 0.0584175 0)
(0.266292 0.0589405 0)
(0.249105 0.0594986 0)
(0.232032 0.060111 0)
(0.21504 0.0607847 0)
(0.198017 0.0615254 0)
(0.18081 0.0623636 0)
(0.16326 0.0633484 0)
(0.145249 0.0645297 0)
(0.12673 0.0659366 0)
(0.107751 0.0675891 0)
(0.0884196 0.0694247 0)
(0.06888 0.0714206 0)
(0.0492482 0.0735482 0)
(0.0295096 0.0747891 0)
(0.0101316 0.0762794 0)
(3 2.4417e-16 0)
(3 1.77948e-16 0)
(3 -5.67453e-17 0)
(3 -9.85788e-17 0)
(3 2.36747e-17 0)
(3 -1.46153e-17 0)
(3 -5.39002e-16 0)
(3 -8.98031e-16 0)
(3 -1.83472e-15 0)
(3 -1.44233e-15 0)
(3 -7.52729e-16 0)
(3 -4.65581e-16 0)
(3 -1.38844e-16 0)
(3 -5.18987e-17 0)
(3 -6.61498e-17 0)
(3 -8.32773e-16 0)
(3 -1.84571e-15 0)
(3 -1.8681e-15 0)
(3 -5.92976e-16 0)
(3 -8.27817e-17 0)
(3 3.41853e-16 0)
(3 1.72399e-16 0)
(3 6.52552e-16 0)
(3 8.75083e-16 0)
(3 1.04177e-15 0)
(3 6.19369e-16 0)
(3 3.10244e-16 0)
(3 8.90109e-17 0)
(3 -2.94986e-16 0)
(3 -3.44263e-16 0)
(3 -9.21037e-17 0)
(3 5.12781e-16 0)
(3 1.03564e-15 0)
(3 1.5612e-15 0)
(3 9.40752e-16 0)
(3 5.49931e-16 0)
(3 5.08018e-16 0)
(3 1.29944e-16 0)
(3 -6.69456e-16 0)
(3 -1.00267e-15 0)
(3 -9.95525e-16 0)
(3 -1.58642e-15 0)
(3 -1.04707e-15 0)
(3 -1.12206e-16 0)
(3 1.12742e-15 0)
(3 8.42008e-16 0)
(3 2.88014e-16 0)
(3 -4.45727e-16 0)
(2.90488 0.0207651 0)
(1.01693 0.0644428 0)
(0.760472 0.0564166 0)
(0.745642 0.0660582 0)
(0.72976 0.0677095 0)
(0.714882 0.0661195 0)
(0.700031 0.0633685 0)
(0.684956 0.0619321 0)
(0.669688 0.062953 0)
(0.654297 0.0658894 0)
(0.638619 0.0689685 0)
(0.622636 0.0699389 0)
(0.606867 0.0684992 0)
(0.59132 0.067812 0)
(0.576262 0.0699361 0)
(0.561245 0.0721712 0)
(0.546145 0.071882 0)
(0.530941 0.0709898 0)
(0.515358 0.0718761 0)
(0.499357 0.0738027 0)
(0.483047 0.0749413 0)
(0.46681 0.0751628 0)
(0.450655 0.0755835 0)
(0.434361 0.076542 0)
(0.417805 0.077592 0)
(0.401093 0.078562 0)
(0.384376 0.0795389 0)
(0.367707 0.0804984 0)
(0.351034 0.0813786 0)
(0.334241 0.0821822 0)
(0.317205 0.0829331 0)
(0.29987 0.0836392 0)
(0.282292 0.0842983 0)
(0.264616 0.084935 0)
(0.246998 0.085598 0)
(0.229529 0.0863235 0)
(0.212211 0.0871339 0)
(0.194971 0.0880523 0)
(0.177693 0.0891342 0)
(0.160243 0.0904472 0)
(0.142505 0.0920467 0)
(0.124399 0.0939546 0)
(0.105914 0.0961912 0)
(0.0870898 0.0986845 0)
(0.0680076 0.101392 0)
(0.0487644 0.104309 0)
(0.0292626 0.106021 0)
(0.010025 0.108121 0)
(3 -1.97109e-17 0)
(3 -1.40086e-16 0)
(3 -3.08954e-16 0)
(3 -1.73069e-16 0)
(3 1.72352e-16 0)
(3 1.0773e-16 0)
(3 -1.02516e-16 0)
(3 3.25222e-17 0)
(3 2.29187e-16 0)
(3 3.04884e-16 0)
(3 4.66649e-16 0)
(3 -1.34152e-16 0)
(3 -1.76939e-17 0)
(3 1.03776e-16 0)
(3 -8.82465e-17 0)
(3 -2.55904e-16 0)
(3 -8.1172e-16 0)
(3 -1.16358e-15 0)
(3 -1.45513e-15 0)
(3 -1.26779e-15 0)
(3 -9.43507e-16 0)
(3 -6.95096e-16 0)
(3 -9.50637e-16 0)
(3 -1.09807e-15 0)
(3 -1.1306e-15 0)
(3 -1.60448e-15 0)
(3 -2.13936e-15 0)
(3 -2.17084e-15 0)
(3 -2.24084e-15 0)
(3 -2.33531e-15 0)
(3 -1.01664e-15 0)
(3 -7.55148e-16 0)
(3 -7.91648e-16 0)
(3 -5.98955e-16 0)
(3 -1.27629e-16 0)
(3 1.00905e-16 0)
(3 -3.31414e-16 0)
(3 -6.56241e-16 0)
(3 -1.19099e-15 0)
(3 -1.75801e-15 0)
(3 -2.23627e-15 0)
(3 -2.22127e-15 0)
(3 -1.53285e-15 0)
(3 -1.90222e-15 0)
(3 -1.54161e-15 0)
(3 -8.52925e-16 0)
(3 -1.10814e-16 0)
(3 -3.29728e-16 0)
(2.94697 0.0251814 0)
(1.0419 0.0911516 0)
(0.761785 0.0767188 0)
(0.74777 0.0856492 0)
(0.733423 0.0867734 0)
(0.719425 0.0853657 0)
(0.705059 0.0830137 0)
(0.690133 0.0819796 0)
(0.674892 0.0834347 0)
(0.659634 0.0866481 0)
(0.644361 0.0899208 0)
(0.628831 0.0912118 0)
(0.613174 0.0901002 0)
(0.597387 0.0895784 0)
(0.582041 0.0919144 0)
(0.566934 0.094435 0)
(0.551846 0.0943611 0)
(0.536612 0.0937923 0)
(0.520998 0.095305 0)
(0.505006 0.0979259 0)
(0.488693 0.0993994 0)
(0.472497 0.0996983 0)
(0.456411 0.100385 0)
(0.440182 0.101866 0)
(0.423604 0.1034 0)
(0.406767 0.104704 0)
(0.389842 0.106007 0)
(0.372881 0.107361 0)
(0.355835 0.108646 0)
(0.338606 0.109806 0)
(0.321086 0.110858 0)
(0.303215 0.111819 0)
(0.28503 0.112683 0)
(0.266658 0.113473 0)
(0.248264 0.114244 0)
(0.22997 0.115039 0)
(0.211827 0.115887 0)
(0.19382 0.116825 0)
(0.175888 0.117937 0)
(0.157952 0.11932 0)
(0.13993 0.121058 0)
(0.121754 0.123191 0)
(0.103399 0.125767 0)
(0.0848698 0.128743 0)
(0.0661956 0.132042 0)
(0.0474688 0.135713 0)
(0.0284486 0.137915 0)
(0.00970283 0.140666 0)
(3 1.23634e-16 0)
(3 5.72422e-16 0)
(3 6.16946e-16 0)
(3 7.45781e-16 0)
(3 5.1404e-16 0)
(3 5.43623e-16 0)
(3 1.09659e-15 0)
(3 1.52517e-15 0)
(3 1.99353e-15 0)
(3 1.36995e-15 0)
(3 5.68722e-16 0)
(3 3.99862e-16 0)
(3 2.78698e-16 0)
(3 3.68788e-16 0)
(3 4.22402e-16 0)
(3 7.24309e-16 0)
(3 9.32898e-16 0)
(3 2.30786e-16 0)
(3 -8.21352e-16 0)
(3 -1.13954e-15 0)
(3 -5.25629e-16 0)
(3 -4.8575e-16 0)
(3 -1.00158e-15 0)
(3 -1.689e-15 0)
(3 -1.54115e-15 0)
(3 -1.84088e-15 0)
(3 -2.08939e-15 0)
(3 -2.04549e-15 0)
(3 -1.48692e-15 0)
(3 -2.88619e-16 0)
(3 -1.39051e-15 0)
(3 -1.56783e-15 0)
(3 -1.2217e-15 0)
(3 -1.31051e-15 0)
(3 -8.40153e-16 0)
(3 -8.05045e-16 0)
(3 -1.87643e-15 0)
(3 -2.23572e-15 0)
(3 -1.92422e-15 0)
(3 -1.80281e-15 0)
(3 -1.89327e-15 0)
(3 -1.34145e-15 0)
(3 -8.60636e-16 0)
(3 -9.53287e-16 0)
(3 -1.01559e-15 0)
(3 -1.00085e-15 0)
(3 -1.13193e-15 0)
(3 -2.34969e-15 0)
(3.00066 0.00320376 0)
(1.11007 0.112943 0)
(0.77399 0.0928006 0)
(0.758921 0.103236 0)
(0.744173 0.104868 0)
(0.729447 0.10443 0)
(0.714425 0.103161 0)
(0.699112 0.102865 0)
(0.683874 0.104523 0)
(0.668963 0.107347 0)
(0.654351 0.110244 0)
(0.63952 0.11203 0)
(0.624102 0.111962 0)
(0.608207 0.112026 0)
(0.592634 0.114324 0)
(0.577529 0.116629 0)
(0.562684 0.116553 0)
(0.547687 0.116348 0)
(0.532322 0.118549 0)
(0.516563 0.121951 0)
(0.500383 0.123831 0)
(0.484328 0.124192 0)
(0.468429 0.125133 0)
(0.452447 0.127229 0)
(0.436059 0.129393 0)
(0.419312 0.131118 0)
(0.402396 0.132804 0)
(0.385361 0.134662 0)
(0.368144 0.136524 0)
(0.350657 0.138242 0)
(0.332812 0.139811 0)
(0.314549 0.141259 0)
(0.29588 0.142578 0)
(0.276904 0.143778 0)
(0.257773 0.144913 0)
(0.238626 0.146024 0)
(0.219546 0.14713 0)
(0.200555 0.148261 0)
(0.181629 0.149504 0)
(0.162721 0.150969 0)
(0.143781 0.152746 0)
(0.124766 0.154896 0)
(0.10567 0.157503 0)
(0.0865175 0.160619 0)
(0.0673291 0.16416 0)
(0.0482256 0.168333 0)
(0.0288366 0.170894 0)
(0.00979443 0.174213 0)
(3 2.19288e-16 0)
(3 2.66382e-16 0)
(3 4.10634e-16 0)
(3 4.26661e-16 0)
(3 3.1182e-16 0)
(3 3.53092e-16 0)
(3 1.18171e-15 0)
(3 1.36301e-15 0)
(3 9.94126e-16 0)
(3 4.57434e-16 0)
(3 1.29218e-16 0)
(3 -3.3192e-17 0)
(3 4.0793e-17 0)
(3 6.26585e-16 0)
(3 1.2395e-16 0)
(3 -4.2332e-16 0)
(3 -7.00709e-16 0)
(3 -6.8217e-16 0)
(3 -6.62893e-16 0)
(3 -1.10075e-15 0)
(3 -8.6336e-16 0)
(3 -1.12906e-15 0)
(3 -8.16544e-16 0)
(3 -5.71564e-16 0)
(3 -4.25102e-16 0)
(3 -5.27421e-16 0)
(3 -3.13178e-16 0)
(3 1.48767e-16 0)
(3 6.0353e-16 0)
(3 4.42455e-16 0)
(3 -4.05424e-16 0)
(3 -1.16883e-15 0)
(3 -1.05812e-15 0)
(3 -1.02833e-15 0)
(3 -8.92677e-16 0)
(3 -8.76815e-16 0)
(3 -1.21288e-15 0)
(3 -1.31717e-15 0)
(3 -9.42168e-16 0)
(3 -5.18736e-16 0)
(3 -7.33698e-16 0)
(3 -9.80839e-16 0)
(3 -9.13685e-16 0)
(3 -7.68014e-16 0)
(3 -8.91224e-16 0)
(3 -1.11004e-15 0)
(3 -1.54156e-15 0)
(3 -1.98535e-15 0)
(3.00003 8.56617e-06 0)
(1.22878 0.136955 0)
(0.777148 0.112969 0)
(0.75675 0.125338 0)
(0.741098 0.128176 0)
(0.724864 0.128207 0)
(0.70871 0.127056 0)
(0.692837 0.126321 0)
(0.677756 0.127031 0)
(0.663547 0.128937 0)
(0.649804 0.131639 0)
(0.635819 0.134542 0)
(0.620927 0.136263 0)
(0.605349 0.137331 0)
(0.58997 0.139362 0)
(0.575235 0.140923 0)
(0.561006 0.140593 0)
(0.546591 0.140776 0)
(0.531828 0.143798 0)
(0.516638 0.148166 0)
(0.500831 0.150656 0)
(0.485079 0.151171 0)
(0.469525 0.152391 0)
(0.454053 0.155189 0)
(0.438256 0.158154 0)
(0.422067 0.160418 0)
(0.405668 0.162528 0)
(0.389087 0.164914 0)
(0.372234 0.167387 0)
(0.355024 0.169704 0)
(0.337404 0.171832 0)
(0.319332 0.173817 0)
(0.3008 0.175651 0)
(0.281872 0.177324 0)
(0.262676 0.178877 0)
(0.243351 0.180347 0)
(0.224001 0.181743 0)
(0.204667 0.18308 0)
(0.18534 0.184444 0)
(0.165978 0.185943 0)
(0.14654 0.187671 0)
(0.127002 0.189702 0)
(0.107385 0.192138 0)
(0.087768 0.195168 0)
(0.0681843 0.198693 0)
(0.048758 0.203186 0)
(0.0291254 0.206011 0)
(0.00988791 0.209834 0)
(3 -4.06823e-17 0)
(3 -3.65095e-16 0)
(3 -8.54609e-16 0)
(3 -7.17353e-16 0)
(3 -4.51404e-16 0)
(3 -2.32365e-16 0)
(3 -3.14025e-16 0)
(3 -6.59604e-16 0)
(3 -1.0957e-15 0)
(3 -1.10943e-15 0)
(3 -9.54489e-16 0)
(3 -8.03539e-16 0)
(3 -1.13672e-16 0)
(3 7.61854e-17 0)
(3 -2.37279e-16 0)
(3 -2.17522e-15 0)
(3 -2.76392e-15 0)
(3 -2.39685e-15 0)
(3 -2.0557e-15 0)
(3 -1.78071e-15 0)
(3 -1.7057e-15 0)
(3 -1.81916e-15 0)
(3 -1.3096e-15 0)
(3 3.83048e-16 0)
(3 8.48838e-16 0)
(3 1.39432e-15 0)
(3 1.7775e-15 0)
(3 2.04477e-15 0)
(3 2.08112e-15 0)
(3 2.30523e-15 0)
(3 2.40966e-15 0)
(3 6.07563e-16 0)
(3 3.73249e-17 0)
(3 4.16775e-17 0)
(3 2.22755e-16 0)
(3 6.64044e-16 0)
(3 5.60165e-16 0)
(3 -2.5981e-16 0)
(3 -9.02318e-16 0)
(3 -1.17807e-15 0)
(3 -1.21865e-15 0)
(3 -1.52184e-15 0)
(3 -1.07152e-15 0)
(3 1.3232e-16 0)
(3 1.49917e-16 0)
(3 -1.78459e-16 0)
(3 -5.17554e-16 0)
(3 -1.53157e-15 0)
(3 1.80754e-08 0)
(1.43712 0.165948 0)
(0.791091 0.137413 0)
(0.759037 0.148401 0)
(0.743341 0.152706 0)
(0.725904 0.153756 0)
(0.708778 0.152948 0)
(0.692089 0.151229 0)
(0.676585 0.149906 0)
(0.662374 0.150065 0)
(0.648924 0.152292 0)
(0.635575 0.156267 0)
(0.62132 0.160006 0)
(0.606157 0.16242 0)
(0.590999 0.164092 0)
(0.576561 0.164501 0)
(0.56285 0.163669 0)
(0.549037 0.164216 0)
(0.535065 0.168073 0)
(0.520726 0.173454 0)
(0.505564 0.176663 0)
(0.490357 0.177259 0)
(0.475377 0.178551 0)
(0.460666 0.181922 0)
(0.445723 0.185781 0)
(0.430271 0.188751 0)
(0.414484 0.191381 0)
(0.398406 0.194385 0)
(0.38194 0.197632 0)
(0.364997 0.200777 0)
(0.347553 0.203742 0)
(0.329583 0.20659 0)
(0.311067 0.209312 0)
(0.292036 0.21186 0)
(0.272595 0.214244 0)
(0.252882 0.216481 0)
(0.233017 0.218556 0)
(0.213061 0.220445 0)
(0.193018 0.222204 0)
(0.172848 0.223928 0)
(0.152515 0.225699 0)
(0.132016 0.227616 0)
(0.111412 0.229787 0)
(0.0908573 0.232593 0)
(0.0703948 0.235886 0)
(0.0502375 0.240552 0)
(0.0299678 0.243579 0)
(0.0101788 0.247846 0)
(3 -1.23842e-16 0)
(3 -2.67486e-16 0)
(3 -3.98628e-16 0)
(3 -8.24585e-16 0)
(3 -1.19156e-15 0)
(3 -1.33718e-15 0)
(3 -1.41588e-15 0)
(3 -1.54712e-15 0)
(3 -2.09558e-15 0)
(3 -2.42005e-15 0)
(3 -2.23049e-15 0)
(3 -1.51716e-15 0)
(3 -1.4651e-15 0)
(3 -1.82434e-15 0)
(3 -2.0083e-15 0)
(3 -1.9407e-15 0)
(3 -1.35084e-15 0)
(3 -1.07901e-15 0)
(3 -1.40139e-15 0)
(3 -1.55888e-15 0)
(3 -1.52661e-15 0)
(3 -1.05958e-15 0)
(3 -6.02224e-16 0)
(3 -7.42782e-16 0)
(3 -4.83309e-16 0)
(3 8.86117e-16 0)
(3 1.44173e-15 0)
(3 1.38305e-15 0)
(3 1.61413e-15 0)
(3 3.62171e-15 0)
(3 4.09026e-15 0)
(3 3.09281e-15 0)
(3 2.04434e-15 0)
(3 5.52539e-16 0)
(3 -7.86475e-17 0)
(3 -1.27455e-15 0)
(3 -6.08619e-16 0)
(3 -1.75478e-16 0)
(3 -2.87269e-16 0)
(3 -1.91562e-17 0)
(3 3.47975e-16 0)
(3 4.10776e-16 0)
(3 3.74463e-16 0)
(3 1.15048e-15 0)
(3 1.427e-15 0)
(3 1.32857e-15 0)
(3 4.31353e-16 0)
(3 -1.05502e-15 0)
(3 3.44798e-11 0)
(1.75749 0.186821 0)
(0.817434 0.165825 0)
(0.764751 0.173717 0)
(0.749059 0.179522 0)
(0.730712 0.181378 0)
(0.713101 0.1808 0)
(0.69579 0.178208 0)
(0.679581 0.174774 0)
(0.664555 0.172813 0)
(0.650385 0.174265 0)
(0.636799 0.179047 0)
(0.622681 0.184785 0)
(0.607506 0.188772 0)
(0.592115 0.190211 0)
(0.577442 0.189345 0)
(0.563575 0.187722 0)
(0.549745 0.188351 0)
(0.536049 0.192872 0)
(0.52219 0.199248 0)
(0.507383 0.203317 0)
(0.492454 0.204018 0)
(0.47784 0.20518 0)
(0.463792 0.209008 0)
(0.449812 0.213939 0)
(0.435256 0.217927 0)
(0.420274 0.221256 0)
(0.404981 0.224967 0)
(0.389288 0.229103 0)
(0.37307 0.233245 0)
(0.356287 0.237247 0)
(0.338919 0.241181 0)
(0.320929 0.245044 0)
(0.302311 0.248745 0)
(0.283139 0.252242 0)
(0.26353 0.255521 0)
(0.243589 0.258539 0)
(0.223365 0.261234 0)
(0.202846 0.26362 0)
(0.181989 0.265767 0)
(0.160762 0.267735 0)
(0.139199 0.269642 0)
(0.117416 0.271566 0)
(0.0956579 0.274116 0)
(0.07399 0.277017 0)
(0.0527612 0.281733 0)
(0.0314534 0.2849 0)
(0.0107013 0.289569 0)
(3 -1.42354e-16 0)
(3 4.16236e-17 0)
(3 1.43066e-16 0)
(3 5.84706e-17 0)
(3 1.79141e-16 0)
(3 1.27673e-16 0)
(3 -7.69513e-17 0)
(3 -4.43335e-16 0)
(3 -1.22413e-15 0)
(3 -1.44452e-15 0)
(3 -1.36187e-15 0)
(3 -1.30338e-15 0)
(3 -1.36575e-15 0)
(3 -1.68882e-15 0)
(3 -1.49591e-15 0)
(3 -7.67873e-16 0)
(3 -4.73123e-16 0)
(3 -6.25114e-16 0)
(3 6.22245e-17 0)
(3 6.20903e-16 0)
(3 7.21297e-16 0)
(3 2.57003e-16 0)
(3 -1.88228e-16 0)
(3 1.95027e-17 0)
(3 1.7612e-16 0)
(3 1.08889e-16 0)
(3 2.75944e-16 0)
(3 1.10705e-15 0)
(3 1.91423e-15 0)
(3 2.2029e-15 0)
(3 2.07788e-15 0)
(3 1.42955e-15 0)
(3 1.17999e-15 0)
(3 1.63593e-16 0)
(3 -9.72969e-16 0)
(3 -8.89963e-16 0)
(3 -8.2093e-16 0)
(3 7.61717e-17 0)
(3 1.07836e-15 0)
(3 1.84297e-15 0)
(3 2.99475e-15 0)
(3 3.23829e-15 0)
(3 1.20488e-15 0)
(3 4.53195e-16 0)
(3 8.29378e-17 0)
(3 1.42404e-16 0)
(3 6.74433e-17 0)
(3 1.34635e-16 0)
(3 6.33057e-14 0)
(2.1906 0.18999 0)
(0.862116 0.205826 0)
(0.757746 0.198156 0)
(0.745549 0.207614 0)
(0.731035 0.210412 0)
(0.716728 0.210886 0)
(0.701268 0.208542 0)
(0.685606 0.203972 0)
(0.670281 0.199986 0)
(0.655477 0.200013 0)
(0.641654 0.204771 0)
(0.627987 0.211909 0)
(0.613155 0.217389 0)
(0.597675 0.218959 0)
(0.582626 0.217192 0)
(0.568188 0.214688 0)
(0.553821 0.214927 0)
(0.539842 0.219609 0)
(0.526018 0.226675 0)
(0.511176 0.231576 0)
(0.496014 0.232393 0)
(0.481154 0.232964 0)
(0.467008 0.236619 0)
(0.453371 0.242292 0)
(0.439219 0.247297 0)
(0.424592 0.251269 0)
(0.409755 0.25555 0)
(0.394698 0.260525 0)
(0.379251 0.265754 0)
(0.36331 0.270964 0)
(0.346823 0.276201 0)
(0.329715 0.281487 0)
(0.311919 0.286705 0)
(0.293431 0.291752 0)
(0.274304 0.296567 0)
(0.254586 0.301067 0)
(0.23429 0.305122 0)
(0.213403 0.308667 0)
(0.191907 0.311713 0)
(0.16981 0.314269 0)
(0.147194 0.316475 0)
(0.124228 0.31835 0)
(0.101223 0.320751 0)
(0.0782306 0.32317 0)
(0.055771 0.327796 0)
(0.0332552 0.331006 0)
(0.0113222 0.336037 0)
(3 9.17288e-17 0)
(3 2.07253e-16 0)
(3 3.26873e-16 0)
(3 4.14799e-16 0)
(3 3.46357e-16 0)
(3 2.75513e-16 0)
(3 -4.08204e-16 0)
(3 -7.53407e-16 0)
(3 -1.10602e-15 0)
(3 -1.28274e-15 0)
(3 -6.39433e-16 0)
(3 -2.91212e-16 0)
(3 -1.16707e-16 0)
(3 -5.1072e-17 0)
(3 3.51827e-17 0)
(3 -5.12313e-16 0)
(3 -1.1275e-15 0)
(3 -9.67704e-16 0)
(3 -7.51182e-17 0)
(3 8.35205e-16 0)
(3 1.67772e-15 0)
(3 1.75542e-15 0)
(3 1.80858e-15 0)
(3 1.84459e-15 0)
(3 1.20954e-15 0)
(3 7.74662e-16 0)
(3 3.29888e-16 0)
(3 5.2036e-17 0)
(3 3.51172e-17 0)
(3 -1.39031e-16 0)
(3 -2.85673e-16 0)
(3 4.2192e-16 0)
(3 1.10741e-15 0)
(3 1.24825e-15 0)
(3 3.59784e-16 0)
(3 5.11917e-17 0)
(3 -6.98133e-17 0)
(3 2.54993e-16 0)
(3 1.07407e-15 0)
(3 1.07617e-15 0)
(3 1.33104e-15 0)
(3 1.55025e-15 0)
(3 1.73212e-15 0)
(3 1.56791e-15 0)
(3 1.54317e-15 0)
(3 1.60913e-15 0)
(3 1.6622e-15 0)
(3 1.37041e-15 0)
(3 6.15228e-16 0)
(2.71208 0.163427 0)
(0.96857 0.251262 0)
(0.781655 0.229692 0)
(0.771317 0.225758 0)
(0.756277 0.229743 0)
(0.742294 0.233434 0)
(0.726557 0.234499 0)
(0.710192 0.231729 0)
(0.693903 0.227447 0)
(0.677752 0.226156 0)
(0.662545 0.230378 0)
(0.648377 0.238494 0)
(0.633436 0.245787 0)
(0.617535 0.248559 0)
(0.601715 0.247095 0)
(0.586251 0.24435 0)
(0.570815 0.244168 0)
(0.555899 0.248722 0)
(0.541602 0.256369 0)
(0.526407 0.262485 0)
(0.51044 0.264159 0)
(0.494519 0.264312 0)
(0.479155 0.267366 0)
(0.464694 0.273349 0)
(0.449991 0.279282 0)
(0.434737 0.283822 0)
(0.419319 0.288359 0)
(0.403898 0.29381 0)
(0.388325 0.299868 0)
(0.372428 0.306118 0)
(0.356147 0.312541 0)
(0.339444 0.319198 0)
(0.322251 0.325983 0)
(0.30451 0.332727 0)
(0.286181 0.339305 0)
(0.267194 0.345576 0)
(0.247438 0.351348 0)
(0.226802 0.356473 0)
(0.205202 0.360927 0)
(0.182605 0.364685 0)
(0.159101 0.367913 0)
(0.134869 0.370497 0)
(0.110295 0.373403 0)
(0.0854385 0.375724 0)
(0.0609734 0.380378 0)
(0.0364001 0.383617 0)
(0.0124099 0.389058 0)
(3 -5.88661e-19 0)
(3 -1.74893e-16 0)
(3 -1.17108e-16 0)
(3 -5.19196e-18 0)
(3 -2.23342e-16 0)
(3 -3.42665e-16 0)
(3 -2.2741e-16 0)
(3 1.65683e-16 0)
(3 4.52856e-16 0)
(3 3.78065e-16 0)
(3 2.98316e-16 0)
(3 3.01951e-16 0)
(3 3.69389e-16 0)
(3 3.97688e-16 0)
(3 6.52256e-16 0)
(3 -2.70428e-16 0)
(3 -1.93393e-16 0)
(3 1.07314e-16 0)
(3 -5.48363e-17 0)
(3 -3.9837e-16 0)
(3 -8.40279e-17 0)
(3 1.50405e-16 0)
(3 6.93138e-16 0)
(3 8.18043e-16 0)
(3 5.49102e-16 0)
(3 1.35696e-16 0)
(3 -1.04153e-16 0)
(3 -1.15576e-15 0)
(3 -2.55139e-15 0)
(3 -2.85861e-15 0)
(3 -2.02499e-15 0)
(3 -1.00848e-15 0)
(3 -5.407e-16 0)
(3 -9.29056e-18 0)
(3 -7.76885e-17 0)
(3 4.56828e-16 0)
(3 9.08426e-16 0)
(3 3.52835e-16 0)
(3 -3.40415e-16 0)
(3 -3.96381e-16 0)
(3 -5.21757e-16 0)
(3 -1.01435e-17 0)
(3 8.16869e-16 0)
(3 1.04694e-15 0)
(3 1.033e-15 0)
(3 1.25554e-15 0)
(3 1.60154e-15 0)
(3 1.3662e-15 0)
(3 9.34504e-16 0)
(3.01879 0.00899385 0)
(1.15853 0.276857 0)
(0.806096 0.232004 0)
(0.793434 0.247557 0)
(0.779528 0.256468 0)
(0.765034 0.261952 0)
(0.750385 0.263943 0)
(0.735483 0.262182 0)
(0.720197 0.258434 0)
(0.704391 0.256122 0)
(0.688843 0.258727 0)
(0.67474 0.265985 0)
(0.660704 0.273583 0)
(0.645653 0.277342 0)
(0.63018 0.276864 0)
(0.61464 0.274498 0)
(0.598889 0.273832 0)
(0.583433 0.277626 0)
(0.568873 0.285254 0)
(0.553865 0.292766 0)
(0.537616 0.296507 0)
(0.520906 0.297171 0)
(0.504341 0.299496 0)
(0.488691 0.305374 0)
(0.473201 0.312357 0)
(0.457061 0.318009 0)
(0.440617 0.323057 0)
(0.42422 0.32897 0)
(0.407824 0.335816 0)
(0.3912 0.343083 0)
(0.374278 0.35062 0)
(0.35708 0.358526 0)
(0.339593 0.366793 0)
(0.32171 0.375275 0)
(0.303269 0.383831 0)
(0.284046 0.392317 0)
(0.263783 0.400534 0)
(0.242265 0.408221 0)
(0.219454 0.415246 0)
(0.195449 0.421376 0)
(0.170545 0.42666 0)
(0.144974 0.430799 0)
(0.118826 0.434836 0)
(0.0923867 0.437454 0)
(0.0660051 0.442063 0)
(0.0393612 0.445042 0)
(0.0133029 0.450607 0)
(3 -5.96485e-17 0)
(3 -9.24747e-18 0)
(3 -1.2405e-16 0)
(3 2.34935e-16 0)
(3 6.35242e-16 0)
(3 1.45054e-15 0)
(3 1.84053e-15 0)
(3 1.89679e-15 0)
(3 1.39286e-15 0)
(3 1.23453e-15 0)
(3 1.18045e-15 0)
(3 5.21553e-16 0)
(3 2.24023e-16 0)
(3 5.28405e-16 0)
(3 1.14858e-15 0)
(3 2.10351e-15 0)
(3 2.3386e-15 0)
(3 2.11967e-15 0)
(3 1.46477e-15 0)
(3 3.71102e-16 0)
(3 -6.97883e-16 0)
(3 -1.06337e-15 0)
(3 -1.15661e-15 0)
(3 -7.77802e-16 0)
(3 -7.07608e-16 0)
(3 -8.33474e-16 0)
(3 -1.11089e-15 0)
(3 -1.96753e-15 0)
(3 -2.74034e-15 0)
(3 -3.13491e-15 0)
(3 -2.86799e-15 0)
(3 -2.34816e-15 0)
(3 -1.59089e-15 0)
(3 -6.56403e-16 0)
(3 4.62141e-16 0)
(3 1.61581e-15 0)
(3 1.51564e-15 0)
(3 1.11733e-15 0)
(3 6.89256e-16 0)
(3 5.85995e-16 0)
(3 6.37864e-16 0)
(3 7.576e-16 0)
(3 5.88518e-16 0)
(3 3.47357e-16 0)
(3 -3.04531e-16 0)
(3 -7.87094e-18 0)
(3 5.36964e-17 0)
(3 3.31678e-16 0)
(3 5.5768e-16 0)
(3.00024 9.58376e-06 0)
(1.57906 0.309005 0)
(0.826326 0.274706 0)
(0.779098 0.279612 0)
(0.766659 0.288152 0)
(0.753732 0.291332 0)
(0.741949 0.292551 0)
(0.729722 0.292455 0)
(0.71655 0.291415 0)
(0.702472 0.290584 0)
(0.688127 0.292495 0)
(0.674908 0.298402 0)
(0.662574 0.305825 0)
(0.64964 0.310809 0)
(0.636112 0.312026 0)
(0.622272 0.311033 0)
(0.608051 0.310725 0)
(0.593799 0.313811 0)
(0.580321 0.320814 0)
(0.567042 0.329217 0)
(0.552493 0.335137 0)
(0.536888 0.337198 0)
(0.520924 0.338987 0)
(0.505492 0.343995 0)
(0.490685 0.351279 0)
(0.475381 0.357979 0)
(0.459494 0.363598 0)
(0.443431 0.369711 0)
(0.427297 0.376977 0)
(0.410858 0.384982 0)
(0.394009 0.393414 0)
(0.376865 0.402341 0)
(0.359567 0.411858 0)
(0.342095 0.421907 0)
(0.324242 0.432326 0)
(0.305707 0.443009 0)
(0.286146 0.45374 0)
(0.265239 0.464096 0)
(0.24289 0.473812 0)
(0.219099 0.48249 0)
(0.194086 0.490226 0)
(0.167658 0.496809 0)
(0.139814 0.503772 0)
(0.11006 0.509486 0)
(0.0790571 0.515992 0)
(0.0470629 0.519628 0)
(0.015721 0.525065 0)
(3 1.05198e-16 0)
(3 3.65954e-16 0)
(3 6.99347e-16 0)
(3 7.32314e-16 0)
(3 6.83315e-16 0)
(3 6.03848e-16 0)
(3 6.18259e-16 0)
(3 4.90331e-16 0)
(3 7.99678e-16 0)
(3 1.36791e-15 0)
(3 1.34537e-15 0)
(3 1.26544e-15 0)
(3 1.47746e-15 0)
(3 1.57049e-15 0)
(3 2.01251e-15 0)
(3 2.91056e-15 0)
(3 2.42815e-15 0)
(3 1.53979e-15 0)
(3 9.98911e-16 0)
(3 5.27613e-16 0)
(3 1.61586e-16 0)
(3 -6.54809e-16 0)
(3 -8.91828e-16 0)
(3 -7.21669e-16 0)
(3 -4.50399e-16 0)
(3 -4.00878e-16 0)
(3 -5.25346e-16 0)
(3 -8.28339e-16 0)
(3 -7.8158e-16 0)
(3 -9.63338e-16 0)
(3 -1.00992e-15 0)
(3 -1.49835e-15 0)
(3 -1.68061e-15 0)
(3 -1.55122e-15 0)
(3 -2.65166e-16 0)
(3 1.96338e-16 0)
(3 -2.24715e-16 0)
(3 -4.69027e-16 0)
(3 -5.88803e-16 0)
(3 -2.83205e-16 0)
(3 2.56925e-16 0)
(3 2.3481e-16 0)
(3 5.22158e-17 0)
(3 3.95461e-17 0)
(3 3.97505e-16 0)
(3 3.62283e-16 0)
(3 -8.66229e-17 0)
(3 -5.55918e-16 0)
(3 -7.59149e-16 0)
(3 1.72438e-08 0)
(2.4131 0.274444 0)
(0.92717 0.334713 0)
(0.793118 0.319963 0)
(0.780061 0.313632 0)
(0.76596 0.31555 0)
(0.75412 0.317321 0)
(0.742365 0.319454 0)
(0.729837 0.321331 0)
(0.716418 0.322534 0)
(0.702584 0.324156 0)
(0.689419 0.328266 0)
(0.677502 0.334272 0)
(0.665672 0.33943 0)
(0.653245 0.342174 0)
(0.640255 0.343086 0)
(0.626808 0.343967 0)
(0.613196 0.346937 0)
(0.600081 0.35319 0)
(0.587676 0.361791 0)
(0.574711 0.369734 0)
(0.560371 0.374334 0)
(0.545199 0.376829 0)
(0.529998 0.381243 0)
(0.515571 0.388624 0)
(0.5012 0.396784 0)
(0.486185 0.404008 0)
(0.470714 0.411087 0)
(0.455002 0.419175 0)
(0.438906 0.428335 0)
(0.422213 0.438103 0)
(0.405106 0.448461 0)
(0.387779 0.459459 0)
(0.370486 0.471288 0)
(0.352932 0.483756 0)
(0.334746 0.496912 0)
(0.315241 0.510657 0)
(0.293863 0.524715 0)
(0.27037 0.538852 0)
(0.244593 0.552723 0)
(0.216694 0.566312 0)
(0.186813 0.579157 0)
(0.155651 0.592139 0)
(0.123342 0.603727 0)
(0.0899539 0.613303 0)
(0.0550156 0.618668 0)
(0.0175592 0.622204 0)
(3 1.06464e-16 0)
(3 1.33125e-16 0)
(3 3.20186e-16 0)
(3 2.91921e-16 0)
(3 -2.06863e-17 0)
(3 -2.96797e-16 0)
(3 -1.84221e-16 0)
(3 -3.54989e-17 0)
(3 5.292e-16 0)
(3 1.44216e-15 0)
(3 1.87363e-15 0)
(3 2.02683e-15 0)
(3 2.47328e-15 0)
(3 2.6061e-15 0)
(3 2.50916e-15 0)
(3 1.37665e-15 0)
(3 7.49436e-16 0)
(3 2.19815e-16 0)
(3 -2.76633e-16 0)
(3 -5.13671e-16 0)
(3 1.04656e-16 0)
(3 9.73586e-16 0)
(3 6.08799e-16 0)
(3 -2.58474e-16 0)
(3 -2.07939e-16 0)
(3 -1.7583e-16 0)
(3 -1.03002e-16 0)
(3 1.49511e-16 0)
(3 5.89297e-16 0)
(3 7.62721e-16 0)
(3 3.21144e-16 0)
(3 -5.64789e-16 0)
(3 -6.69472e-16 0)
(3 -4.42547e-16 0)
(3 -5.49355e-16 0)
(3 -5.41398e-16 0)
(3 -7.10914e-16 0)
(3 -8.83561e-16 0)
(3 -9.53684e-16 0)
(3 -8.60853e-16 0)
(3 -3.92687e-16 0)
(3 -4.48049e-16 0)
(3 -6.78258e-16 0)
(3 -1.44369e-15 0)
(3 -1.3196e-15 0)
(3 -1.08539e-15 0)
(3 -7.40467e-16 0)
(3 -7.37994e-16 0)
(3 -1.20714e-15 0)
(3 -5.19566e-09 0)
(3.02692 0.0158952 0)
(1.26974 0.374537 0)
(0.842809 0.329609 0)
(0.81841 0.33833 0)
(0.803307 0.337874 0)
(0.789644 0.337819 0)
(0.776853 0.340623 0)
(0.763739 0.345198 0)
(0.749748 0.349782 0)
(0.735115 0.352982 0)
(0.720866 0.356034 0)
(0.707788 0.360337 0)
(0.695467 0.365171 0)
(0.682978 0.369468 0)
(0.669926 0.37298 0)
(0.656408 0.37619 0)
(0.642765 0.380082 0)
(0.629469 0.385784 0)
(0.616966 0.39367 0)
(0.604818 0.402435 0)
(0.591704 0.409711 0)
(0.57731 0.414428 0)
(0.562354 0.419087 0)
(0.547883 0.426346 0)
(0.53408 0.435632 0)
(0.520093 0.444947 0)
(0.505627 0.453737 0)
(0.49081 0.462996 0)
(0.475622 0.47343 0)
(0.459761 0.484739 0)
(0.44329 0.496915 0)
(0.426371 0.509834 0)
(0.409562 0.523921 0)
(0.392759 0.538955 0)
(0.375689 0.55522 0)
(0.357474 0.572766 0)
(0.337623 0.591631 0)
(0.315823 0.611589 0)
(0.292126 0.632161 0)
(0.266708 0.652561 0)
(0.239619 0.671516 0)
(0.210378 0.687856 0)
(0.178901 0.703428 0)
(0.141812 0.722005 0)
(0.0958465 0.744516 0)
(0.036639 0.764165 0)
(3 -2.24759e-16 0)
(3 -3.62393e-16 0)
(3 -5.45137e-16 0)
(3 -6.34178e-16 0)
(3 -6.70952e-16 0)