/*--------------------------------*- C++ -*----------------------------------*\
  =========                 |
  \\      /  F ield         | OpenFOAM: The Open Source CFD Toolbox
   \\    /   O peration     | Website:  https://openfoam.org
    \\  /    A nd           | Version:  7
     \\/     M anipulation  |
\*---------------------------------------------------------------------------*/
FoamFile
{
    version     2.0;
    format      ascii;
    class       volScalarField;
    location    "37";
    object      p;
}
// * * * * * * * * * * * * * * * * * * * * * * * * * * * * * * * * * * * * * //

dimensions      [0 2 -2 0 0 0 0];

internalField   nonuniform List<scalar> 
8800
(
0.981362
0.933573
0.894879
0.865877
0.845004
0.830157
0.819538
0.812029
0.80717
0.805059
0.806258
0.810394
0.816994
0.826275
0.83903
0.856746
0.881512
0.915445
0.957987
1.01669
0.812624
0.820301
0.827765
0.831069
0.829558
0.824468
0.817965
0.811864
0.807104
0.804211
0.803869
0.806307
0.81074
0.816644
0.823383
0.829641
0.833265
0.83252
0.827089
0.818392
0.791045
0.797204
0.801326
0.804261
0.806298
0.806885
0.805755
0.803619
0.801557
0.800584
0.801475
0.803791
0.806538
0.808678
0.809253
0.808031
0.80567
0.802264
0.7977
0.793937
0.785273
0.787921
0.790666
0.79306
0.794681
0.795823
0.796537
0.796616
0.796269
0.796149
0.796819
0.797916
0.798694
0.79871
0.798062
0.796941
0.795102
0.792513
0.7901
0.788595
0.779942
0.781365
0.783137
0.785158
0.786927
0.788246
0.789205
0.789959
0.790514
0.790996
0.791553
0.79196
0.791985
0.791637
0.790891
0.789603
0.787876
0.786004
0.784684
0.783853
0.77493
0.77585
0.777085
0.778641
0.780257
0.781758
0.78301
0.784027
0.784921
0.785717
0.786292
0.786513
0.786379
0.785862
0.784918
0.783666
0.782296
0.781004
0.780167
0.779617
0.770108
0.770776
0.771733
0.773025
0.774418
0.775852
0.777255
0.778522
0.779641
0.780633
0.781315
0.781549
0.781346
0.780736
0.779846
0.778829
0.777759
0.776794
0.776191
0.775788
0.76543
0.765945
0.766723
0.767845
0.769106
0.770454
0.771861
0.773274
0.774611
0.77581
0.776646
0.776947
0.776768
0.77625
0.775536
0.77472
0.773868
0.773132
0.77268
0.772367
0.760833
0.761242
0.761895
0.762895
0.764086
0.765386
0.766786
0.768272
0.769788
0.771222
0.772259
0.772701
0.77267
0.772333
0.771807
0.771171
0.770499
0.769938
0.769593
0.769342
0.756239
0.75657
0.757135
0.758057
0.7592
0.760482
0.761908
0.763473
0.765144
0.766826
0.768128
0.768813
0.769013
0.768883
0.768547
0.768097
0.767589
0.767172
0.766909
0.766701
0.751569
0.751841
0.752346
0.753226
0.754354
0.755659
0.757148
0.758831
0.760696
0.762665
0.764304
0.765305
0.765778
0.765881
0.765744
0.76547
0.765113
0.764816
0.764619
0.764445
0.746754
0.74698
0.747445
0.748313
0.749466
0.750836
0.752433
0.754291
0.756413
0.758733
0.760793
0.762179
0.762964
0.763325
0.763403
0.763301
0.763095
0.762903
0.762759
0.762608
0.741718
0.741905
0.74235
0.743236
0.744453
0.745931
0.74769
0.749793
0.752265
0.755054
0.75762
0.759441
0.760581
0.761231
0.761543
0.761624
0.761563
0.761465
0.761366
0.761235
0.736385
0.736539
0.736979
0.737907
0.739228
0.740857
0.742828
0.745231
0.748119
0.751476
0.754671
0.757045
0.758631
0.759629
0.760211
0.760495
0.760577
0.760572
0.760516
0.760401
0.730664
0.730789
0.731235
0.73223
0.733694
0.73553
0.737788
0.740583
0.744003
0.748067
0.752031
0.755068
0.757185
0.758584
0.759475
0.760001
0.760252
0.760342
0.760325
0.76022
0.724447
0.724542
0.725009
0.726099
0.727748
0.729849
0.732478
0.735787
0.739892
0.744832
0.749742
0.753589
0.756319
0.758198
0.759451
0.760238
0.76068
0.760872
0.760895
0.760798
0.717595
0.717671
0.718153
0.719352
0.721236
0.723669
0.726763
0.730701
0.735658
0.741703
0.747756
0.752562
0.756064
0.758536
0.760235
0.761343
0.762007
0.762314
0.762378
0.762288
0.709852
0.709916
0.71046
0.711785
0.713948
0.716801
0.720476
0.725202
0.731198
0.738567
0.746049
0.752066
0.756486
0.75967
0.761936
0.76347
0.76441
0.764854
0.764959
0.76487
0.700989
0.701026
0.701637
0.703158
0.705682
0.709081
0.713512
0.719276
0.726636
0.735697
0.744872
0.752273
0.757776
0.761805
0.764748
0.766771
0.76805
0.768656
0.768803
0.76871
0.690574
0.690598
0.691295
0.693062
0.69604
0.700124
0.70551
0.712555
0.721569
0.732672
0.743947
0.753073
0.759904
0.764963
0.768731
0.771369
0.773063
0.773855
0.774041
0.773936
0.677978
0.677998
0.678826
0.680946
0.684571
0.68961
0.696295
0.705059
0.716233
0.729892
0.743646
0.754739
0.763082
0.76932
0.774015
0.777368
0.779525
0.780513
0.780731
0.780606
0.662353
0.662377
0.663422
0.666086
0.670639
0.677003
0.685447
0.696459
0.710355
0.727133
0.743843
0.757256
0.767352
0.774948
0.780693
0.78485
0.787502
0.788685
0.788928
0.788776
0.642508
0.642545
0.643942
0.647473
0.65342
0.661705
0.672614
0.686652
0.704034
0.7246
0.744756
0.760787
0.772834
0.781937
0.788859
0.793885
0.797046
0.798414
0.798677
0.798495
0.616661
0.616734
0.618752
0.623723
0.63192
0.643074
0.657512
0.6756
0.697371
0.722457
0.746539
0.765478
0.779679
0.790431
0.798626
0.804595
0.808261
0.809791
0.810057
0.809843
0.58186
0.582062
0.585336
0.592956
0.604941
0.620558
0.640026
0.663444
0.690604
0.720928
0.749369
0.771456
0.787956
0.800499
0.810079
0.817043
0.821193
0.822835
0.823076
0.822826
0.532444
0.53351
0.540092
0.553103
0.57163
0.594103
0.620501
0.650663
0.684189
0.720377
0.753487
0.778849
0.797737
0.812125
0.823184
0.831164
0.83574
0.837417
0.837598
0.837306
0.459388
0.466842
0.48211
0.50521
0.533417
0.56499
0.599865
0.637829
0.678483
0.721133
0.759381
0.788403
0.81001
0.826584
0.83945
0.8486
0.853724
0.855551
0.855747
0.855504
0.380695
0.398056
0.422752
0.456486
0.494785
0.535666
0.579128
0.625148
0.673432
0.723397
0.767936
0.801758
0.827045
0.846595
0.861896
0.872709
0.878507
0.880454
0.880705
0.880633
0.315409
0.33572
0.36824
0.410838
0.458004
0.507642
0.559414
0.613305
0.669045
0.726074
0.776575
0.814883
0.84361
0.865838
0.883009
0.894786
0.901046
0.903529
0.903819
0.903821
0.261938
0.283954
0.321875
0.370771
0.424966
0.481917
0.54101
0.602104
0.664802
0.72849
0.784574
0.826967
0.858656
0.882969
0.901463
0.914386
0.92177
0.924112
0.924484
0.924539
0.217462
0.240519
0.282018
0.335977
0.39585
0.458841
0.524197
0.59166
0.660685
0.730517
0.791732
0.83778
0.871967
0.897973
0.917681
0.93142
0.939358
0.94205
0.942599
0.94269
0.179577
0.203216
0.2475
0.305335
0.369912
0.438043
0.508842
0.581949
0.656689
0.732152
0.798056
0.847345
0.883676
0.911048
0.931628
0.946004
0.954398
0.957555
0.958258
0.958367
0.146375
0.170389
0.216793
0.277827
0.346327
0.418905
0.494519
0.572703
0.652673
0.733336
0.803558
0.855746
0.89388
0.922344
0.943604
0.958474
0.967198
0.970686
0.971504
0.97161
0.116407
0.14077
0.188848
0.252554
0.324428
0.400874
0.480789
0.563602
0.648408
0.733945
0.808211
0.86307
0.9028
0.93218
0.953931
0.969137
0.978062
0.981779
0.982651
0.982743
0.0887397
0.113438
0.162943
0.228881
0.303674
0.383529
0.46731
0.554359
0.643683
0.733849
0.812005
0.869425
0.910669
0.940903
0.963096
0.978545
0.987601
0.991419
0.992312
0.992354
0.0625774
0.0876615
0.13851
0.20636
0.283688
0.366556
0.453825
0.544771
0.638332
0.732939
0.814918
0.874904
0.917683
0.948775
0.971425
0.987057
0.99618
1.00002
1.00098
1.00099
0.0375614
0.0630756
0.114984
0.184635
0.264187
0.349745
0.440167
0.534697
0.632235
0.731136
0.816942
0.879586
0.924008
0.956039
0.979176
0.995004
1.00415
1.00793
1.00885
1.00887
0.0132815
0.0393463
0.0921937
0.163482
0.244989
0.332954
0.426231
0.524049
0.625313
0.728368
0.818055
0.883527
0.929763
0.96287
0.986574
1.00263
1.01179
1.01552
1.01632
1.01627
-0.0103955
0.0161435
0.0700612
0.14275
0.226
0.31611
0.411958
0.512785
0.617523
0.724593
0.818231
0.886749
0.935034
0.96938
0.993751
1.01006
1.01919
1.02278
1.02348
1.02335
-0.0335841
-0.00648435
0.048398
0.122367
0.207183
0.299196
0.397344
0.500893
0.608849
0.719769
0.817407
0.889223
0.939842
0.975647
1.00078
1.01732
1.02633
1.02972
1.03026
1.03008
-0.0563812
-0.0286565
0.0271382
0.102309
0.188518
0.282226
0.382419
0.48841
0.599305
0.713866
0.815507
0.89087
0.944183
0.981729
1.00772
1.02445
1.03324
1.03631
1.0367
1.03647
-0.078785
-0.0503739
0.00632556
0.0825898
0.170048
0.26524
0.367238
0.475388
0.588926
0.706863
0.812456
0.891591
0.948002
0.987679
1.01471
1.03152
1.03987
1.0425
1.04272
1.04246
-0.100629
-0.0715702
-0.0140035
0.0632474
0.151813
0.248309
0.351868
0.461908
0.577779
0.698793
0.808189
0.89126
0.951171
0.993513
1.02194
1.03871
1.04626
1.04823
1.04825
1.04798
-0.121879
-0.0922064
-0.0338229
0.044336
0.133875
0.231498
0.336405
0.448057
0.565951
0.689695
0.802664
0.889723
0.953505
0.999153
1.02963
1.04649
1.05271
1.05351
1.05322
1.05299
-0.142596
-0.112238
-0.0530933
0.0258938
0.116301
0.214891
0.32094
0.433943
0.553545
0.679645
0.795845
0.886833
0.954746
1.00434
1.0379
1.05564
1.06021
1.05882
1.05767
1.05768
-0.162596
-0.131635
-0.0717513
0.00798873
0.0991502
0.198573
0.30557
0.419681
0.540684
0.668752
0.787742
0.88245
0.954585
1.00858
1.04641
1.06688
1.07092
1.0666
1.06291
1.06211
-0.181971
-0.150382
-0.0898103
-0.00940411
0.0823908
0.182495
0.290238
0.405211
0.527299
0.656942
0.778225
0.876306
0.952681
1.01115
1.05413
1.07985
1.08686
1.08235
1.07237
1.05628
-0.200641
-0.168466
-0.107387
-0.0264761
0.0657319
0.166322
0.274524
0.390045
0.512841
0.643559
0.766614
0.867554
0.948359
1.01099
1.05863
1.09102
1.10204
1.09158
1.0731
1.05768
-0.218426
-0.18601
-0.124291
-0.0429948
0.0494807
0.150403
0.258656
0.374514
0.49763
0.628889
0.753048
0.855826
0.941033
1.007
1.0549
1.08708
1.10172
1.08167
1.01212
0.979886
-0.234659
-0.204197
-0.140197
-0.0583729
0.0343625
0.135237
0.242933
0.358847
0.48189
0.61307
0.737507
0.840911
0.929556
0.998933
1.03879
1.06321
1.06188
1.01105
0.940737
0.897071
-0.29077
-0.2202
-0.154816
-0.0736623
0.0188901
0.1194
0.227297
0.342771
0.465266
0.595679
0.719449
0.822383
0.910442
0.986913
0.992535
1.00405
0.965136
0.899381
0.823147
0.780382
-0.251917
-0.235905
-0.176284
-0.095241
-0.00362584
0.0966199
0.203482
0.31812
0.439341
0.56786
0.688935
0.789368
0.868785
0.946471
0.940864
0.83529
0.73326
0.66219
0.589447
0.623147
-0.283192
-0.253784
-0.193195
-0.112836
-0.0211558
0.0787546
0.185791
0.299703
0.419716
0.546197
0.6641
0.760287
0.831829
0.872259
0.827504
0.684476
0.558617
0.4687
0.369909
0.423033
-0.307271
-0.274904
-0.213019
-0.132385
-0.0406332
0.0591208
0.166002
0.278986
0.397468
0.521361
0.635312
0.725697
0.78752
0.796075
0.693573
0.522131
0.369389
0.250353
0.119593
0.154116
-0.330836
-0.296885
-0.233778
-0.15228
-0.0603564
0.0392504
0.145576
0.25751
0.374272
0.495237
0.604432
0.688307
0.734805
0.712084
0.556998
0.360628
0.168768
-0.00353927
-0.196127
-0.209833
-0.353738
-0.319345
-0.255325
-0.173072
-0.0809327
0.0184767
0.124134
0.23491
0.349715
0.467406
0.571285
0.647822
0.676629
0.619149
0.427304
0.215572
-0.00474884
-0.199699
-0.448546
-0.759327
-0.376903
-0.342502
-0.277933
-0.195163
-0.102793
-0.00352459
0.10154
0.211141
0.323901
0.438105
0.536493
0.604532
0.615246
0.507269
0.314932
0.10344
-0.104082
-0.28028
-0.348171
-0.435965
-0.401248
-0.366799
-0.30193
-0.21889
-0.126421
-0.0273768
0.0770082
0.185268
0.29568
0.405897
0.49836
0.556162
0.542339
0.400395
0.215785
0.0236799
-0.14096
-0.234775
-0.258868
-0.275521
-0.427089
-0.392551
-0.327479
-0.24433
-0.151935
-0.0532712
0.0502044
0.156829
0.264481
0.370069
0.45611
0.501026
0.468717
0.301141
0.126244
-0.0398806
-0.168373
-0.207213
-0.221366
-0.222661
-0.454623
-0.419913
-0.354629
-0.271457
-0.179265
-0.0811907
0.0211375
0.125803
0.230261
0.330637
0.409408
0.440198
0.391272
0.208633
0.0432606
-0.104975
-0.184707
-0.201364
-0.202751
-0.202632
-0.483891
-0.448885
-0.383389
-0.300247
-0.2084
-0.111094
-0.0101615
0.0922103
0.193054
0.287689
0.358236
0.378267
0.293851
0.123446
-0.0336034
-0.15446
-0.190132
-0.192347
-0.192867
-0.192363
-0.514592
-0.4794
-0.413629
-0.330589
-0.239221
-0.14289
-0.0436173
0.0561279
0.15293
0.24132
0.30322
0.306165
0.20047
0.0436835
-0.0957853
-0.172922
-0.18338
-0.186649
-0.187614
-0.187546
-0.546136
-0.51083
-0.445082
-0.362236
-0.271506
-0.176372
-0.079022
0.0177534
0.110127
0.191818
0.245053
0.23006
0.114029
-0.0262875
-0.145068
-0.172296
-0.184014
-0.18595
-0.185488
-0.185223
-0.578078
-0.542653
-0.477275
-0.39477
-0.304866
-0.211168
-0.116025
-0.022541
0.0650366
0.139847
0.183081
0.154545
0.0278642
-0.0885384
-0.178234
-0.209128
-0.193408
-0.188141
-0.186993
-0.186363
-0.609551
-0.574311
-0.509317
-0.427523
-0.338718
-0.246735
-0.154086
-0.0641609
0.0182693
0.0862116
0.118986
0.0805252
-0.0603416
-0.145775
-0.181895
-0.189661
-0.196982
-0.199361
-0.198455
-0.197495
-0.638958
-0.604559
-0.540285
-0.459569
-0.372244
-0.282294
-0.192436
-0.106257
-0.0292051
0.0318323
0.057464
-0.00169776
-0.151923
-0.230575
-0.204232
-0.229684
-0.226271
-0.217009
-0.214472
-0.213802
-0.66486
-0.631382
-0.569112
-0.489779
-0.404374
-0.316819
-0.230061
-0.14776
-0.0759116
-0.0220417
3.2924e-05
-0.0872455
-0.258662
-0.375356
-0.340327
-0.313647
-0.282734
-0.264097
-0.257095
-0.254385
-0.685218
-0.653518
-0.593644
-0.516746
-0.433791
-0.349083
-0.265689
-0.187369
-0.120126
-0.0734663
-0.0542929
-0.15652
-0.354789
-0.622274
-0.636588
-0.492353
-0.414115
-0.382376
-0.361612
-0.350477
-0.698008
-0.668915
-0.612308
-0.538647
-0.458955
-0.377658
-0.297896
-0.223513
-0.160154
-0.119016
-0.101745
-0.187668
-0.344921
-0.650454
-0.766779
-0.557841
-0.497342
-0.475751
-0.455291
-0.449207
-0.700771
-0.675575
-0.623306
-0.5538
-0.478204
-0.400997
-0.325128
-0.254489
-0.194373
-0.15463
-0.131158
-0.151923
-0.1025
-0.0826074
-0.25389
-0.322451
-0.361731
-0.384485
-0.397365
-0.40144
-0.691882
-0.671306
-0.624681
-0.560713
-0.4901
-0.417584
-0.345863
-0.278624
-0.221367
-0.180745
-0.148987
-0.114377
0.110055
0.517072
0.368909
-0.118943
-0.39855
-0.425111
-0.428163
-0.428316
-0.669328
-0.653287
-0.614897
-0.55833
-0.493753
-0.426333
-0.358763
-0.294393
-0.239238
-0.200366
-0.175431
-0.209818
-0.241364
-0.0333701
-0.275091
-0.532413
-0.6373
-0.559351
-0.504156
-0.532766
-0.634947
-0.624174
-0.594474
-0.546919
-0.489119
-0.426935
-0.363038
-0.300675
-0.245146
-0.206492
-0.201613
-0.447459
-1.12789
-2.22198
-2.73978
-2.97032
-2.64066
-2.15809
-1.70851
-1.55399
-0.594105
-0.587853
-0.567537
-0.528812
-0.477873
-0.420075
-0.35863
-0.296271
-0.237444
-0.191703
-0.197418
-0.484987
-1.26128
-2.24222
-2.84085
-2.9243
-2.63796
-2.2543
-1.90575
-1.73462
-0.554509
-0.550958
-0.539448
-0.508986
-0.463062
-0.408003
-0.346894
-0.28131
-0.214688
-0.150543
-0.111277
-0.160111
-0.270643
-0.208693
-0.0528754
0.254141
0.561631
0.791423
0.94477
1.01334
-0.522986
-0.520841
-0.515008
-0.492115
-0.44976
-0.394432
-0.331008
-0.258895
-0.179878
-0.0896922
0.013909
0.151702
0.458986
1.00401
1.6442
2.21146
2.62177
2.84926
2.9395
2.96343
-0.496559
-0.495785
-0.494314
-0.479774
-0.440764
-0.383445
-0.315222
-0.236863
-0.146149
-0.0424387
0.0793959
0.206138
0.495224
1.04737
1.64788
2.17349
2.54426
2.759
2.85689
2.88406
-0.477678
-0.477393
-0.477402
-0.469149
-0.434447
-0.375195
-0.301916
-0.218434
-0.123821
-0.0163896
0.0925698
0.208899
0.391453
0.861078
1.35894
1.78228
2.09398
2.27389
2.35375
2.37527
-0.461144
-0.460377
-0.460249
-0.457438
-0.428322
-0.367749
-0.290474
-0.204236
-0.110872
-0.00786694
0.0914805
0.192816
0.314366
0.650785
1.03774
1.35234
1.58231
1.71073
1.76816
1.78422
-0.452351
-0.45094
-0.451119
-0.450364
-0.422736
-0.358541
-0.277345
-0.190093
-0.0992128
-0.00144986
0.0888299
0.172745
0.260732
0.47827
0.75284
0.973256
1.13432
1.22659
1.26665
1.27622
-0.450287
-0.451644
-0.455578
-0.45329
-0.417616
-0.342988
-0.257116
-0.170974
-0.0853148
0.00266849
0.0794101
0.143323
0.199521
0.353864
0.539011
0.688008
0.796228
0.85845
0.886763
0.89295
-0.420587
-0.426128
-0.433665
-0.426835
-0.383422
-0.305989
-0.223324
-0.144483
-0.0691821
0.00599775
0.0718865
0.122426
0.169035
0.265234
0.39337
0.494693
0.566539
0.606168
0.62229
0.624912
-0.313632
-0.32016
-0.32669
-0.320256
-0.285594
-0.228939
-0.167591
-0.10648
-0.0468127
0.0142368
0.0678715
0.107967
0.145475
0.208357
0.291504
0.358308
0.40518
0.432167
0.442496
0.442814
-0.153151
-0.156887
-0.161616
-0.161348
-0.148639
-0.125129
-0.0943945
-0.0590462
-0.0192902
0.0252408
0.0655345
0.0996128
0.131526
0.171218
0.222298
0.266937
0.297685
0.314768
0.322062
0.321792
-0.0087992
-0.0105453
-0.0148164
-0.0220345
-0.0285968
-0.0306182
-0.0252408
-0.0122371
0.00889792
0.0374023
0.0671193
0.0951203
0.12072
0.145899
0.176182
0.204096
0.224455
0.236673
0.240963
0.239995
0.0807287
0.0798318
0.0756296
0.0651626
0.0493853
0.0351523
0.0266784
0.0259016
0.0334807
0.0489713
0.0682371
0.0872739
0.105349
0.120068
0.138472
0.157581
0.171998
0.180039
0.182661
0.181322
0.120248
0.119609
0.116001
0.106219
0.0905209
0.0740248
0.0607285
0.05296
0.0520644
0.0579287
0.0675491
0.0779024
0.0868261
0.0935455
0.106319
0.120582
0.131396
0.137237
0.138855
0.137454
0.130242
0.129711
0.126973
0.119562
0.107199
0.0930352
0.0801006
0.0704262
0.0652083
0.0644377
0.0655563
0.0661607
0.0646811
0.0659059
0.0765384
0.0893078
0.0988703
0.103544
0.104841
0.103646
0.126803
0.126383
0.124503
0.119534
0.110955
0.100417
0.0897934
0.0806829
0.0739138
0.0692771
0.0638455
0.0549049
0.0449498
0.0453793
0.0573216
0.069094
0.0766625
0.0800259
0.0807029
0.0796904
0.118732
0.118404
0.117178
0.114104
0.108635
0.101474
0.0936854
0.0863927
0.0800483
0.0740736
0.0653892
0.0508901
0.0346371
0.0358807
0.0491462
0.0603827
0.0661688
0.0678295
0.0679912
0.067299
0.110158
0.109906
0.109126
0.107334
0.104095
0.099634
0.0945283
0.0894984
0.0850261
0.0804664
0.0724276
0.0580468
0.0427722
0.0474482
0.0602868
0.0676481
0.0701817
0.070221
0.0700594
0.0696892
0.102563
0.102383
0.101898
0.10089
0.0991305
0.0966215
0.0936905
0.0909652
0.0889666
0.0875975
0.0855165
0.0787085
0.0723006
0.0798554
0.0880771
0.0911664
0.0911941
0.0902579
0.0897827
0.0892356
0.0958949
0.0957846
0.0955019
0.0949263
0.0941111
0.0929269
0.0917348
0.0911304
0.0921143
0.0957723
0.102643
0.108841
0.114346
0.122377
0.124474
0.123572
0.122315
0.121841
0.12142
0.120756
0.0895042
0.0894545
0.0893229
0.0889859
0.0885598
0.088311
0.0883254
0.0893797
0.093052
0.101722
0.118366
0.14041
0.160696
0.167264
0.162056
0.156608
0.15504
0.155493
0.155225
0.154256
0.0826496
0.0826549
0.0826593
0.0824975
0.0823229
0.082279
0.0831447
0.0852851
0.0903818
0.102429
0.126335
0.161779
0.194733
0.197262
0.18519
0.178212
0.177415
0.178676
0.177884
0.176598
0.074784
0.0748181
0.0749186
0.0749049
0.0749736
0.0752221
0.0758309
0.0783743
0.0834995
0.0956666
0.120356
0.158704
0.198759
0.201163
0.185979
0.180751
0.180523
0.182259
0.18078
0.179192
0.0655616
0.0656332
0.0658518
0.0661477
0.0661954
0.0664872
0.0670174
0.0685893
0.0723132
0.080828
0.0991062
0.130554
0.160737
0.160455
0.148948
0.146781
0.152285
0.154823
0.1532
0.151607
0.0545836
0.0546141
0.0547994
0.0552131
0.0555672
0.0559115
0.0564321
0.0568202
0.0579508
0.0602907
0.0640623
0.0721822
0.0797417
0.0780375
0.0792693
0.0879405
0.0952061
0.0974206
0.0957542
0.0940927
0.0424653
0.0424019
0.0425728
0.0429354
0.0437137
0.0445309
0.0450025
0.0447703
0.0434699
0.0381398
0.0243714
0.000348674
-0.0288944
-0.0259392
-0.00881913
0.0066454
0.0102688
0.0120282
0.0124696
0.0116883
0.0298638
0.0298243
0.0300488
0.0307417
0.0315465
0.0319186
0.0319449
0.0315133
0.0285698
0.0200139
-0.00317837
-0.0560929
-0.105796
-0.0968027
-0.0702119
-0.0650669
-0.0716971
-0.0743502
-0.0713196
-0.070351
0.016581
0.0165041
0.0166699
0.0176302
0.0188503
0.0198276
0.0203254
0.0201621
0.0173869
0.00953025
-0.011302
-0.0562985
-0.0960972
-0.0883791
-0.0757457
-0.0850968
-0.105156
-0.111584
-0.106509
-0.102686
0.00383759
0.00363095
0.0032903
0.00272436
0.0021017
0.00175765
0.00181882
0.00219913
0.00245473
0.00286675
0.00454696
0.00365215
-0.0206014
-0.0235498
-0.024702
-0.0321093
-0.0388924
-0.0378814
-0.0328993
-0.0279524
0.0403109
0.214275
0.417522
0.593346
0.734696
0.84709
0.940602
1.01972
1.05522
1.03202
0.357278
0.482508
0.616872
0.733286
0.83179
0.913637
0.979888
1.0268
1.05039
1.06231
0.58452
0.67021
0.761878
0.843176
0.913183
0.971768
1.0183
1.05225
1.07666
1.0945
0.750321
0.811129
0.875405
0.934233
0.985508
1.02901
1.06468
1.09306
1.11627
1.13449
0.879237
0.923725
0.970856
1.0158
1.05552
1.09015
1.11974
1.14431
1.16496
1.18275
0.985575
1.01927
1.05817
1.09448
1.12775
1.15752
1.1835
1.2053
1.22333
1.24065
1.07942
1.10859
1.1431
1.17569
1.20604
1.23356
1.25757
1.27749
1.29312
1.31019
1.16881
1.19831
1.23264
1.26497
1.29483
1.32163
1.34467
1.36329
1.37675
1.39379
1.26461
1.29797
1.33483
1.3686
1.39881
1.42513
1.4472
1.46456
1.47649
1.4939
1.3799
1.41784
1.4566
1.49097
1.52042
1.54525
1.56569
1.58164
1.59315
1.61123
1.52505
1.56367
1.59987
1.63062
1.65636
1.67851
1.69761
1.71318
1.72563
1.74364
1.70023
1.73191
1.75813
1.78062
1.80063
1.81938
1.83712
1.85362
1.86899
1.88706
1.8889
1.90614
1.92121
1.93747
1.95339
1.96794
1.98116
1.9951
2.01265
2.03281
2.07071
2.08022
2.09178
2.1026
2.11189
2.12148
2.13229
2.14366
2.15503
2.17039
2.27793
2.2816
2.26666
2.25185
2.24559
2.25128
2.26976
2.30008
2.33226
2.35892
2.58424
2.44938
2.37276
2.3304
2.31299
2.31695
2.34436
2.40077
2.50339
2.72776
0.871961
0.869829
0.865343
0.856713
0.84448
0.832339
0.822093
0.81417
0.808512
0.805204
0.804779
0.807445
0.812489
0.819666
0.829021
0.840537
0.853171
0.864194
0.8703
0.873348
0.796427
0.802272
0.808606
0.813091
0.815551
0.815213
0.812458
0.80862
0.805069
0.802749
0.802527
0.804647
0.808245
0.812485
0.816255
0.818111
0.817156
0.813658
0.808485
0.801861
0.788032
0.790328
0.793727
0.796715
0.798779
0.80026
0.800993
0.800644
0.799574
0.798627
0.798717
0.80006
0.801804
0.803053
0.803189
0.802265
0.800691
0.798336
0.795059
0.792133
0.78256
0.783646
0.785474
0.787843
0.789855
0.791265
0.792261
0.792975
0.793324
0.793474
0.79387
0.794579
0.795094
0.795092
0.794626
0.793736
0.792234
0.790124
0.78802
0.786631
0.777409
0.778071
0.779175
0.780871
0.782639
0.784252
0.78552
0.786494
0.787316
0.788022
0.78864
0.789074
0.789167
0.788917
0.788283
0.787173
0.785702
0.784125
0.782784
0.781998
0.7725
0.772961
0.773743
0.775032
0.776506
0.778003
0.779436
0.780688
0.781755
0.782711
0.783494
0.783919
0.78394
0.783561
0.782776
0.781716
0.780533
0.779355
0.778412
0.777889
0.767756
0.768101
0.768709
0.76977
0.771051
0.772404
0.773809
0.775205
0.776502
0.777667
0.778618
0.779135
0.779154
0.778742
0.778029
0.777158
0.77623
0.775306
0.774598
0.774215
0.763129
0.763396
0.763887
0.764791
0.765949
0.767224
0.768583
0.770016
0.77147
0.772855
0.774012
0.774666
0.774767
0.774472
0.773933
0.773252
0.772504
0.771786
0.771253
0.770959
0.758544
0.758756
0.759164
0.759959
0.761038
0.762265
0.763609
0.765077
0.766646
0.768242
0.769645
0.770505
0.770796
0.770699
0.770352
0.769855
0.769282
0.768734
0.768333
0.768103
0.753922
0.754091
0.754439
0.755164
0.756201
0.757405
0.758771
0.760307
0.762003
0.763814
0.765506
0.766667
0.767229
0.767369
0.767228
0.766915
0.766515
0.766113
0.765817
0.765635
0.74919
0.749325
0.749631
0.750314
0.751336
0.752564
0.75399
0.75564
0.757518
0.759592
0.761641
0.763179
0.764064
0.764472
0.764555
0.76443
0.764193
0.763925
0.763718
0.763572
0.744274
0.74438
0.744658
0.745324
0.746368
0.747665
0.749198
0.751017
0.753153
0.755582
0.758078
0.760062
0.761312
0.762019
0.762349
0.76242
0.762344
0.7622
0.762067
0.761951
0.739097
0.739178
0.739436
0.740108
0.74121
0.742615
0.744303
0.746347
0.748804
0.751677
0.754729
0.757255
0.758948
0.760009
0.760622
0.760921
0.761008
0.760988
0.760923
0.760832
0.733579
0.733636
0.733884
0.734583
0.735776
0.737332
0.739228
0.741564
0.744425
0.747856
0.751593
0.754782
0.757016
0.758503
0.759445
0.760006
0.76027
0.760373
0.760373
0.760306
0.727627
0.727663
0.727908
0.72865
0.729961
0.73171
0.733882
0.736603
0.739979
0.744087
0.748663
0.752683
0.755579
0.757579
0.758887
0.759718
0.760228
0.760473
0.760538
0.76049
0.721117
0.721123
0.721362
0.722166
0.723638
0.725646
0.728175
0.731387
0.735443
0.740449
0.746073
0.751054
0.754707
0.757299
0.759078
0.760248
0.761002
0.761395
0.76153
0.761502
0.713839
0.71383
0.714096
0.714971
0.716634
0.718933
0.7219
0.725707
0.730557
0.736608
0.743506
0.749722
0.75436
0.757705
0.760055
0.761667
0.762741
0.763316
0.763527
0.763518
0.705569
0.70553
0.705818
0.706816
0.708721
0.711416
0.714951
0.719546
0.72546
0.732878
0.741351
0.749008
0.754758
0.758962
0.761991
0.764163
0.765618
0.766417
0.766713
0.766718
0.695983
0.69592
0.696251
0.697401
0.699602
0.702792
0.707042
0.712623
0.719848
0.728938
0.739335
0.748759
0.755889
0.761165
0.765025
0.767842
0.769768
0.770842
0.771234
0.771249
0.684538
0.684452
0.684852
0.686208
0.688814
0.692666
0.697864
0.704738
0.713651
0.724835
0.737583
0.749114
0.757853
0.764374
0.769228
0.772827
0.775317
0.776703
0.777192
0.777207
0.670504
0.670396
0.670923
0.672605
0.67579
0.68058
0.687085
0.695693
0.706807
0.720634
0.736219
0.750216
0.760814
0.768772
0.774758
0.77921
0.782331
0.784047
0.78463
0.78464
0.652873
0.652746
0.653481
0.655672
0.659721
0.665852
0.674172
0.68512
0.699084
0.71619
0.735184
0.752061
0.764798
0.774377
0.78164
0.787074
0.790878
0.79293
0.793599
0.793598
0.630194
0.630058
0.631144
0.634142
0.63957
0.647724
0.658691
0.672886
0.69059
0.711763
0.734757
0.754892
0.770003
0.781365
0.790023
0.796524
0.80104
0.803417
0.804161
0.804145
0.600176
0.600069
0.601787
0.606202
0.613946
0.625323
0.640213
0.658876
0.681379
0.707456
0.735053
0.758811
0.776509
0.789828
0.799993
0.807666
0.812908
0.815584
0.816374
0.816335
0.558769
0.558832
0.561958
0.569301
0.581284
0.597941
0.618638
0.643325
0.671824
0.703653
0.736373
0.764016
0.784449
0.799819
0.811605
0.820518
0.826477
0.829368
0.830155
0.830081
0.498354
0.499582
0.507245
0.52105
0.540731
0.565701
0.59452
0.626881
0.662483
0.700758
0.738961
0.77063
0.793842
0.811302
0.824718
0.83488
0.841487
0.84447
0.845146
0.845027
0.42608
0.428007
0.442596
0.466438
0.497006
0.531707
0.569427
0.61003
0.653335
0.698854
0.743595
0.78046
0.807526
0.827997
0.843765
0.855538
0.863054
0.866347
0.86717
0.867176
0.351486
0.357945
0.379403
0.4134
0.454162
0.498408
0.545004
0.593903
0.645008
0.697908
0.749414
0.791712
0.822828
0.846545
0.865014
0.878707
0.887153
0.890157
0.890843
0.890967
0.290879
0.299424
0.325515
0.366481
0.41513
0.467457
0.522018
0.578642
0.637163
0.697116
0.755024
0.802394
0.837217
0.863724
0.884138
0.899088
0.907953
0.911678
0.912972
0.913174
0.241463
0.250577
0.280154
0.326185
0.380924
0.439761
0.501025
0.564447
0.629694
0.696192
0.760074
0.812083
0.850156
0.878928
0.900924
0.916995
0.926902
0.931346
0.9329
0.933135
0.200063
0.209394
0.241296
0.291199
0.350874
0.41511
0.482061
0.551407
0.622669
0.695131
0.764501
0.820712
0.861606
0.892271
0.915522
0.932471
0.943176
0.948183
0.949975
0.950246
0.164279
0.173674
0.207303
0.260321
0.324002
0.392799
0.464708
0.539293
0.615971
0.69389
0.768308
0.828326
0.871679
0.903897
0.928102
0.945748
0.957147
0.962616
0.964531
0.964816
0.132537
0.141936
0.17686
0.23247
0.299449
0.372162
0.448428
0.527718
0.609352
0.692321
0.771442
0.834953
0.880477
0.913989
0.938959
0.95714
0.968859
0.974706
0.976726
0.977027
0.103591
0.113019
0.149015
0.206754
0.276555
0.352659
0.432786
0.51634
0.602536
0.690242
0.773819
0.840641
0.888179
0.92286
0.948482
0.967005
0.978979
0.985037
0.987102
0.987409
0.0765884
0.086063
0.123028
0.182586
0.254819
0.333878
0.41745
0.50488
0.595308
0.687494
0.775372
0.845426
0.894948
0.930764
0.957021
0.975874
0.987979
0.994159
0.996194
0.996465
0.0509605
0.0605152
0.0983801
0.159459
0.233875
0.315531
0.402191
0.493155
0.587512
0.683954
0.776037
0.849349
0.900912
0.93793
0.964837
0.984017
0.996271
1.00242
1.00446
1.00463
0.0262165
0.0359683
0.0745988
0.137131
0.213457
0.297418
0.386857
0.481039
0.579045
0.679533
0.775765
0.852435
0.906187
0.944532
0.97218
0.991712
1.00408
1.01021
1.01217
1.01235
0.00212609
0.0121116
0.0515029
0.115427
0.193403
0.279418
0.371353
0.468464
0.56984
0.674175
0.774515
0.854689
0.910843
0.950695
0.979204
0.999156
1.01165
1.01772
1.01955
1.0197
-0.0213991
-0.0111808
0.0290285
0.0941746
0.17364
0.261484
0.355645
0.455402
0.559874
0.667836
0.772237
0.856089
0.914906
0.956495
0.986009
1.00643
1.01901
1.02493
1.02662
1.02669
-0.0444956
-0.0339436
0.00697813
0.0733105
0.154129
0.243598
0.339739
0.441867
0.549157
0.660508
0.768874
0.856562
0.91835
0.961975
0.992666
1.01357
1.02617
1.03188
1.03334
1.03333
-0.0671247
-0.0562746
-0.0145788
0.0528251
0.134874
0.225784
0.32368
0.427907
0.537725
0.652191
0.764374
0.856011
0.921109
0.967151
0.99926
1.02067
1.03313
1.03846
1.03966
1.03957
-0.0893182
-0.0781362
-0.0356343
0.0327545
0.115907
0.208086
0.307519
0.413593
0.525641
0.642915
0.758704
0.854344
0.923069
0.97199
1.0059
1.02788
1.03995
1.04466
1.04552
1.04536
-0.110878
-0.0994378
-0.0561625
0.0131425
0.0972857
0.190582
0.291331
0.399002
0.512989
0.632749
0.751855
0.851461
0.924067
0.976384
1.01269
1.03549
1.04688
1.05051
1.05086
1.05063
-0.131938
-0.120133
-0.0761267
-0.00598009
0.0790471
0.173317
0.275212
0.384225
0.499866
0.621787
0.743848
0.847257
0.923907
0.980112
1.01962
1.04396
1.05458
1.05636
1.05567
1.05532
-0.152322
-0.140187
-0.0954872
-0.0245572
0.0612746
0.156378
0.259246
0.369387
0.48639
0.610106
0.734738
0.841652
0.922378
0.982821
1.0264
1.05364
1.06434
1.06371
1.0606
1.05923
-0.172084
-0.159633
-0.114184
-0.0425304
0.0440098
0.139835
0.24352
0.35457
0.472678
0.597853
0.724616
0.834584
0.919282
0.984052
1.03228
1.06411
1.07742
1.0761
1.06892
1.05933
-0.191135
-0.178427
-0.132311
-0.0600494
0.0270439
0.123405
0.22769
0.339363
0.458267
0.584501
0.712914
0.825425
0.914026
0.983205
1.03613
1.07395
1.09332
1.09468
1.08484
1.07675
-0.20942
-0.196482
-0.149862
-0.0770694
0.0103886
0.107084
0.211779
0.323753
0.44312
0.569948
0.699467
0.813839
0.905924
0.979517
1.03554
1.0777
1.1
1.10661
1.06958
1.01631
-0.226647
-0.213022
-0.166723
-0.0935197
-0.00605783
0.090736
0.195742
0.307859
0.427302
0.554265
0.684231
0.799676
0.893993
0.972625
1.02848
1.0643
1.08756
1.07543
1.01856
0.95424
-0.243145
-0.22859
-0.182707
-0.108752
-0.0219439
0.0748405
0.179353
0.291741
0.410959
0.537626
0.667233
0.782795
0.877142
0.963622
1.01311
1.06469
1.03393
0.992048
0.922458
0.85433
-0.229103
-0.211083
-0.162177
-0.0837166
0.00816742
0.108692
0.218512
0.33372
0.455832
0.585702
0.708867
0.811381
0.897572
0.989847
1.03627
0.956661
0.911023
0.848236
0.775536
0.727412
-0.253494
-0.237256