/*--------------------------------*- C++ -*----------------------------------*\
  =========                 |
  \\      /  F ield         | OpenFOAM: The Open Source CFD Toolbox
   \\    /   O peration     | Website:  https://openfoam.org
    \\  /    A nd           | Version:  7
     \\/     M anipulation  |
\*---------------------------------------------------------------------------*/
FoamFile
{
    version     2.0;
    format      ascii;
    class       volScalarField;
    location    "1.35";
    object      T;
}
// * * * * * * * * * * * * * * * * * * * * * * * * * * * * * * * * * * * * * //

dimensions      [0 0 0 1 0 0 0];

internalField   nonuniform List<scalar> 
1000
(
0
0
0
0
0
0
0
0
0
0
0
0
0
0
0
0
0
0
0
0
0
0
0
0
0
0
0
0
0
0
0
0
0
0
0
0
0
0
0
0
0
0
0
0
0
0
0
0
0
0
0
0
0
0
0
0
0
0
0
0
0
0
0
0
0
0
0
0
0
0
0
0
0
0
0
0
0
0
0
0
0
0
0
0
0
0
0
0
0
0
0
0
0
0
0
0
0
0
0
0
0
0
0
0
0
0
0
0
0
0
0
0
0
0
0
0
0
0
0
0
0
0
0
0
0
0
0
0
0
0
0
0
0
0
0
0
0
0
0
0
0
0
0
0
0
0
0
0
0
0
0
0
0
0
0
0
0
0
0
0
0
0
0
0
0
0
0
0
0
0
0
0
0
0
0
0
0
0
0
0
0
0
0
0
0
0
0
0
0
0
0
0
0
0
0
0
0
0
0
0
0
0
0
0
0
0
0
0
0
0
0
0
0
0
0
0
0
0
0
0
0
0
0
0
0
0
0
0
0
0
0
0
0
0
0
0
0
0
0
0
0
0
0
0
0
0
0
0
0
0
0
0
0
0
0
0
0
0
0
0
0
0
0
0
0
0
0
0
0
0
0
0
0
0
0
0
0
0
0
0
0
0
0
0
0
0
0
0
0
0
0
0
0
0
0
0
0
0
0
0
0
0
0
0
0
0
0
0
0
0
0
0
0
0
0
-2.04424e-146
2.38972e-143
-1.38535e-140
5.30982e-138
-1.51365e-135
3.42285e-133
-6.39538e-131
1.01545e-128
-1.39855e-126
1.69721e-124
-1.83731e-122
1.79204e-120
-1.5878e-118
1.2868e-116
-9.5947e-115
6.61511e-113
-4.23563e-111
2.52831e-109
-1.41167e-107
7.39477e-106
-3.64385e-104
1.69309e-102
-7.43394e-101
3.09047e-99
-1.21861e-97
4.56502e-96
-1.62703e-94
5.52475e-93
-1.78949e-91
5.53527e-90
-1.63681e-88
4.63153e-87
-1.25518e-85
3.26059e-84
-8.12506e-83
1.94357e-81
-4.46578e-80
9.86224e-79
-2.09446e-77
4.27964e-76
-8.41743e-75
1.59431e-73
-2.90905e-72
5.11526e-71
-8.67078e-70
1.41724e-68
-2.23423e-67
3.39789e-66
-4.98613e-65
7.06088e-64
-9.65044e-63
1.27312e-61
-1.62125e-60
1.99298e-59
-2.36498e-58
2.70899e-57
-2.99513e-56
3.19598e-55
-3.29089e-54
3.26938e-53
-3.13303e-52
2.89531e-51
-2.57942e-50
2.21456e-49
-1.83149e-48
1.45836e-47
-1.11744e-46
8.23387e-46
-5.83023e-45
3.96373e-44
-2.58487e-43
1.61512e-42
-9.6569e-42
5.51672e-41
-3.00578e-40
1.55861e-39
-7.67181e-39
3.57314e-38
-1.56834e-37
6.45341e-37
-2.47177e-36
8.72363e-36
-2.79316e-35
7.90017e-35
-1.86947e-34
3.17061e-34
-8.72924e-35
-2.03887e-33
1.0047e-32
-2.94375e-32
5.25746e-32
-4.95605e-33
-3.5575e-31
1.41483e-30
-2.83287e-30
5.81675e-31
1.69985e-29
-6.08618e-29
8.5829e-29
1.23801e-28
-9.12383e-28
1.84794e-27
5.06347e-28
-1.25101e-26
2.86548e-26
4.02177e-27
-1.75141e-25
3.64421e-25
2.16248e-25
-2.45431e-24
3.5033e-24
6.87853e-24
-3.04173e-23
1.32941e-23
1.36841e-22
-2.64632e-22
-3.30742e-22
1.72942e-21
-4.14929e-22
-7.89275e-21
9.92233e-21
2.79002e-20
-6.95316e-20
-7.44834e-20
3.64934e-19
1.09741e-19
-1.66309e-18
2.84887e-19
7.01613e-18
-3.38937e-18
-2.84862e-17
1.87961e-17
1.14101e-16
-7.91303e-17
-4.55898e-16
2.63376e-16
1.81017e-15
-5.85195e-16
-7.01544e-15
-3.42685e-16
2.57368e-14
1.37033e-14
-8.52518e-14
-1.00303e-13
2.33446e-13
5.17334e-13
-3.99561e-13
-2.09268e-12
-5.24216e-13
6.45863e-12
8.19849e-12
-1.23338e-11
-4.0061e-11
-7.362e-12
1.17161e-10
1.71425e-10
-1.35154e-10
-7.08172e-10
-5.9686e-10
1.2414e-09
3.6522e-09
2.07966e-09
-7.25464e-09
-1.80451e-08
-1.01484e-08
3.31977e-08
8.82655e-08
7.08587e-08
-1.09056e-07
-4.05017e-07
-5.07325e-07
6.14036e-08
1.48182e-06
2.96971e-06
2.50507e-06
-2.2539e-06
-1.15601e-05
-2.05861e-05
-1.82167e-05
9.39826e-06
6.88578e-05
0.000144912
0.000187777
0.000112606
-0.00017833
-0.000744811
-0.00153227
-0.00228369
-0.00246252
-0.00121198
0.00262803
0.0104374
0.0236721
0.0436808
0.0715143
0.107761
0.15244
0.204964
0.264181
0.328489
0.395985
0.464648
0.532507
0.597793
0.659044
0.715169
0.765464
0.809598
0.84756
0.879601
0.906162
0.927804
0.945151
0.958839
0.969478
0.977628
0.983787
0.988378
0.991758
0.994215
0.995981
0.997234
0.998115
0.998727
0.999148
0.999435
0.999628
0.999758
0.999843
0.999899
0.999936
0.999959
0.999975
0.999984
0.99999
0.999994
0.999996
0.999998
0.999999
0.999999
1
1
1
1
1
1
1
1
1
1
1
1
1
1
1
1
1
1
1
1
1
1
1
1
1
1
1
1
1
1
1
1
0.999999
0.999997
0.999997
1
1.00001
1.00002
1.00002
0.999991
0.999931
0.999855
0.999812
0.999887
1.00018
1.00074
1.00153
1.00228
1.00246
1.00121
0.997372
0.989563
0.976328
0.956319
0.928486
0.892239
0.84756
0.795036
0.735819
0.671511
0.604015
0.535352
0.467493
0.402207
0.340956
0.284831
0.234536
0.190402
0.15244
0.120399
0.0938379
0.0721958
0.0548488
0.0411612
0.0305224
0.0223718
0.0162134
0.0116218
0.0082421
0.00578486
0.00401944
0.00276553
0.00188473
0.00127261
0.000851581
0.000564869
0.000371506
0.000242314
0.000156777
0.00010064
6.41116e-05
4.05379e-05
2.54467e-05
1.58608e-05
9.81802e-06
6.0367e-06
3.68745e-06
2.23806e-06
1.34991e-06
8.09265e-07
4.82272e-07
2.85739e-07
1.68338e-07
9.86243e-08
5.74689e-08
3.33105e-08
1.92079e-08
1.10199e-08
6.29103e-09
3.57405e-09
2.02087e-09
1.13736e-09
6.37209e-10
3.55411e-10
1.97372e-10
1.09139e-10
6.00976e-11
3.29572e-11
1.80008e-11
9.79312e-12
5.30722e-12
2.86525e-12
1.54113e-12
8.25898e-13
4.41015e-13
2.34666e-13
1.24435e-13
6.57593e-14
3.46355e-14
1.81828e-14
9.51481e-15
4.96321e-15
2.58091e-15
1.33799e-15
6.9155e-16
3.56377e-16
1.83118e-16
9.38224e-17
4.79356e-17
2.44233e-17
1.24098e-17
6.2887e-18
3.17838e-18
1.60221e-18
8.056e-19
4.04038e-19
2.02136e-19
1.00879e-19
5.02238e-20
2.49451e-20
1.23606e-20
6.11074e-21
3.01409e-21
1.48335e-21
7.284e-22
3.56901e-22
1.74497e-22
8.5135e-23
4.14493e-23
2.01386e-23
9.76461e-24
4.72505e-24
2.2819e-24
1.09985e-24
5.29093e-25
2.54039e-25
1.21745e-25
5.8236e-26
2.78058e-26
1.32523e-26
6.30473e-27
2.99415e-27
1.41946e-27
6.71769e-28
3.17377e-28
1.49693e-28
7.04856e-29
3.31349e-29
1.55512e-29
7.28691e-30
3.40904e-30
1.59235e-30
7.42626e-31
3.45808e-31
1.60783e-31
7.46434e-32
3.46018e-32
1.60165e-32
7.40295e-33
3.41679e-33
1.57476e-33
7.24769e-34
3.33104e-34
1.52884e-34
7.00735e-35
3.20744e-35
1.46617e-35
6.69326e-36
3.05156e-36
1.38946e-36
6.31848e-37
2.86965e-37
1.30167e-37
5.89701e-38
2.66827e-38
1.20586e-38
5.44305e-39
2.45396e-39
1.10504e-39
4.9703e-40
2.23297e-40
1.00203e-40
4.49146e-41
2.01096e-41
8.99358e-42
4.01774e-42
1.7929e-42
7.992e-43
3.55868e-43
1.58292e-43
7.03346e-44
3.12193e-44
1.38429e-44
6.13175e-45
2.7133e-45
1.19942e-45
5.29677e-46
2.33678e-46
1.0299e-46
4.53473e-47
1.99474e-47
8.76602e-48
3.84863e-48
1.6881e-48
7.39751e-49
3.23868e-49
1.41661e-49
6.19067e-50
2.70291e-50
1.17905e-50
5.13865e-51
2.23759e-51
9.73491e-52
4.2316e-52
1.83782e-52
7.97497e-53
3.45769e-53
1.49788e-53
6.48345e-54
2.80397e-54
1.21167e-54
5.23166e-55
2.25706e-55
9.72964e-56
4.19087e-56
1.80371e-56
7.75689e-57
3.33327e-57
1.43125e-57
6.14084e-58
2.63274e-58
1.12787e-58
4.82817e-59
2.0653e-59
8.82796e-60
3.77067e-60
1.60938e-60
6.86412e-61
2.92549e-61
1.24595e-61
5.30266e-62
2.25518e-62
9.58438e-63
4.07047e-63
1.72753e-63
7.32671e-64
3.10525e-64
1.31519e-64
5.56662e-65
2.35453e-65
9.95239e-66
4.20402e-66
1.77468e-66
7.48671e-67
3.15633e-67
1.32983e-67
5.59927e-68
2.3561e-68
9.90791e-69
4.16389e-69
1.74883e-69
7.34054e-70
3.07923e-70
1.2909e-70
5.40854e-71
2.26468e-71
9.47706e-72
3.96354e-72
1.65667e-72
6.92047e-73
2.88923e-73
1.20553e-73
5.02716e-74
2.09517e-74
8.7271e-75
3.63308e-75
1.5116e-75
6.28574e-76
2.61237e-76
1.08511e-76
4.50481e-77
1.86914e-77
7.75125e-78
3.21269e-78
1.33086e-78
5.51018e-79
2.28019e-79
9.43075e-80
3.89848e-80
1.61071e-80
6.65147e-81
2.74533e-81
1.13253e-81
4.66964e-82
1.92441e-82
7.92676e-83
3.26344e-83
1.34289e-83
5.52322e-84
2.27055e-84
9.32947e-85
3.83153e-85
1.57282e-85
6.45321e-86
2.64647e-86
1.0848e-86
4.44458e-87
1.82015e-87
7.4504e-88
3.04826e-88
1.24659e-88
5.09558e-89
2.08194e-89
8.50243e-90
3.47075e-90
1.41614e-90
5.77561e-91
2.35448e-91
9.594e-92
3.90763e-92
1.59088e-92
6.47399e-93
2.63341e-93
1.07073e-93
4.35162e-94
1.76782e-94
7.17864e-95
2.91382e-95
1.18222e-95
4.79464e-96
1.94371e-96
7.87639e-97
3.19039e-97
1.29176e-97
5.22812e-98
2.1151e-98
8.55347e-99
3.45763e-99
1.39714e-99
5.64328e-100
2.2785e-100
9.19596e-101
3.71e-101
1.49617e-101
6.03145e-102
2.43049e-102
9.79034e-103
3.94218e-103
1.58676e-103
6.38438e-104
2.56782e-104
1.0324e-104
4.14922e-105
1.66696e-105
6.69457e-106
2.68758e-106
1.07855e-106
4.32673e-107
1.73509e-107
6.95551e-108
2.78727e-108
1.11654e-108
4.47108e-109
1.78977e-109
7.16192e-110
2.86489e-110
1.14561e-110
4.57943e-111
1.82994e-111
7.30992e-112
2.91903e-112
1.16524e-112
4.64993e-113
1.85493e-113
7.39715e-114
2.94886e-114
1.17516e-114
4.68165e-115
1.86447e-115
7.42279e-116
2.95418e-116
1.17534e-116
4.67466e-117
1.85864e-117
7.38754e-118
2.93538e-118
1.16598e-118
4.62996e-119
1.83792e-119
7.29355e-120
2.89344e-120
1.1475e-120
4.54943e-121
1.80312e-121
7.1443e-122
2.82983e-122
1.12054e-122
4.43569e-123
1.75535e-123
6.94437e-124
2.74645e-124
1.08588e-124
4.29199e-125
1.69593e-125
6.69927e-126
2.64557e-126
1.04444e-126
4.1221e-127
1.6264e-127
6.41521e-128
2.52969e-128
9.97241e-129
3.93001e-129
1.55111e-129
5.5037e-130
)
;

boundaryField
{
    sides
    {
        type            zeroGradient;
    }
    empty
    {
        type            empty;
    }
}


// ************************************************************************* //
