/*--------------------------------*- C++ -*----------------------------------*\
  =========                 |
  \\      /  F ield         | OpenFOAM: The Open Source CFD Toolbox
   \\    /   O peration     | Website:  https://openfoam.org
    \\  /    A nd           | Version:  7
     \\/     M anipulation  |
\*---------------------------------------------------------------------------*/
FoamFile
{
    version     2.0;
    format      ascii;
    class       volScalarField;
    location    "7.3";
    object      rho;
}
// * * * * * * * * * * * * * * * * * * * * * * * * * * * * * * * * * * * * * //

dimensions      [1 -3 0 0 0 0 0];

internalField   nonuniform List<scalar> 
19968
(
1.40001
1.40001
1.40001
1.40001
1.40001
1.40001
1.40001
1.40001
1.40001
1.40001
1.40001
1.40001
1.40001
1.40001
1.40001
1.40001
1.40001
1.40001
1.40001
1.40001
1.40001
1.40001
1.40001
1.40001
1.40001
1.40001
1.40001
1.40001
1.40001
1.40001
1.40001
1.40001
1.40001
1.40001
1.40001
1.40001
1.40001
1.40001
1.40001
1.40001
1.40001
1.40001
1.40001
1.40001
1.40001
1.40001
1.40001
1.40001
1.70558
4.58392
5.4414
5.43608
5.45564
5.47621
5.4999
5.52397
5.5474
5.5695
5.58986
5.60882
5.62699
5.64475
5.66255
5.68062
5.69858
5.71569
5.73215
5.74843
5.76418
5.77891
5.79272
5.80633
5.82061
5.83597
5.85187
5.86718
5.88094
5.89283
5.90322
5.91289
5.92263
5.93278
5.94305
5.95271
5.96104
5.9678
5.97329
5.97809
5.98289
5.98823
5.99426
6.00067
6.00677
6.01184
6.01528
6.01781
1.40001
1.40001
1.40001
1.40001
1.40001
1.40001
1.40001
1.40001
1.40001
1.40001
1.40001
1.40001
1.40001
1.40001
1.40001
1.40001
1.40001
1.40001
1.40001
1.40001
1.40001
1.40001
1.40001
1.40001
1.40001
1.40001
1.40001
1.40001
1.40001
1.40001
1.40001
1.40001
1.40001
1.40001
1.40001
1.40001
1.40001
1.40001
1.40001
1.40001
1.40001
1.40001
1.40001
1.40001
1.40001
1.40001
1.40001
1.40001
1.68731
4.55473
5.4346
5.43729
5.4563
5.47651
5.49968
5.52344
5.54664
5.56859
5.58868
5.60737
5.62535
5.64307
5.66106
5.67916
5.69713
5.71421
5.73072
5.74701
5.76275
5.77747
5.79131
5.80499
5.81934
5.83469
5.85051
5.86573
5.87941
5.89126
5.90163
5.91126
5.92093
5.93097
5.94114
5.95073
5.95906
5.96591
5.97154
5.97649
5.98136
5.98662
5.9924
5.99845
6.00421
6.00905
6.0124
6.01498
1.40001
1.40001
1.40001
1.40001
1.40001
1.40001
1.40001
1.40001
1.40001
1.40001
1.40001
1.40001
1.40001
1.40001
1.40001
1.40001
1.40001
1.40001
1.40001
1.40001
1.40001
1.40001
1.40001
1.40001
1.40001
1.40001
1.40001
1.40001
1.40001
1.40001
1.40001
1.40001
1.40001
1.40001
1.40001
1.40001
1.40001
1.40001
1.40001
1.40001
1.40001
1.40001
1.40001
1.40001
1.40001
1.40001
1.40001
1.40001
1.64796
4.49669
5.43062
5.43632
5.45516
5.47529
5.49784
5.52094
5.54361
5.56531
5.58521
5.6039
5.62203
5.63988
5.65817
5.67627
5.69421
5.71117
5.72769
5.74398
5.75977
5.77458
5.78852
5.80229
5.81666
5.83195
5.84766
5.86279
5.87643
5.88828
5.89864
5.90822
5.91776
5.92762
5.93762
5.94712
5.95549
5.9625
5.96841
5.97368
5.9788
5.98411
5.98967
5.99528
6.00054
6.005
6.00814
6.01075
1.40001
1.40001
1.40001
1.40001
1.40001
1.40001
1.40001
1.40001
1.40001
1.40001
1.40001
1.40001
1.40001
1.40001
1.40001
1.40001
1.40001
1.40001
1.40001
1.40001
1.40001
1.40001
1.40001
1.40001
1.40001
1.40001
1.40001
1.40001
1.40001
1.40001
1.40001
1.40001
1.40001
1.40001
1.40001
1.40001
1.40001
1.40001
1.40001
1.40001
1.40001
1.40001
1.40001
1.40001
1.40001
1.40001
1.40001
1.40001
1.59286
4.40415
5.42525
5.43579
5.45418
5.47427
5.49603
5.51799
5.53951
5.56056
5.58029
5.59911
5.61757
5.63563
5.65414
5.67207
5.68976
5.70644
5.72291
5.73928
5.75531
5.77041
5.78459
5.79846
5.81279
5.82789
5.84339
5.85838
5.87198
5.88383
5.89417
5.90362
5.91292
5.92249
5.9322
5.94152
5.94984
5.95696
5.96311
5.96869
5.97404
5.97933
5.9846
5.98972
5.99447
5.99862
6.00164
6.00441
1.40001
1.40001
1.40001
1.40001
1.40001
1.40001
1.40001
1.40001
1.40001
1.40001
1.40001
1.40001
1.40001
1.40001
1.40001
1.40001
1.40001
1.40001
1.40001
1.40001
1.40001
1.40001
1.40001
1.40001
1.40001
1.40001
1.40001
1.40001
1.40001
1.40001
1.40001
1.40001
1.40001
1.40001
1.40001
1.40001
1.40001
1.40001
1.40001
1.40001
1.40001
1.40001
1.40001
1.40001
1.40001
1.40001
1.40001
1.40001
1.52604
4.28424
5.42044
5.43438
5.45092
5.47034
5.49107
5.51217
5.53318
5.55415
5.57419
5.59345
5.61256
5.631
5.64954
5.66695
5.68394
5.7
5.71633
5.7329
5.7494
5.76501
5.77957
5.79358
5.80779
5.82261
5.83782
5.85265
5.86626
5.87821
5.88859
5.89798
5.90709
5.91643
5.92597
5.93522
5.9436
5.95088
5.95721
5.96292
5.9682
5.97306
5.97754
5.98167
5.9855
5.98902
5.99168
5.99444
1.40001
1.40001
1.40001
1.40001
1.40001
1.40001
1.40001
1.40001
1.40001
1.40001
1.40001
1.40001
1.40001
1.40001
1.40001
1.40001
1.40001
1.40001
1.40001
1.40001
1.40001
1.40001
1.40001
1.40001
1.40001
1.40001
1.40001
1.40001
1.40001
1.40001
1.40001
1.40001
1.40001
1.40001
1.40001
1.40001
1.40001
1.40001
1.40001
1.40001
1.40001
1.40001
1.40001
1.40001
1.40001
1.40001
1.40001
1.40001
1.41589
4.09965
5.41192
5.42946
5.44727
5.46751
5.48804
5.50882
5.52962
5.55033
5.57015
5.58942
5.60901
5.62777
5.64595
5.66223
5.67768
5.69241
5.70809
5.72462
5.74149
5.75746
5.77218
5.78605
5.79984
5.81405
5.82863
5.84304
5.85651
5.86847
5.87887
5.88816
5.89706
5.90615
5.91552
5.92476
5.93333
5.94092
5.94764
5.95372
5.9592
5.96397
5.96806
5.97162
5.97491
5.97807
5.98053
5.98333
1.40001
1.40001
1.40001
1.40001
1.40001
1.40001
1.40001
1.40001
1.40001
1.40001
1.40001
1.40001
1.40001
1.40001
1.40001
1.40001
1.40001
1.40001
1.40001
1.40001
1.40001
1.40001
1.40001
1.40001
1.40001
1.40001
1.40001
1.40001
1.40001
1.40001
1.40001
1.40001
1.40001
1.40001
1.40001
1.40001
1.40001
1.40001
1.40001
1.40001
1.40001
1.40001
1.40001
1.40001
1.40001
1.40001
1.40001
1.40001
1.40016
3.81431
5.37963
5.41138
5.43086
5.45206
5.47274
5.49361
5.5146
5.5354
5.55566
5.57567
5.59605
5.61546
5.63362
5.64943
5.66393
5.67774
5.69292
5.7093
5.72637
5.74271
5.75789
5.77209
5.78594
5.79989
5.81408
5.82819
5.8416
5.85373
5.86436
5.87381
5.88274
5.89178
5.90114
5.91049
5.91931
5.92722
5.93424
5.94046
5.94588
5.95035
5.95399
5.95707
5.95992
5.96281
5.96508
5.96782
1.40001
1.40001
1.40001
1.40001
1.40001
1.40001
1.40001
1.40001
1.40001
1.40001
1.40001
1.40001
1.40001
1.40001
1.40001
1.40001
1.40001
1.40001
1.40001
1.40001
1.40001
1.40001
1.40001
1.40001
1.40001
1.40001
1.40001
1.40001
1.40001
1.40001
1.40001
1.40001
1.40001
1.40001
1.40001
1.40001
1.40001
1.40001
1.40001
1.40001
1.40001
1.40001
1.40001
1.40001
1.40001
1.40001
1.40001
1.40001
1.40001
3.42135
5.32986
5.40159
5.42099
5.44396
5.46577
5.48736
5.5084
5.52869
5.54857
5.56823
5.58801
5.60706
5.62479
5.64031
5.6542
5.66722
5.68147
5.69682
5.71307
5.7289
5.7439
5.75807
5.77176
5.78529
5.79885
5.81238
5.82545
5.83749
5.84818
5.8577
5.8666
5.87549
5.88467
5.89394
5.90279
5.91081
5.91787
5.92397
5.92907
5.9331
5.9363
5.93903
5.94161
5.94434
5.94644
5.94905
1.40001
1.40001
1.40001
1.40001
1.40001
1.40001
1.40001
1.40001
1.40001
1.40001
1.40001
1.40001
1.40001
1.40001
1.40001
1.40001
1.40001
1.40001
1.40001
1.40001
1.40001
1.40001
1.40001
1.40001
1.40001
1.40001
1.40001
1.40001
1.40001
1.40001
1.40001
1.40001
1.40001
1.40001
1.40001
1.40001
1.40001
1.40001
1.40001
1.40001
1.40001
1.40001
1.40001
1.40001
1.40001
1.40001
1.40001
1.40001
1.40001
2.94106
5.2392
5.40121
5.41637
5.43856
5.45989
5.48164
5.50296
5.52312
5.54244
5.56124
5.57956
5.59736
5.61416
5.62937
5.64291
5.65533
5.66847
5.68235
5.69712
5.71182
5.72612
5.73995
5.75329
5.76627
5.77903
5.79171
5.80414
5.81585
5.82647
5.83597
5.84475
5.85337
5.86221
5.87119
5.87991
5.88792
5.89494
5.9009
5.90575
5.90956
5.91265
5.91538
5.91799
5.92075
5.92275
5.92523
1.40001
1.40001
1.40001
1.40001
1.40001
1.40001
1.40001
1.40001
1.40001
1.40001
1.40001
1.40001
1.40001
1.40001
1.40001
1.40001
1.40001
1.40001
1.40001
1.40001
1.40001
1.40001
1.40001
1.40001
1.40001
1.40001
1.40001
1.40001
1.40001
1.40001
1.40001
1.40001
1.40001
1.40001
1.40001
1.40001
1.40001
1.40001
1.40001
1.40001
1.40001
1.40001
1.40001
1.40001
1.40001
1.40001
1.40001
1.40001
1.40001
2.39671
5.05897
5.40994
5.42433
5.44361
5.46171
5.48111
5.50153
5.52119
5.53935
5.55646
5.57255
5.58826
5.60369
5.61852
5.63202
5.64415
5.65633
5.66873
5.68173
5.69508
5.70826
5.72122
5.73366
5.74553
5.75689
5.76808
5.77921
5.79002
5.80008
5.8092
5.81759
5.82576
5.83414
5.84276
5.85126
5.8591
5.86588
5.87145
5.87583
5.87922
5.88205
5.88465
5.88713
5.88971
5.89141
5.89361
1.40001
1.40001
1.40001
1.40001
1.40001
1.40001
1.40001
1.40001
1.40001
1.40001
1.40001
1.40001
1.40001
1.40001
1.40001
1.40001
1.40001
1.40001
1.40001
1.40001
1.40001
1.40001
1.40001
1.40001
1.40001
1.40001
1.40001
1.40001
1.40001
1.40001
1.40001
1.40001
1.40001
1.40001
1.40001
1.40001
1.40001
1.40001
1.40001
1.40001
1.40001
1.40001
1.40001
1.40001
1.40001
1.40001
1.40001
1.40001
1.40001
1.8684
4.73569
5.42666
5.41784
5.43705
5.45242
5.47063
5.49062
5.51044
5.52832
5.54498
5.56054
5.5753
5.59002
5.60475
5.61858
5.63083
5.64256
5.65403
5.66555
5.67772
5.69004
5.7023
5.71394
5.72472
5.73473
5.74432
5.75382
5.76313
5.77182
5.77957
5.78649
5.79304
5.79975
5.80677
5.81381
5.82036
5.82605
5.8308
5.8348
5.83831
5.84161
5.84471
5.84746
5.84999
5.8514
5.85338
1.40001
1.40001
1.40001
1.40001
1.40001
1.40001
1.40001
1.40001
1.40001
1.40001
1.40001
1.40001
1.40001
1.40001
1.40001
1.40001
1.40001
1.40001
1.40001
1.40001
1.40001
1.40001
1.40001
1.40001
1.40001
1.40001
1.40001
1.40001
1.40001
1.40001
1.40001
1.40001
1.40001
1.40001
1.40001
1.40001
1.40001
1.40001
1.40001
1.40001
1.40001
1.40001
1.40001
1.40001
1.40001
1.40001
1.40001
1.40001
1.40001
1.42315
4.08778
5.41562
5.42498
5.43573
5.4493
5.46467
5.48236
5.50108
5.51814
5.53383
5.54824
5.56136
5.57459
5.58814
5.6012
5.61273
5.62337
5.63354
5.64333
5.65388
5.66487
5.67589
5.68645
5.6961
5.70488
5.71304
5.72099
5.72876
5.73599
5.74237
5.74795
5.75317
5.75854
5.76424
5.76999
5.77527
5.77972
5.78328
5.7862
5.7887
5.79089
5.79258
5.7936
5.79427
5.79412
5.79499
1.40001
1.40001
1.40001
1.40001
1.40001
1.40001
1.40001
1.40001
1.40001
1.40001
1.40001
1.40001
1.40001
1.40001
1.40001
1.40001
1.40001
1.40001
1.40001
1.40001
1.40001
1.40001
1.40001
1.40001
1.40001
1.40001
1.40001
1.40001
1.40001
1.40001
1.40001
1.40001
1.40001
1.40001
1.40001
1.40001
1.40001
1.40001
1.40001
1.40001
1.40001
1.40001
1.40001
1.40001
1.40001
1.40001
1.40001
1.40001
1.40001
1.40005
3.20423
5.2467
5.367
5.38988
5.41163
5.42916
5.44695
5.46515
5.48239
5.49806
5.51295
5.52668
5.54018
5.55399
5.5675
5.57955
5.59009
5.59979
5.60886
5.61821
5.62824
5.6384
5.64831
5.65739
5.66546
5.67259
5.67909
5.68511
5.69055
5.69521
5.6991
5.70244
5.70551
5.70838
5.71085
5.71265
5.71342
5.71344
5.71356
5.71445
5.71644
5.71873
5.72023
5.72113
5.72078
5.72122
1.40001
1.40001
1.40001
1.40001
1.40001
1.40001
1.40001
1.40001
1.40001
1.40001
1.40001
1.40001
1.40001
1.40001
1.40001
1.40001
1.40001
1.40001
1.40001
1.40001
1.40001
1.40001
1.40001
1.40001
1.40001
1.40001
1.40001
1.40001
1.40001
1.40001
1.40001
1.40001
1.40001
1.40001
1.40001
1.40001
1.40001
1.40001
1.40001
1.40001
1.40001
1.40001
1.40001
1.40001
1.40001
1.40001
1.40001
1.40001
1.40001
1.4
2.18052
4.88717
5.36562
5.37566
5.3995
5.41687
5.43305
5.44893
5.46444
5.47871
5.4924
5.50533
5.51792
5.53075
5.54345
5.55493
5.56459
5.57288
5.58029
5.58738
5.59504
5.60301
5.61094
5.61835
5.62473
5.62983
5.63377
5.63681
5.63922
5.64113
5.64255
5.64338
5.6436
5.64318
5.64214
5.64031
5.63747
5.63463
5.63229
5.6308
5.62945
5.62718
5.62187
5.61437
5.60571
5.59791
1.40001
1.40001
1.40001
1.40001
1.40001
1.40001
1.40001
1.40001
1.40001
1.40001
1.40001
1.40001
1.40001
1.40001
1.40001
1.40001
1.40001
1.40001
1.40001
1.40001
1.40001
1.40001
1.40001
1.40001
1.40001
1.40001
1.40001
1.40001
1.40001
1.40001
1.40001
1.40001
1.40001
1.40001
1.40001
1.40001
1.40001
1.40001
1.40001
1.40001
1.40001
1.40001
1.40001
1.40001
1.40001
1.40001
1.40001
1.40001
1.40001
1.40001
1.44434
3.98604
5.38312
5.39615
5.40245
5.41137
5.41949
5.42987
5.44195
5.45436
5.46595
5.47693
5.48759
5.49847
5.50939
5.51948
5.52781
5.53431
5.53958
5.54438
5.54958
5.55541
5.56131
5.5669
5.57147
5.57431
5.57531
5.57492
5.5737
5.57221
5.57059
5.56848
5.56515
5.55993
5.55272
5.54352
5.53246
5.51993
5.50612
5.49133
5.4758
5.45975
5.44556
5.43258
5.42617
5.4222
1.40001
1.40001
1.40001
1.40001
1.40001
1.40001
1.40001
1.40001
1.40001
1.40001
1.40001
1.40001
1.40001
1.40001
1.40001
1.40001
1.40001
1.40001
1.40001
1.40001
1.40001
1.40001
1.40001
1.40001
1.40001
1.40001
1.40001
1.40001
1.40001
1.40001
1.40001
1.40001
1.40001
1.40001
1.40001
1.40001
1.40001
1.40001
1.40001
1.40001
1.40001
1.40001
1.40001
1.40001
1.40001
1.40001
1.40001
1.40001
1.40001
1.40001
1.40006
2.63288
5.05208
5.35177
5.36091
5.37203
5.38066
5.39183
5.405
5.41944
5.43298
5.44485
5.45501
5.46403
5.47253
5.48053
5.48736
5.49237
5.49546
5.49725
5.49897
5.50156
5.50506
5.50892
5.51162
5.51207
5.50967
5.50468
5.49839
5.49192
5.48544
5.47852
5.46988
5.45835
5.44327
5.42489
5.40399
5.3812
5.3568
5.33125
5.30496
5.27831
5.24409
5.20538
5.15046
5.16888
1.40001
1.40001
1.40001
1.40001
1.40001
1.40001
1.40001
1.40001
1.40001
1.40001
1.40001
1.40001
1.40001
1.40001
1.40001
1.40001
1.40001
1.40001
1.40001
1.40001
1.40001
1.40001
1.40001
1.40001
1.40001
1.40001
1.40001
1.40001
1.40001
1.40001
1.40001
1.40001
1.40001
1.40001
1.40001
1.40001
1.40001
1.40001
1.40001
1.40001
1.40001
1.40001
1.40001
1.40001
1.40001
1.40001
1.40001
1.40001
1.40001
1.40001
1.40001
1.55428
4.36029
5.37561
5.36639
5.3659
5.37174
5.37916
5.38893
5.40113
5.41316
5.42302
5.43044
5.43613
5.44117
5.44612
5.45056
5.45344
5.45424
5.45273
5.45066
5.44956
5.45015
5.45167
5.45261
5.45114
5.44602
5.43723
5.42604
5.41381
5.40141
5.38859
5.37391
5.35556
5.33208
5.30331
5.26956
5.23097
5.18519
5.12965
5.05661
4.95958
4.81191
4.5852
4.17969
3.27148
1.40001
1.40001
1.40001
1.40001
1.40001
1.40001
1.40001
1.40001
1.40001
1.40001
1.40001
1.40001
1.40001
1.40001
1.40001
1.40001
1.40001
1.40001
1.40001
1.40001
1.40001
1.40001
1.40001
1.40001
1.40001
1.40001
1.40001
1.40001
1.40001
1.40001
1.40001
1.40001
1.40001
1.40001
1.40001
1.40001
1.40001
1.40001
1.40001
1.40001
1.40001
1.40001
1.40001
1.40001
1.40001
1.40001
1.40001
1.40001
1.40001
1.40001
1.4
1.40133
3.22839
5.19776
5.32872
5.3325
5.34147
5.34877
5.3572
5.36848
5.38033
5.39066
5.39864
5.40422
5.40803
5.41088
5.41316
5.41466
5.4149
5.41277
5.40894
5.40449
5.40097
5.39882
5.39717
5.39414
5.38764
5.37682
5.36206
5.34466
5.32626
5.30733
5.28658
5.26184
5.23058
5.19227
5.14577
5.09187
5.02535
4.94384
4.83345
4.69029
4.48256
4.21402
3.67448
2.91534
1.40001
1.40001
1.40001
1.40001
1.40001
1.40001
1.40001
1.40001
1.40001
1.40001
1.40001
1.40001
1.40001
1.40001
1.40001
1.40001
1.40001
1.40001
1.40001
1.40001
1.40001
1.40001
1.40001
1.40001
1.40001
1.40001
1.40001
1.40001
1.40001
1.40001
1.40001
1.40001
1.40001
1.40001
1.40001
1.40001
1.40001
1.40001
1.40001
1.40001
1.40001
1.40001
1.40001
1.40001
1.40001
1.40001
1.40001
1.40001
1.40001
1.40001
1.40001
1.4
1.94218
4.71862
5.36123
5.33504
5.33829
5.34051
5.34521
5.35433
5.36456
5.37326
5.37945
5.38301
5.3844
5.38409
5.38288
5.38142
5.37966
5.3766
5.37161
5.36436
5.35626
5.34917
5.3432
5.3366
5.32755
5.31448
5.29655
5.27451
5.25003
5.22449
5.19672
5.16508
5.1259
5.07861
5.02046
4.95254
4.86939
4.76753
4.63629
4.46496
4.2501
3.92758
3.48434
2.97473
1.40001
1.40001
1.40001
1.40001
1.40001
1.40001
1.40001
1.40001
1.40001
1.40001
1.40001
1.40001
1.40001
1.40001
1.40001
1.40001
1.40001
1.40001
1.40001
1.40001
1.40001
1.40001
1.40001
1.40001
1.40001
1.40001
1.40001
1.40001
1.40001
1.40001
1.40001
1.40001
1.40001
1.40001
1.40001
1.40001
1.40001
1.40001
1.40001
1.40001
1.40001
1.40001
1.40001
1.40001
1.40001
1.40001
1.40001
1.40001
1.40001
1.40001
1.40001
1.4
1.42246
3.54546
5.26566
5.30835
5.32039
5.32495
5.32994
5.33786
5.34648
5.35352
5.35838
5.36074
5.36049
5.35793
5.3532
5.34779
5.34282
5.33778
5.33132
5.32193
5.31044
5.29941
5.28923
5.27852
5.26595
5.24985
5.22875
5.20312
5.17373
5.14225
5.10744
5.06856
5.02197
4.96687
4.9002
4.82167
4.72771
4.61394
4.47379
4.29727
4.07676
3.79426
3.45995
3.07377
1.40001
1.40001
1.40001
1.40001
1.40001
1.40001
1.40001
1.40001
1.40001
1.40001
1.40001
1.40001
1.40001
1.40001
1.40001
1.40001
1.40001
1.40001
1.40001
1.40001
1.40001
1.40001
1.40001
1.40001
1.40001
1.40001
1.40001
1.40001
1.40001
1.40001
1.40001
1.40001
1.40001
1.40001
1.40001
1.40001
1.40001
1.40001
1.40001
1.40001
1.40001
1.40001
1.40001
1.40001
1.40001
1.40001
1.40001
1.40001
1.40001
1.40001
1.40001
1.40001
1.4
2.08715
4.82122
5.31491
5.30307
5.30787
5.31354
5.32112
5.32831
5.33359
5.33652
5.33718
5.33501
5.33072
5.32468
5.31775
5.3105
5.30276
5.29349
5.28119
5.26693
5.25292
5.23893
5.22396
5.20689
5.18665
5.16184
5.1332
5.1002
5.06392
5.02308
4.97735
4.92434
4.86294
4.79089
4.70636
4.60701
4.48855
4.35022
4.17709
3.97454
3.73959
3.47335
3.17641
1.40001
1.40001
1.40001
1.40001
1.40001
1.40001
1.40001
1.40001
1.40001
1.40001
1.40001
1.40001
1.40001
1.40001
1.40001
1.40001
1.40001
1.40001
1.40001
1.40001
1.40001
1.40001
1.40001
1.40001
1.40001
1.40001
1.40001
1.40001
1.40001
1.40001
1.40001
1.40001
1.40001
1.40001
1.40001
1.40001
1.40001
1.40001
1.40001
1.40001
1.40001
1.40001
1.40001
1.40001
1.40001
1.40001
1.40001
1.40001
1.40001
1.40001
1.40001
1.40001
1.4
1.43359
3.6006
5.2375
5.27698
5.28634
5.29284
5.29996
5.30552
5.3094
5.31095
5.3105
5.30681
5.30103
5.29484
5.28819
5.27976
5.26949
5.25718
5.24213
5.22571
5.20916
5.19174
5.1727
5.15081
5.12585
5.09697
5.06531
5.02958
4.98983
4.94472
4.89374
4.83562
4.76935
4.69386
4.60705
4.50708
4.38978
4.25583
4.09627
3.91847
3.71995
3.50299
3.26251
1.40001
1.40001
1.40001
1.40001
1.40001
1.40001
1.40001
1.40001
1.40001
1.40001
1.40001
1.40001
1.40001
1.40001
1.40001
1.40001
1.40001
1.40001
1.40001
1.40001
1.40001
1.40001
1.40001
1.40001
1.40001
1.40001
1.40001
1.40001
1.40001
1.40001
1.40001
1.40001
1.40001
1.40001
1.40001
1.40001
1.40001
1.40001
1.40001
1.40001
1.40001
1.40001
1.40001
1.40001
1.40001
1.40001
1.40001
1.40001
1.40001
1.40001
1.40001
1.40001
1.4
1.40002
2.03046
4.7731
5.27307
5.26575
5.26925
5.27382
5.27752
5.2795
5.27859
5.27605
5.27011
5.26217
5.25631
5.25139
5.24344
5.23295
5.21972
5.20416
5.18689
5.16779
5.14654
5.12325
5.09673
5.06765
5.03566
5.00133
4.96322
4.92062
4.87264
4.81875
4.75782
4.68896
4.61177
4.52499
4.42819
4.31471
4.18703
4.04581
3.88692
3.71914
3.534
3.33742
1.40001
1.40001
1.40001
1.40001
1.40001
1.40001
1.40001
1.40001
1.40001
1.40001
1.40001
1.40001
1.40001
1.40001
1.40001
1.40001
1.40001
1.40001
1.40001
1.40001
1.40001
1.40001
1.40001
1.40001
1.40001
1.40001
1.40001
1.40001
1.40001
1.40001
1.40001
1.40001
1.40001
1.40001
1.40001
1.40001
1.40001
1.40001
1.40001
1.40001
1.40001
1.40001
1.40001
1.40001
1.40001
1.40001
1.40001
1.40001
1.40001
1.40001
1.40001
1.40001
1.40001
1.40001
1.42593
3.37916
5.1411
5.23422
5.23935
5.24618
5.25296
5.25624
5.2542
5.24962
5.24165
5.23181
5.22403
5.2178
5.20836
5.19736
5.18338
5.16812
5.15083
5.12988
5.10545
5.07834
5.04764
5.01488
4.98028
4.94362
4.90336
4.85825
4.80788
4.75226
4.69025
4.62074
4.5434
4.45737
4.36565
4.25639
4.13933
4.01133
3.86993
3.7254
3.56337
3.39868
1.40001
1.40001
1.40001
1.40001
1.40001
1.40001
1.40001
1.40001
1.40001
1.40001
1.40001
1.40001
1.40001
1.40001
1.40001
1.40001
1.40001
1.40001
1.40001
1.40001
1.40001
1.40001
1.40001
1.40001
1.40001
1.40001
1.40001
1.40001
1.40001
1.40001
1.40001
1.40001
1.40001
1.40001
1.40001
1.40001
1.40001
1.40001
1.40001
1.40001
1.40001
1.40001
1.40001
1.40001
1.40001
1.40001
1.40001
1.40001
1.40001
1.40001
1.40001
1.40001
1.40001
1.40001
1.40002
1.74567
4.53967
5.26244
5.24647
5.24011
5.23523
5.23093
5.2249
5.21777
5.20778
5.19639
5.18667
5.17876
5.16895
5.15801
5.14427
5.12975
5.11225
5.08995
5.06355
5.03403
5.00045
4.96526
4.92886
4.89065
4.84906
4.80227
4.75028
4.69363
4.63183
4.56358
4.48887
4.40375
4.31598
4.21232
4.10585
3.98786
3.86436
3.73422
3.59211
3.44826
1.40001
1.40001
1.40001
1.40001
1.40001
1.40001
1.40001
1.40001
1.40001
1.40001
1.40001
1.40001
1.40001
1.40001
1.40001
1.40001
1.40001
1.40001
1.40001
1.40001
1.40001
1.40001
1.40001
1.40001
1.40001
1.40001
1.40001
1.40001
1.40001
1.40001
1.40001
1.40001
1.40001
1.40001
1.40001
1.40001
1.40001
1.40001
1.40001
1.40001
1.40001
1.40001
1.40001
1.40001
1.40001
1.40001
1.40001
1.40001
1.40001
1.40001
1.40001
1.40001
1.40001
1.40001
1.40001
1.40657
2.94308
5.01615
5.19263
5.19576
5.20221
5.19851
5.19321
5.18694
5.17607
5.16346
5.15162
5.14074
5.12941
5.11775
5.10416
5.09006
5.07241
5.04858
5.02155
4.99159
4.95716
4.92099
4.88315
4.84357
4.80101
4.75344
4.70068
4.6433
4.58211
4.51505
4.44323
4.36024
4.27629
4.17935
4.08199
3.97429
3.86363
3.74341
3.61847
3.49118
1.40001
1.40001
1.40001
1.40001
1.40001
1.40001
1.40001
1.40001
1.40001
1.40001
1.40001
1.40001
1.40001
1.40001
1.40001
1.40001
1.40001
1.40001
1.40001
1.40001
1.40001
1.40001
1.40001
1.40001
1.40001
1.40001
1.40001
1.40001
1.40001
1.40001
1.40001
1.40001
1.40001
1.40001
1.40001
1.40001
1.40001
1.40001
1.40001
1.40001
1.40001
1.40001
1.40001
1.40001
1.40001
1.40001
1.40001
1.40001
1.40001
1.40001
1.40001
1.40001
1.40001
1.40001
1.40001
1.40001
1.55486
3.97757
5.16708
5.18386
5.18146
5.17552
5.17183
5.16554
5.1536
5.13865
5.12392
5.11027
5.09681
5.08352
5.06848
5.05254
5.03377
5.00838
4.98058
4.95094
4.91691
4.88087
4.84221
4.80146
4.75807
4.71032
4.65724
4.60007
4.5407
4.47436
4.40475
4.32703
4.2463
4.15621
4.06635
3.96653
3.86423
3.75376
3.6435
3.5273
1.40001
1.40001
1.40001
1.40001
1.40001
1.40001
1.40001
1.40001
1.40001
1.40001
1.40001
1.40001
1.40001
1.40001
1.40001
1.40001
1.40001
1.40001
1.40001
1.40001
1.40001
1.40001
1.40001
1.40001
1.40001
1.40001
1.40001
1.40001
1.40001
1.40001
1.40001
1.40001
1.40001
1.40001
1.40001
1.40001
1.40001
1.40001
1.40001
1.40001
1.40001
1.40001
1.40001
1.40001
1.40001
1.40001
1.40001
1.40001
1.40001
1.40001
1.40001
1.40001
1.40001
1.40001
1.40001
1.40001
1.40118
2.10796
4.74924
5.1862
5.15435
5.15483
5.1486
5.14012
5.12802
5.11318
5.09766
5.08225
5.06667
5.05132
5.03467
5.0159
4.99558
4.96887
4.9399
4.90966
4.87683
4.8416
4.80336
4.76215
4.71886
4.67103
4.61918
4.56296
4.5042
4.43913
4.37203
4.3003
4.22288
4.13992
4.05591
3.96222
3.86706
3.76702
3.6662
3.55872
1.40001
1.40001
1.40001
1.40001
1.40001
1.40001
1.40001
1.40001
1.40001
1.40001
1.40001
1.40001
1.40001
1.40001
1.40001
1.40001
1.40001
1.40001
1.40001
1.40001
1.40001
1.40001
1.40001
1.40001
1.40001
1.40001
1.40001
1.40001
1.40001
1.40001
1.40001
1.40001
1.40001
1.40001
1.40001
1.40001
1.40001
1.40001
1.40001
1.40001
1.40001
1.40001
1.40001
1.40001
1.40001
1.40001
1.40001
1.40001
1.40001
1.40001
1.40001
1.40001
1.40001
1.40001
1.40001
1.40001
1.40001
1.42981
3.08906
5.04081
5.13178
5.13076
5.12849
5.11976
5.10792
5.09244
5.07575
5.05898
5.04168
5.02432
5.00611
4.98488
4.96255
4.93514
4.90461
4.87303
4.84046
4.80598
4.76821
4.72731
4.68476
4.63804
4.58651
4.53049
4.47195
4.40977
4.34523
4.27846
4.20518
4.12859
4.04907
3.96161
3.87378
3.78103
3.68732
3.58877
1.40001
1.40001
1.40001
1.40001
1.40001
1.40001
1.40001
1.40001
1.40001
1.40001
1.40001
1.40001
1.40001
1.40001
1.40001
1.40001
1.40001
1.40001
1.40001
1.40001
1.40001
1.40001
1.40001
1.40001
1.40001
1.40001
1.40001
1.40001
1.40001
1.40001
1.40001
1.40001
1.40001
1.40001
1.40001
1.40001
1.40001
1.40001
1.40001
1.40001
1.40001
1.40001
1.40001
1.40001
1.40001
1.40001
1.40001
1.40001
1.40001
1.40001
1.40001
1.40001
1.40001
1.40001
1.40001
1.40001
1.40001
1.40007
1.57588
3.77914
5.08719
5.13205
5.12115
5.11194
5.09894
5.08166
5.06215
5.04232
5.0229
5.00295
4.98245
4.95899
4.93432
4.90722
4.87559
4.84265
4.80881
4.77397
4.73568
4.69508
4.65362
4.60748
4.55717
4.5028
4.44525
4.38506
4.32177
4.25866
4.18988
4.11907
4.0439
3.96388
3.8819
3.79522
3.70776
3.6175
1.40001
1.40001
1.40001
1.40001
1.40001
1.40001
1.40001
1.40001
1.40001
1.40001
1.40001
1.40001
1.40001
1.40001
1.40001
1.40001
1.40001
1.40001
1.40001
1.40001
1.40001
1.40001
1.40001
1.40001
1.40001
1.40001
1.40001
1.40001
1.40001
1.40001
1.40001
1.40001
1.40001
1.40001
1.40001
1.40001
1.40001
1.40001
1.40001
1.40001
1.40001
1.40001
1.40001
1.40001
1.40001
1.40001
1.40001
1.40001
1.40001
1.40001
1.40001
1.40001
1.40001
1.40001
1.40001
1.40001
1.40001
1.40001
1.40163
1.79658
4.48265
5.16721
5.13321
5.11052
5.08576
5.06369
5.04289
5.02249
5.00223
4.98218
4.96004
4.93471
4.90853
4.88085
4.84886
4.81516
4.78036
4.74537
4.70719
4.66699
4.62559
4.58141
4.53239
4.47998
4.42393
4.36562
4.3035
4.24197
4.17709
4.11081
4.04009
3.96712
3.89026
3.81019
3.72861
3.64564
1.40001
1.40001
1.40001
1.40001
1.40001
1.40001
1.40001
1.40001
1.40001
1.40001
1.40001
1.40001
1.40001
1.40001
1.40001
1.40001
1.40001
1.40001
1.40001
1.40001
1.40001
1.40001
1.40001
1.40001
1.40001
1.40001
1.40001
1.40001
1.40001
1.40001
1.40001
1.40001
1.40001
1.40001
1.40001
1.40001
1.40001
1.40001
1.40001
1.40001
1.40001
1.40001
1.40001
1.40001
1.40001
1.40001
1.40001
1.40001
1.40001
1.40001
1.40001
1.40001
1.40001
1.40001
1.40001
1.40001
1.40001
1.40001
1.40001
1.40854
2.57496
4.89673
5.09953
5.06918
5.04954
5.03238
5.0171
5.00063
4.98193
4.96152
4.9392
4.91256
4.88588
4.8572
4.82538
4.79185
4.7565
4.72075
4.68247
4.64313
4.60162
4.55738
4.5103
4.45972
4.4056
4.34904
4.28909
4.22845
4.16674
4.10362
4.03746
3.9701
3.89827
3.82423
3.74814
3.67135
1.40001
1.40001
1.40001
1.40001
1.40001
1.40001
1.40001
1.40001
1.40001
1.40001
1.40001
1.40001
1.40001
1.40001
1.40001
1.40001
1.40001
1.40001
1.40001
1.40001
1.40001
1.40001
1.40001
1.40001
1.40001
1.40001
1.40001
1.40001
1.40001
1.40001
1.40001
1.40001
1.40001
1.40001
1.40001
1.40001
1.40001
1.40001
1.40001
1.40001
1.40001
1.40001
1.40001
1.40001
1.40001
1.40001
1.40001
1.40001
1.40001
1.40001
1.40001
1.40001
1.40001
1.40001
1.40001
1.40001
1.40001
1.40001
1.40001
1.40002
1.48045
3.20597
4.98135
5.03687
5.02396
5.02088
5.01083
4.99656
4.97829
4.95707
4.93283
4.90453
4.87549
4.84375
4.80988
4.77505
4.73913
4.70231
4.66398
4.62358
4.58277
4.53918
4.49261
4.44286
4.39021
4.33517
4.27799
4.21931
4.16027
4.09966
4.03732
3.97408
3.90677
3.83757
3.76658
3.69471
1.40001
1.40001
1.40001
1.40001
1.40001
1.40001
1.40001
1.40001
1.40001
1.40001
1.40001
1.40001
1.40001
1.40001
1.40001
1.40001
1.40001
1.40001
1.40001
1.40001
1.40001
1.40001
1.40001
1.40001
1.40001
1.40001
1.40001
1.40001
1.40001
1.40001
1.40001
1.40001
1.40001
1.40001
1.40001
1.40001
1.40001
1.40001
1.40001
1.40001
1.40001
1.40001
1.40001
1.40001
1.40001
1.40001
1.40001
1.40001
1.40001
1.40001
1.40001
1.40001
1.40001
1.40001
1.40001
1.40001
1.40001
1.40001
1.40001
1.40001
1.40043
1.60143
3.59095
4.98554
5.01349
5.00926
5.00178
4.98784
4.97019
4.94947
4.92487
4.89663
4.86579
4.83265
4.79796
4.76226
4.72586
4.68852
4.64933
4.60818
4.5672
4.52456
4.47846
4.42936
4.37776
4.32408
4.26926
4.21299
4.15637
4.09831
4.03913
3.97892
3.91535
3.84991
3.78332
3.71514
1.40001
1.40001
1.40001
1.40001
1.40001
1.40001
1.40001
1.40001
1.40001
1.40001
1.40001
1.40001
1.40001
1.40001
1.40001
1.40001
1.40001
1.40001
1.40001
1.40001
1.40001
1.40001
1.40001
1.40001
1.40001
1.40001
1.40001
1.40001
1.40001
1.40001
1.40001
1.40001
1.40001
1.40001
1.40001
1.40001
1.40001
1.40001
1.40001
1.40001
1.40001
1.40001
1.40001
1.40001
1.40001
1.40001
1.40001
1.40001
1.40001
1.40001
1.40001
1.40001
1.40001
1.40001
1.40001
1.40001
1.40001
1.40001
1.40001
1.40001
1.40001
1.40226
1.72334
3.91008
5.01338
5.01229
4.99681
4.97939
4.95949
4.93732
4.91309
4.88659
4.8571
4.82454
4.79018
4.75446
4.71761
4.67985
4.64063
4.59966
4.55829
4.51555
4.46987
4.42148
4.37065
4.31807
4.26485
4.21054
4.15543
4.09929
4.04209
3.9839
3.9236
3.86197
3.79933
3.73445
1.40001
1.40001
1.40001
1.40001
1.40001
1.40001
1.40001
1.40001
1.40001
1.40001
1.40001
1.40001
1.40001
1.40001
1.40001
1.40001
1.40001
1.40001
1.40001
1.40001
1.40001
1.40001
1.40001
1.40001
1.40001
1.40001
1.40001
1.40001
1.40001
1.40001
1.40001
1.40001
1.40001
1.40001
1.40001
1.40001
1.40001
1.40001
1.40001
1.40001
1.40001
1.40001
1.40001
1.40001
1.40001
1.40001
1.40001
1.40001
1.40001
1.40001
1.40001
1.40001
1.40001
1.40001
1.40001
1.40001
1.40001
1.40001
1.40001
1.40001
1.40001
1.40001
1.40569
1.8596
4.1909
5.01915
5.00379
4.98082
4.95527
4.9297
4.9029
4.87517
4.84531
4.81354
4.78044
4.74576
4.70955
4.67208
4.63336
4.59329
4.55215
4.50942
4.46424
4.41671
4.36688
4.3154
4.26331
4.21026
4.1563
4.10173
4.04588
3.98959
3.93215
3.87399
3.81447
3.7524
1.40001
1.40001
1.40001
1.40001
1.40001
1.40001
1.40001
1.40001
1.40001
1.40001
1.40001
1.40001
1.40001
1.40001
1.40001
1.40001
1.40001
1.40001
1.40001
1.40001
1.40001
1.40001
1.40001
1.40001
1.40001
1.40001
1.40001
1.40001
1.40001
1.40001
1.40001
1.40001
1.40001
1.40001
1.40001
1.40001
1.40001
1.40001
1.40001
1.40001
1.40001
1.40001
1.40001
1.40001
1.40001
1.40001
1.40001
1.40001
1.40001
1.40001
1.40001
1.40001
1.40001
1.40001
1.40001
1.40001
1.40001
1.40001
1.40001
1.40001
1.40001
1.40001
1.40002
1.41142
2.01277
4.39571
5.02924
5.00336
4.97173
4.93863
4.90708
4.87503
4.84088
4.80693
4.77284
4.7379
4.70211
4.66531
4.62755
4.58877
4.54871
4.50672
4.46236
4.4158
4.36698
4.31646
4.26524
4.21324
4.16081
4.10778
4.05311
3.99831
3.94288
3.88702
3.82951
3.76973
1.40001
1.40001
1.40001
1.40001
1.40001
1.40001
1.40001
1.40001
1.40001
1.40001
1.40001
1.40001
1.40001
1.40001
1.40001
1.40001
1.40001
1.40001
1.40001
1.40001
1.40001
1.40001
1.40001
1.40001
1.40001
1.40001
1.40001
1.40001
1.40001
1.40001
1.40001
1.40001
1.40001
1.40001
1.40001
1.40001
1.40001
1.40001
1.40001
1.40001
1.40001
1.40001
1.40001
1.40001
1.40001
1.40001
1.40001
1.40001
1.40001
1.40001
1.40001
1.40001
1.40001
1.40001
1.40001
1.40001
1.40001
1.40001
1.40001
1.40001
1.40001
1.40001
1.40001
1.40004
1.42031
2.16085
4.57718
5.026
4.9951
4.96031
4.92034
4.88224
4.84482
4.8078
4.77069
4.73412
4.69754
4.66052
4.62291
4.58449
4.54492
4.50357
4.46008
4.4146
4.3673
4.31875
4.2694
4.21919
4.16852
4.11686
4.06307
4.00908
3.95483
3.90009
3.84383
3.78551
1.40001
1.40001
1.40001
1.40001
1.40001
1.40001
1.40001
1.40001
1.40001
1.40001
1.40001
1.40001
1.40001
1.40001
1.40001
1.40001
1.40001
1.40001
1.40001
1.40001
1.40001
1.40001
1.40001
1.40001
1.40001
1.40001
1.40001
1.40001
1.40001
1.40001
1.40001
1.40001
1.40001
1.40001
1.40001
1.40001
1.40001
1.40001