/*--------------------------------*- C++ -*----------------------------------*\
  =========                 |
  \\      /  F ield         | OpenFOAM: The Open Source CFD Toolbox
   \\    /   O peration     | Website:  https://openfoam.org
    \\  /    A nd           | Version:  7
     \\/     M anipulation  |
\*---------------------------------------------------------------------------*/
FoamFile
{
    version     2.0;
    format      ascii;
    class       volScalarField;
    location    "49";
    object      p;
}
// * * * * * * * * * * * * * * * * * * * * * * * * * * * * * * * * * * * * * //

dimensions      [0 2 -2 0 0 0 0];

internalField   nonuniform List<scalar> 
8800
(
0.900488
0.8527
0.814009
0.785012
0.764145
0.749309
0.738707
0.731219
0.72639
0.724319
0.725573
0.729751
0.736387
0.745696
0.75847
0.7762
0.800974
0.834913
0.87746
0.936162
0.731742
0.739421
0.746892
0.750199
0.748693
0.743611
0.73712
0.731035
0.726302
0.723447
0.723153
0.725644
0.730121
0.736057
0.742819
0.749094
0.752731
0.751993
0.74657
0.737877
0.710153
0.716312
0.720437
0.723378
0.725423
0.726021
0.724908
0.722794
0.720766
0.719844
0.72079
0.723156
0.725943
0.728115
0.728714
0.727509
0.725162
0.721766
0.717206
0.713445
0.70436
0.707009
0.709757
0.712156
0.713785
0.714939
0.715671
0.715778
0.715469
0.715402
0.716136
0.717288
0.718113
0.718166
0.717547
0.716448
0.714626
0.712051
0.709645
0.708141
0.699
0.700424
0.702199
0.704225
0.706002
0.707334
0.708312
0.709096
0.709695
0.710239
0.710867
0.711342
0.711423
0.711119
0.710409
0.709151
0.707447
0.705592
0.704282
0.70345
0.693952
0.694871
0.696108
0.697667
0.699291
0.700805
0.702076
0.703126
0.70407
0.704939
0.705601
0.705902
0.705836
0.705376
0.704479
0.703265
0.701926
0.700658
0.699831
0.69928
0.68908
0.689749
0.690706
0.692
0.693398
0.694843
0.696266
0.697568
0.698742
0.699818
0.700605
0.700938
0.700822
0.700286
0.699458
0.698492
0.697465
0.69653
0.69594
0.695535
0.68434
0.684856
0.685634
0.686755
0.688019
0.689377
0.690804
0.692251
0.693648
0.694945
0.695906
0.696332
0.696266
0.695845
0.695212
0.694462
0.693668
0.692971
0.692532
0.692216
0.679663
0.680073
0.680723
0.681718
0.682909
0.684217
0.685638
0.687163
0.688746
0.690295
0.691482
0.692081
0.692191
0.691974
0.691552
0.691003
0.690406
0.689896
0.689567
0.68931
0.674964
0.675298
0.675859
0.676773
0.677913
0.679202
0.680653
0.682268
0.684026
0.685846
0.687328
0.688198
0.688565
0.688583
0.688375
0.688037
0.687624
0.687268
0.687022
0.686808
0.670158
0.670435
0.670934
0.671801
0.67292
0.67423
0.675747
0.677491
0.679462
0.681593
0.68345
0.684673
0.685348
0.685633
0.685657
0.685527
0.685294
0.685072
0.684893
0.684709
0.665161
0.665393
0.665853
0.666703
0.667842
0.669215
0.67084
0.672765
0.675011
0.677532
0.679847
0.681494
0.682527
0.683117
0.683398
0.683481
0.683424
0.683322
0.683198
0.683036
0.659886
0.660083
0.660523
0.661385
0.662584
0.664064
0.665853
0.668027
0.670629
0.673641
0.676515
0.678663
0.680112
0.681044
0.68161
0.681912
0.682045
0.682056
0.681978
0.681831
0.654237
0.654406
0.654842
0.655747
0.657047
0.658685
0.660704
0.663207
0.666264
0.669891
0.673441
0.676186
0.678123
0.679448
0.680335
0.680903
0.681219
0.681334
0.681295
0.681158
0.648105
0.648249
0.648698
0.649673
0.651122
0.652977
0.655301
0.658221
0.66185
0.666231
0.670605
0.67407
0.676589
0.678375
0.679625
0.680477
0.681001
0.681228
0.681226
0.681095
0.64136
0.641478
0.641953
0.643032
0.64468
0.646821
0.649536
0.652989
0.657333
0.662641
0.668016
0.672344
0.675551
0.677884
0.67956
0.680734
0.68149
0.681831
0.681864
0.681736
0.633836
0.633929
0.634446
0.635661
0.637566
0.640072
0.643288
0.647418
0.652652
0.659099
0.665686
0.671049
0.675074
0.678043
0.680227
0.68178
0.682794
0.683256
0.683321
0.683193
0.625307
0.625404
0.625973
0.627344
0.629577
0.632556
0.636415
0.641401
0.647754
0.655607
0.663654
0.670242
0.675227
0.678948
0.681738
0.683731
0.685034
0.685625
0.685723
0.68559
0.615485
0.615563
0.616219
0.617811
0.62047
0.624057
0.628727
0.634785
0.64252
0.65209
0.661901
0.669953
0.676083
0.680699
0.684192
0.686705
0.688341
0.689072
0.689202
0.689062
0.60401
0.604069
0.604822
0.606724
0.60993
0.614298
0.620011
0.627436
0.636906
0.64858
0.660505
0.670282
0.677749
0.683412
0.687716
0.690847
0.692857
0.693737
0.693896
0.693744
0.590345
0.590392
0.591288
0.593597
0.597527
0.602923
0.609994
0.619179
0.630834
0.645083
0.659526
0.671319
0.680327
0.687206
0.692461
0.696292
0.698712
0.699747
0.69993
0.699763
0.573734
0.573769
0.574879
0.577767
0.58269
0.58948
0.59837
0.609854
0.62427
0.641655
0.65905
0.673166
0.683938
0.692195
0.698542
0.703161
0.706023
0.707207
0.707406
0.70722
0.553067
0.553098
0.554543
0.55829
0.56464
0.573391
0.584769
0.599281
0.617168
0.638326
0.659161
0.675906
0.688674
0.698488
0.706028
0.711546
0.714862
0.716177
0.716377
0.71617
0.526605
0.526655
0.52868
0.533823
0.542384
0.554028
0.56893
0.587492
0.609761
0.635408
0.660122
0.679738
0.694655
0.706179
0.715021
0.721479
0.725224
0.72663
0.726809
0.726576
0.491331
0.49148
0.494697
0.502424
0.514738
0.530794
0.550707
0.574571
0.602178
0.632999
0.662018
0.684738
0.701937
0.715239
0.725512
0.732891
0.736982
0.738403
0.73853
0.738271
0.441486
0.442442
0.448859
0.461903
0.480744
0.503635
0.53047
0.561056
0.594986
0.63159
0.665155
0.691049
0.710555
0.725671
0.737361
0.745559
0.749841
0.751169
0.751213
0.750926
0.36817
0.37535
0.390243
0.413264
0.441857
0.473918
0.509228
0.547564
0.58853
0.63144
0.669952
0.699325
0.72139
0.738553
0.751777
0.760763
0.7652
0.766455
0.766453
0.7662
0.289127
0.306169
0.330343
0.363982
0.402736
0.444121
0.488007
0.534337
0.582804
0.632807
0.677298
0.711122
0.736517
0.756242
0.771421
0.781226
0.785618
0.786694
0.786723
0.786585
0.2233
0.243412
0.275293
0.317898
0.36563
0.415807
0.468016
0.522189
0.57801
0.634898
0.685098
0.723083
0.751562
0.773582
0.790197
0.800411
0.804662
0.805751
0.805885
0.805817
0.169371
0.191146
0.22853
0.277535
0.332344
0.389923
0.449496
0.510868
0.573602
0.637043
0.692652
0.734529
0.765799
0.789817
0.807731
0.818632
0.823456
0.824555
0.824673
0.824649
0.124376
0.147346
0.188522
0.242612
0.303125
0.366817
0.432708
0.500476
0.569529
0.639082
0.699775
0.745294
0.779175
0.805142
0.824431
0.836272
0.841472
0.842595
0.842765
0.842777
0.0860601
0.109718
0.153754
0.2119
0.277202
0.346098
0.417474
0.49092
0.565711
0.640908
0.70634
0.755253
0.791572
0.81935
0.839835
0.852533
0.85818
0.859497
0.859726
0.859766
0.05243
0.0765602
0.122874
0.184338
0.253689
0.327102
0.40334
0.481897
0.561941
0.642382
0.712245
0.764309
0.802844
0.832151
0.85371
0.867047
0.873085
0.874707
0.875006
0.875051
0.022019
0.0465686
0.0947512
0.159047
0.231886
0.30925
0.389842
0.473053
0.557962
0.643334
0.717388
0.7724
0.812927
0.843585
0.86601
0.879874
0.886216
0.888084
0.888423
0.888458
-0.00610995
0.0188313
0.0686367
0.135342
0.21125
0.292112
0.376613
0.464085
0.553539
0.643603
0.721696
0.779516
0.821896
0.853801
0.876916
0.891089
0.89768
0.899699
0.900042
0.900053
-0.0327379
-0.00735979
0.0439516
0.112751
0.191379
0.275361
0.363394
0.454782
0.548502
0.643072
0.725112
0.785691
0.82987
0.862889
0.886491
0.900869
0.907557
0.909675
0.910005
0.909986
-0.0582
-0.0323793
0.0200822
0.0909548
0.171995
0.258777
0.350008
0.445003
0.542732
0.641652
0.727604
0.790977
0.836974
0.871023
0.895025
0.909483
0.91624
0.918391
0.918716
0.918668
-0.0829001
-0.0565023
-0.00296831
0.069717
0.152914
0.242208
0.336342
0.434654
0.536144
0.639265
0.729152
0.795434
0.843333
0.87841
0.90275
0.917265
0.924021
0.926123
0.926439
0.926371
-0.106957
-0.0801088
-0.0253805
0.048902
0.134031
0.225578
0.322336
0.423692
0.528694
0.635872
0.729743
0.799115
0.849056
0.885182
0.909849
0.924383
0.931081
0.933115
0.933353
0.933246
-0.130475
-0.103075
-0.0472998
0.0284388
0.115303
0.208865
0.307978
0.412101
0.520365
0.631436
0.729351
0.802038
0.854218
0.89148
0.916483
0.930978
0.937496
0.939389
0.939548
0.939397
-0.153567
-0.125566
-0.0687794
0.00830398
0.0967162
0.192076
0.293294
0.399912
0.511169
0.625943
0.727936
0.804184
0.858882
0.897449
0.922803
0.937139
0.943352
0.945015
0.945085
0.944906
-0.176232
-0.147549
-0.0898118
-0.0114941
0.0783089
0.175248
0.278337
0.387177
0.501144
0.619383
0.725445
0.805497
0.863063
0.903238
0.92901
0.943004
0.948701
0.950047
0.950022
0.949826
-0.198307
-0.168982
-0.110335
-0.0309198
0.0601191
0.158451
0.263172
0.373974
0.490356
0.611792
0.721819
0.805878
0.866721
0.90898
0.935384
0.948823
0.953648
0.954513
0.954383
0.954187
-0.219767
-0.189832
-0.130331
-0.0499167
0.0422083
0.141749
0.247893
0.360385
0.478889
0.603203
0.717014
0.805195
0.869746
0.914725
0.942283
0.9551
0.958517
0.958498
0.958193
0.95805
-0.240676
-0.210061
-0.149768
-0.0684494
0.0246418
0.125226
0.232588
0.346517
0.46684
0.593686
0.710985
0.803303
0.871939
0.920348
0.949993
0.962688
0.964265
0.962444
0.961567
0.961682
-0.260859
-0.229641
-0.168586
-0.086453
0.00748019
0.108968
0.217355
0.332483
0.454326
0.58334
0.703725
0.800043
0.873023
0.925462
0.958381
0.972517
0.972983
0.968539
0.965539
0.964941
-0.280409
-0.248565
-0.186803
-0.103955
-0.00930939
0.0929288
0.202138
0.318223
0.44128
0.57209
0.695097
0.795141
0.872676
0.929491
0.966665
0.984678
0.98693
0.981208
0.972419
0.957753
-0.299251
-0.266818
-0.204539
-0.121153
-0.0260162
0.0767736
0.186517
0.303252
0.427162
0.559293
0.684446
0.787797
0.870286
0.931588
0.972878
0.996439
1.00141
0.98963
0.970246
0.957534
-0.317205
-0.284535
-0.221597
-0.137827
-0.0423064
0.0608503
0.170721
0.2879
0.412282
0.545215
0.671862
0.777586
0.865128
0.930628
0.97254
0.995699
1.00399
0.981914
0.913813
0.883011
-0.333605
-0.302949
-0.237641
-0.15342
-0.0574271
0.0456649
0.155058
0.272393
0.396858
0.529983
0.657293
0.764239
0.855919
0.92602
0.960874
0.977696
0.970523
0.917862
0.848772
0.806163
-0.390022
-0.319185
-0.252293
-0.169011
-0.0729558
0.0297699
0.139466
0.256454
0.380527
0.51315
0.640152
0.747195
0.838979
0.915731
0.921508
0.927369
0.881873
0.813412
0.737346
0.694934
-0.35121
-0.334973
-0.274094
-0.190385
-0.0956955
0.00690699
0.115619
0.231947
0.355013
0.486139
0.610965
0.715974
0.799593
0.879762
0.869565
0.759898
0.656461
0.584423
0.511637
0.543155
-0.382739
-0.353044
-0.291149
-0.208202
-0.113476
-0.0110789
0.0979079
0.213607
0.335615
0.46494
0.586894
0.687622
0.762801
0.805051
0.7579
0.612102
0.486127
0.395808
0.297515
0.348481
-0.407071
-0.374422
-0.311222
-0.228041
-0.133217
-0.0309003
0.0780308
0.192917
0.313553
0.440498
0.558715
0.653441
0.719668
0.728597
0.623897
0.452686
0.30128
0.183398
0.052684
0.085961
-0.430931
-0.396698
-0.332285
-0.248187
-0.153192
-0.0509756
0.0574787
0.171435
0.290522
0.414727
0.528337
0.615983
0.666909
0.644956
0.488335
0.293314
0.103847
-0.0635332
-0.252079
-0.2698
-0.454187
-0.419495
-0.35416
-0.26927
-0.174046
-0.0719902
0.0358701
0.14879
0.266087
0.38719
0.495532
0.575804
0.60818
0.55045
0.359381
0.150008
-0.0666136
-0.255557
-0.497657
-0.798183
-0.477756
-0.443053
-0.377143
-0.291721
-0.196245
-0.0942893
0.0130583
0.124923
0.240342
0.358107
0.460919
0.532885
0.545463
0.436945
0.247298
0.0385074
-0.165089
-0.336907
-0.405262
-0.485281
-0.502589
-0.467826
-0.401591
-0.315887
-0.220293
-0.11852
-0.0117674
0.0988861
0.212129
0.326053
0.422956
0.484255
0.472415
0.330288
0.14786
-0.0419131
-0.20379
-0.295972
-0.319802
-0.335807
-0.529009
-0.494135
-0.427681
-0.341858
-0.246326
-0.144895
-0.0389635
0.0701957
0.180865
0.29032
0.380805
0.428526
0.399117
0.231317
0.0578011
-0.106864
-0.232473
-0.271091
-0.284072
-0.285382
-0.557227
-0.522157
-0.455481
-0.36963
-0.274291
-0.173416
-0.0685459
0.0388061
0.146488
0.250903
0.334077
0.367733
0.31961
0.139733
-0.0247126
-0.17207
-0.247537
-0.264431
-0.265817
-0.265642
-0.587307
-0.551946
-0.485017
-0.3992
-0.304204
-0.204072
-0.100516
0.00470597
0.109013
0.207877
0.282854
0.304799
0.22109
0.0558249
-0.100265
-0.22168
-0.257678
-0.256065
-0.255029
-0.254434
-0.618968
-0.583354
-0.516189
-0.430482
-0.335976
-0.236808
-0.13484
-0.032074
0.0684853
0.161353
0.227941
0.233054
0.130251
-0.0223985
-0.159972
-0.235181
-0.245116
-0.2476
-0.248225
-0.247845
-0.651651
-0.615899
-0.548745
-0.463253
-0.369424
-0.271467
-0.171362
-0.0713981
0.0250912
0.11168
0.169767
0.159202
0.0475402
-0.0890954
-0.2034
-0.233736
-0.242318
-0.244229
-0.24405
-0.243683
-0.684903
-0.649053
-0.58223
-0.497123
-0.404205
-0.307732
-0.209807
-0.112974
-0.020887
0.0595711
0.107488
0.0888386
-0.0309188
-0.145344
-0.232434
-0.24915
-0.24167
-0.240654
-0.240657
-0.240524
-0.717844
-0.682138
-0.615783
-0.531494
-0.439785
-0.345137
-0.249733
-0.156318
-0.0689841
0.0056957
0.0438919
0.0246518
-0.103406
-0.195077
-0.23448
-0.24644
-0.242805
-0.239099
-0.237741
-0.237477
-0.748885
-0.713952
-0.648471
-0.56545
-0.475413
-0.382991
-0.290498
-0.200761
-0.118366
-0.0492649
-0.0146244
-0.043991
-0.165777
-0.261094
-0.244223
-0.253749
-0.248318
-0.238965
-0.234677
-0.233136
-0.776491
-0.74261
-0.679173
-0.597852
-0.510063
-0.420376
-0.331251
-0.24549
-0.167883
-0.10437
-0.0693597
-0.105283
-0.208756
-0.34153
-0.350565
-0.302455
-0.263203
-0.243937
-0.235958
-0.232993
-0.798542
-0.766456
-0.705751
-0.627313
-0.542463
-0.456162
-0.370932
-0.289523
-0.216461
-0.158146
-0.123514
-0.145062
-0.204862
-0.381446
-0.469347
-0.339157
-0.281785
-0.26257
-0.25369
-0.24901
-0.81285
-0.7835
-0.726484
-0.651908
-0.571111
-0.489042
-0.40834
-0.331705
-0.263188
-0.209086
-0.173012
-0.160206
-0.107053
-0.126982
-0.175539
-0.241318
-0.289665
-0.301527
-0.297787
-0.297273
-0.816773
-0.791513
-0.739363
-0.669863
-0.594308
-0.517604
-0.442184
-0.370852
-0.307097
-0.257736
-0.213315
-0.175513
0.0124044
0.321148
0.109151
-0.155777
-0.285001
-0.317997
-0.32763
-0.331398
-0.808239
-0.787828
-0.742204
-0.679533
-0.610532
-0.540245
-0.471025
-0.405619
-0.347861
-0.303648
-0.252735
-0.278048
-0.214494
-0.0125187
-0.177775
-0.356225
-0.428322
-0.442933
-0.447749
-0.452431
-0.785119
-0.769612
-0.733154
-0.679642
-0.618685
-0.555779
-0.493433
-0.434417
-0.383727
-0.348036
-0.323933
-0.535227
-1.00051
-1.56704
-1.62382
-1.15325
-0.82264
-0.69759
-0.6696
-0.66511
-0.749578
-0.739503
-0.712776
-0.670138
-0.618459
-0.563624
-0.50822
-0.455274
-0.410708
-0.384065
-0.393214
-0.66101
-1.11221
-1.55982
-1.54248
-1.09097
-0.765946
-0.651048
-0.611763
-0.598409
-0.707781
-0.702094
-0.685563
-0.653536
-0.611464
-0.564076
-0.514687
-0.466422
-0.424052
-0.396637
-0.393695
-0.417399
-0.269321
0.0103473
0.311343
0.225798
-0.0588946
-0.251644
-0.28211
-0.286984
-0.668876
-0.665562
-0.65734
-0.634902
-0.600389
-0.558856
-0.513782
-0.466813
-0.422667
-0.386338
-0.379889
-0.307972
-0.18556
-0.14384
-0.335692
-0.644246
-0.78832
-0.732036
-0.570139
-0.516842
-0.639632
-0.637635
-0.63353
-0.618588
-0.589822
-0.551261
-0.507553
-0.459644
-0.41004
-0.368156
-0.35122
-0.363082
-0.361666
-0.440039
-0.530558
-0.615987
-0.643348
-0.580863
-0.46961
-0.423692
-0.615742
-0.614993
-0.61376
-0.605843
-0.582146
-0.544888
-0.499152
-0.446872
-0.391692
-0.334959
-0.293595
-0.254375
-0.142971
-0.0200322
0.0376303
0.0814159
0.165792
0.259387
0.337218
0.369689
-0.600326
-0.599883
-0.599379
-0.595899
-0.577401
-0.540009
-0.489949
-0.431652
-0.364498
-0.288814
-0.213679
-0.105983
0.0771323
0.311298
0.529836
0.719566
0.894709
1.04235
1.13667
1.1719
-0.590135
-0.58992
-0.589523
-0.588755
-0.575032
-0.537364
-0.482815
-0.415773
-0.336072
-0.245565
-0.139809
-0.0154527
0.242774
0.571172
0.898634
1.21213
1.47113
1.64734
1.74298
1.77475
-0.582895
-0.582634
-0.581787
-0.581179
-0.57261
-0.53827
-0.479702
-0.404207
-0.313666
-0.210161
-0.0954279
0.00882791
0.261307
0.60605
1.00031
1.35858
1.64071
1.81925
1.90488
1.92998
-0.583563
-0.581256
-0.575358
-0.571564
-0.572269
-0.546269
-0.482742
-0.397889
-0.298982
-0.18818
-0.0693725
0.0576788
0.238114
0.579296
0.924981
1.24255
1.49163
1.64446
1.71518
1.73446
-0.612417
-0.608445
-0.602284
-0.601977
-0.605493
-0.573323
-0.493352
-0.393643
-0.286816
-0.171708
-0.0551972
0.0667498
0.206954
0.438385
0.742847
1.00077
1.20492
1.32294
1.37479
1.38733
-0.674897
-0.677373
-0.690359
-0.698474
-0.689711
-0.621354
-0.504811
-0.385029
-0.272308
-0.159009
-0.0521697
0.0495559
0.143138
0.304126
0.529294
0.726479
0.882174
0.971012
1.00825
1.01616
-0.711773
-0.726584
-0.75068
-0.76092
-0.734455
-0.631172
-0.489376
-0.361068
-0.250353
-0.147336
-0.0565421
0.0225829
0.0894094
0.192481
0.352824
0.492531
0.599135
0.657751
0.682279
0.684399
-0.607961
-0.62381
-0.645406
-0.653883
-0.623058
-0.529689
-0.415353
-0.308412
-0.215304
-0.131391
-0.0597293
-0.00251264
0.0451137
0.107519
0.212096
0.307698
0.376207
0.413125
0.42613
0.427917
-0.368376
-0.378019
-0.392343
-0.401699
-0.389228
-0.344467
-0.286899
-0.22614
-0.166477
-0.107521
-0.0572329
-0.0188359
0.012481
0.0572263
0.119341
0.173803
0.213187
0.233417
0.240918
0.240335
-0.119383
-0.123545
-0.13279
-0.146653
-0.158217
-0.162188
-0.155071
-0.137575
-0.11207
-0.0806881
-0.0527902
-0.0322562
-0.014176
0.0145456
0.0535417
0.0851682
0.103794
0.110853
0.112992
0.112256
0.0452708
0.0430759
0.0352676
0.0179453
-0.00891851
-0.0359603
-0.0553713
-0.0644991
-0.0634179
-0.0544603
-0.0458512
-0.0419531
-0.0369122
-0.0176671
0.00495243
0.022114
0.0306491
0.0333335
0.0336689
0.0330609
0.121555
0.119947
0.113078
0.0961974
0.0685462
0.0371299
0.00890266
-0.012054
-0.0242224
-0.0298644
-0.036134
-0.0482547
-0.0550275
-0.0373724
-0.0191013
-0.0103062
-0.0077841
-0.00838209
-0.00895311
-0.00953855
0.143761
0.142517
0.137131
0.123664
0.101113
0.0738941
0.0468444
0.0235224
0.00578768
-0.00767777
-0.0225135
-0.0426894
-0.0556154
-0.0402765
-0.0255706
-0.0205575
-0.0210447
-0.0229811
-0.0238825
-0.0242659
0.141216
0.140331
0.136533
0.12693
0.110534
0.0897392
0.0674945
0.0466521
0.0289313
0.0140122
-0.00167723
-0.0220082
-0.0334422
-0.0201931
-0.0107747
-0.009075
-0.0118039
-0.0142503
-0.0151818
-0.0155129
0.129739
0.129187
0.126725
0.120345
0.109149
0.0943599
0.077756
0.0615319
0.0473288
0.035751
0.0254235
0.0132424
0.00886909
0.0193591
0.023386
0.020754
0.0153044
0.0117413
0.0105602
0.0102822
0.115975
0.115686
0.114222
0.110243
0.103011
0.09315
0.0817922
0.0706079
0.0614203
0.0561263
0.0556029
0.0572873
0.0630035
0.0721658
0.0680398
0.0607745
0.054242
0.0508874
0.0498473
0.0495136
0.102081
0.102005
0.10125
0.098986
0.0946524
0.0885883
0.0816144
0.0751763
0.0712056
0.0728701
0.083956
0.101962
0.123573
0.126516
0.115433
0.104772
0.0982183
0.0960116
0.0951842
0.0946112
0.0886611
0.0886565
0.0883738
0.0872907
0.0850336
0.0818017
0.0782494
0.0756424
0.0761414
0.083844
0.104087
0.134544
0.162981
0.163076
0.149297
0.139687
0.136891
0.136218
0.135617
0.134599
0.0755064
0.0755671
0.0755683
0.0752829
0.0744646
0.0732268
0.0721086
0.0722645
0.0758119
0.0870463
0.111356
0.145271
0.174749
0.173667
0.162037
0.156959
0.156384
0.157776
0.15772
0.156517
0.062558
0.0626448
0.0628009
0.062992
0.0631072
0.0631645
0.0635873
0.0653405
0.0702572
0.0821654
0.105226
0.135116
0.159283
0.156273
0.150026
0.150398
0.154257
0.157178
0.15692
0.155743
0.0498446
0.0499155
0.0501374
0.0505781
0.0511883
0.0519529
0.0531463
0.055478
0.0603205
0.0703838
0.0879774
0.109198
0.123065
0.120937
0.121417
0.12737
0.134295
0.137861
0.137758
0.136653
0.0374547
0.0375043
0.0377025
0.0381897
0.0389586
0.0399687
0.041353
0.0435591
0.0472751
0.0540688
0.0635437
0.0717785
0.0744274
0.0732648
0.0806563
0.0915945
0.100698
0.104711
0.105045
0.104144
0.0254568
0.0254716
0.0256107
0.0260207
0.0267066
0.0276355
0.0288184
0.0303061
0.0327336
0.0359602
0.0372282
0.0319507
0.0198717
0.0185336
0.0345033
0.0511371
0.0613668
0.064707
0.0649016
0.064319
0.0138348
0.013821
0.0138851
0.0141492
0.0146049
0.0152015
0.0159265
0.0169741
0.0180446
0.0188173
0.0154089
0.00014342
-0.0160699
-0.013936
0.00370178
0.0190809
0.0257481
0.0278237
0.0278619
0.0275629
0.00280354
0.00278798
0.00278412
0.00277006
0.00281178
0.00298898
0.00318063
0.00333957
0.00352703
0.00366362
0.00303675
-0.000709609
-0.00683606
-0.00666737
-0.00341633
-0.00023244
-0.00249226
-0.0024842
0.000390935
0.00195537
-0.0218556
0.145746
0.341689
0.512659
0.649563
0.757744
0.847394
0.923619
0.958186
0.934889
0.282915
0.40422
0.534782
0.647747
0.743101
0.822124
0.886115
0.931511
0.954239
0.966292
0.503141
0.586413
0.675674
0.7546
0.822529
0.879378
0.924579
0.957593
0.981434
0.999399
0.664817
0.724345
0.786487
0.843893
0.893857
0.93629
0.971134
0.998922
1.02179
1.04008
0.790885
0.834251
0.88044
0.924466
0.963359
0.997327
1.02639
1.05058
1.07101
1.08884
0.895598
0.928624
0.966888
1.00258
1.03533
1.06468
1.09033
1.11188
1.12977
1.14711
0.988392
1.01717
1.05125
1.08347
1.1135
1.14074
1.16454
1.1843
1.19983
1.21691
1.07713
1.10639
1.14046
1.17256
1.20222
1.22884
1.25174
1.27026
1.28365
1.30068
1.17254
1.20578
1.24246
1.27608
1.30615
1.33237
1.35434
1.37164
1.38352
1.40092
1.28759
1.32544
1.36411
1.39838
1.42774
1.4525
1.47289
1.48879
1.50027
1.51834
1.43257
1.47112
1.50728
1.53798
1.56367
1.58578
1.60484
1.62038
1.63281
1.65081
1.60767
1.6393
1.66548
1.68794
1.70792
1.72665
1.74437
1.76086
1.77621
1.79428
1.7963
1.8135
1.82854
1.84478
1.86069
1.87522
1.88843
1.90236
1.9199
1.94006
1.97802
1.98756
1.99911
2.00992
2.0192
2.02879
2.03957
2.05094
2.06231
2.07766
2.18527
2.18893
2.17398
2.15917
2.1529
2.15857
2.17706
2.20737
2.23954
2.2662
2.49158
2.35672
2.28008
2.23771
2.22028
2.22425
2.25165
2.30806
2.41068
2.63505
0.791088
0.788959
0.784475
0.775848
0.76362
0.751486
0.74125
0.733345
0.727714
0.724443
0.724065
0.726782
0.731868
0.739076
0.748454
0.759986
0.772632
0.783663
0.789773
0.792825
0.715548
0.721394
0.727726
0.732215
0.734681
0.734351
0.731606
0.727786
0.724262
0.721983
0.721812
0.723986
0.727629
0.731902
0.735697
0.737572
0.736629
0.733143
0.727977
0.721356
0.707132
0.709428
0.71283
0.715822
0.717892
0.719381
0.720127
0.719799
0.718758
0.717854
0.718003
0.719402
0.721195
0.722483
0.722649
0.721748
0.720191
0.717849
0.714581
0.711659
0.701636
0.702722
0.704552
0.706925
0.708943
0.710362
0.711372
0.71211
0.712493
0.712691
0.713151
0.713927
0.714498
0.714542
0.714112
0.71325
0.71177
0.709678
0.707586
0.706201
0.696451
0.697114
0.698219
0.699918
0.701692
0.703314
0.704597
0.705597
0.706457
0.707218
0.707911
0.708424
0.708585
0.708391
0.707802
0.706729
0.705287
0.703734
0.702409
0.701627
0.691499
0.69196
0.692743
0.694034
0.695512
0.697017
0.698467
0.699745
0.700854
0.701875
0.702746
0.703267
0.70337
0.703062
0.702337
0.701325
0.700181
0.699036
0.698112
0.697593
0.6867
0.687045
0.687653
0.688714
0.689997
0.691357
0.692777
0.694199
0.695541
0.696779
0.697835
0.698467
0.698592
0.698273
0.697638
0.696832
0.695957
0.695074
0.694391
0.694011
0.682002
0.68227
0.68276
0.68366
0.684818
0.686098
0.68747
0.68893
0.690433
0.691902
0.693183
0.693979
0.694214
0.694038
0.693599
0.693001
0.692322
0.691661
0.691157
0.690867
0.677324
0.677537
0.677944
0.678734
0.679809
0.681038
0.682397
0.683898
0.685523
0.687217
0.688767
0.689803
0.690259
0.690306
0.690083
0.689694
0.689211
0.688735
0.688369
0.688141
0.672583
0.672755
0.673103
0.673819
0.674846
0.67605
0.677432
0.679009
0.680779
0.682711
0.684581
0.685949
0.686703
0.687017
0.687028
0.686853
0.686569
0.686257
0.686003
0.685822
0.667692
0.667831
0.668138
0.668808
0.669816
0.671041
0.672484
0.674177
0.676144
0.678365
0.680627
0.68241
0.683525
0.684147
0.684422
0.684472
0.684382
0.684226
0.684067
0.683921
0.662567
0.662679
0.662958
0.663608
0.664632
0.665923
0.667471
0.669335
0.671565
0.674157
0.676904
0.679185
0.680722
0.681697
0.682268
0.682557
0.682664
0.682664
0.682588
0.68247
0.657118
0.657207
0.657468
0.658123
0.6592
0.660599
0.662306
0.664408
0.666979
0.670046
0.673391
0.676268
0.678303
0.679684
0.680585
0.681154
0.681475
0.681618
0.681613
0.681517
0.651243
0.651311
0.651565
0.652247
0.653415
0.654968
0.656898
0.659317
0.662323
0.665986
0.670066
0.673661
0.676288
0.678145
0.679422
0.6803
0.680857
0.681153
0.681216
0.681138
0.64482
0.644868
0.645124
0.645855
0.647153
0.648915
0.651139
0.653962
0.657519
0.661916
0.666892
0.671361
0.674696
0.67712
0.678838
0.680057
0.680886
0.681346
0.681477
0.681414
0.637705
0.637734
0.637995
0.638798
0.640271
0.642308
0.644911
0.648252
0.652504
0.65781
0.66388
0.669398
0.673579
0.676667
0.678905
0.680529
0.681666
0.682303
0.682501
0.682451
0.629718
0.629735
0.629995
0.630896
0.632596
0.634973
0.638064
0.642064
0.647192
0.653631
0.661036
0.667811
0.672991
0.676862
0.679715
0.681823
0.68331
0.684141
0.684407
0.684368
0.620555
0.62054
0.620861
0.621897
0.623881
0.626706
0.630422
0.635256
0.641481
0.649317
0.658345
0.666628
0.672995
0.67779
0.681368
0.684051
0.685939
0.686984
0.687323
0.687292
0.609947
0.609906
0.610271
0.611497
0.613844
0.617246
0.621756
0.627646
0.635245
0.644809
0.655808
0.665891
0.67366
0.67955
0.683986
0.687333
0.689688
0.690973
0.691387
0.691362
0.597425
0.597357
0.597797
0.599269
0.602095
0.606253
0.611793
0.619045
0.628388
0.64009
0.653469
0.66569
0.675097
0.68226
0.687696
0.691813
0.694701
0.696246
0.696734
0.696709
0.582355
0.582258
0.58282
0.584637
0.588101
0.593266
0.600176
0.609214
0.620799
0.635173
0.651413
0.666115
0.677405
0.686026
0.692627
0.69762
0.701103
0.702921
0.703478
0.70345
0.563813
0.563687
0.564443
0.566765
0.571133
0.577702
0.586485
0.597902
0.612358
0.630011
0.649649
0.667237
0.680682
0.690958
0.698871
0.70486
0.708997
0.711091
0.711704
0.711665
0.540414
0.54027
0.541354
0.544459
0.55018
0.558801
0.57024
0.584901
0.603092
0.624796
0.648414
0.669238
0.685058
0.697159
0.706508
0.713619
0.718434
0.720783
0.721426
0.721367
0.509852
0.509728
0.511416
0.515882
0.523875
0.535695
0.551041
0.570163
0.593133
0.619704
0.64787
0.672268
0.690649
0.704719
0.715609
0.723909
0.72937
0.731913
0.732545
0.732454
0.468001
0.468037
0.471064
0.478379
0.49057
0.507611
0.528733
0.553859
0.582783
0.615048
0.648256
0.676464
0.697515
0.713612
0.726128
0.735629
0.741618
0.744224
0.744787
0.744654
0.40716
0.408337
0.415765
0.429434
0.449324
0.47469
0.50396
0.536747
0.572736
0.611366
0.649927
0.682014
0.705729
0.723815
0.737875
0.748411
0.754756
0.757208
0.757596
0.757423
0.334692
0.336425
0.350675
0.374229
0.404927
0.440138
0.478319
0.519305
0.562902
0.608611
0.653469
0.690467
0.717758
0.738521
0.754561
0.766372
0.77306
0.775473
0.775864
0.775789
0.259776
0.265897
0.286972
0.320666
0.361674
0.406454
0.453528
0.502785
0.554108
0.60704
0.658406
0.700513
0.731505
0.755165
0.773443
0.786352
0.793072
0.795199
0.795438
0.795428
0.198517
0.206927
0.232585
0.273274
0.32231
0.375247
0.430339
0.487332
0.54602
0.605902
0.663493
0.710414
0.744823
0.770982
0.790997
0.804869
0.81166
0.813701
0.814214
0.814285
0.14864
0.157644
0.186849
0.232762
0.287903
0.347414
0.409283
0.473108
0.538518
0.604897
0.668369
0.719819
0.757396
0.785877
0.807531
0.822404
0.829725
0.832326
0.832952
0.833057
0.106768
0.11606
0.147728
0.197647
0.257789
0.322762
0.390374
0.460166
0.531611
0.603957
0.67291
0.728595
0.769137
0.799816
0.823154
0.839077
0.847207
0.850175
0.8509
0.851009
0.0705641
0.0799828
0.113517
0.166646
0.230912
0.300542
0.373156
0.448227
0.525119
0.602945
0.676996
0.736627
0.77992
0.81257
0.837317
0.854232
0.863116
0.866362
0.86718
0.867282
0.0383868
0.047861
0.0828333
0.138671
0.206396
0.280033
0.357069
0.436884
0.518755
0.601665
0.680502
0.743832
0.789642
0.824035
0.849978
0.867679
0.877143
0.880731
0.881601
0.88171
0.00898535
0.0185201
0.0546693
0.112844
0.18355
0.260687
0.341649
0.425761
0.512219
0.599903
0.683296
0.750146
0.798293
0.83427
0.861238
0.879548
0.889431
0.893232
0.894157
0.894254
-0.0184823
-0.00888689
0.0283293
0.0884936
0.161854
0.242085
0.326555
0.414572
0.505283
0.597488
0.685281
0.755545
0.80594
0.843387
0.871251
0.88996
0.900029
0.904009
0.904974
0.905046
-0.0445744
-0.0348845
0.0033276
0.065184
0.140936
0.223921
0.311551
0.403128
0.49779
0.594294
0.686374
0.760028
0.812664
0.851528
0.880125
0.899089
0.909242
0.913288
0.914269
0.914333
-0.069755
-0.0598708
-0.0208065
0.0426801
0.120542
0.20599
0.29647
0.391296
0.489635
0.590228
0.686514
0.763614
0.818566
0.858856
0.88811
0.907271
0.91748
0.921514
0.922459
0.922459
-0.0942464
-0.0841267
-0.0442759
0.0207869
0.100516
0.188165
0.281215
0.379007
0.480748
0.585229
0.685665
0.766318
0.823735
0.865512
0.8954
0.914711
0.924923
0.928897
0.929787
0.929774
-0.118137
-0.107791
-0.0670829
-0.000646695
0.080769
0.170394
0.265747
0.366227
0.471104
0.579253
0.683787
0.768154
0.828235
0.871606
0.902147
0.921592
0.931749
0.935594
0.93639
0.936342
-0.141551
-0.130885
-0.0894161
-0.0216723
0.0612651
0.152655
0.250064
0.352965
0.460709
0.572297
0.68085
0.769098
0.832102
0.87725
0.908513
0.928037
0.93802
0.941655
0.942317
0.942221
-0.164457
-0.153497
-0.11126
-0.0423096
0.0420086
0.134969
0.234209
0.339268
0.449597
0.564364
0.676823
0.769097
0.835334
0.882542
0.914666
0.934196
0.94382
0.947106
0.947602
0.947464
-0.186892
-0.17561
-0.132557
-0.062529
0.0230308
0.117378
0.218229
0.325202
0.437831
0.555491
0.671683
0.768077
0.837865
0.887548
0.920816
0.940291
0.949277
0.952006
0.952293
0.952121
-0.208669
-0.197137
-0.153298
-0.0822799
0.00438687
0.0999569
0.202199
0.310843
0.425492
0.545744
0.665419
0.765948
0.839591
0.892268
0.927189
0.946694
0.954668
0.956453
0.956414
0.956217
-0.229927
-0.218036
-0.173458
-0.101536
-0.0138862
0.0827512
0.186214
0.296278
0.412672
0.535211
0.658046
0.762607
0.84035
0.896585
0.933923
0.953967
0.960671
0.960818
0.960035
0.959795
-0.250496
-0.238279
-0.193003
-0.120245
-0.0317061
0.0658487
0.170358
0.28163
0.399486
0.523963
0.649608
0.757957
0.839944
0.900233
0.940888
0.962653
0.968622
0.96644
0.96373
0.962631
-0.270435
-0.257905
-0.211875
-0.138354
-0.049033
0.0493204
0.154716
0.266982
0.386047
0.512141
0.64018
0.751911
0.838155
0.902808
0.947498
0.97264
0.980009
0.97663
0.969932
0.961106
-0.289658
-0.276873
-0.230171
-0.156015
-0.0660765
0.0328859
0.138951
0.251927
0.3719
0.499232
0.629217
0.743885
0.834443
0.903846
0.952908
0.982918
0.994915
0.992622
0.982507
0.976297
-0.308114
-0.295101
-0.247882
-0.173193
-0.0828329
0.0165466
0.123079
0.236448
0.357004
0.485122
0.61653
0.733515
0.828073
0.902568
0.955
0.988692
1.00324
1.00568
0.968169
0.915982
-0.32551
-0.311803
-0.264881
-0.189811
-0.0994055
0.000154488
0.107054
0.220663
0.341417
0.469875
0.602052
0.720592
0.818004
0.898448
0.951594
0.980172
0.994908
0.978848
0.922471
0.859897
-0.342174
-0.327537
-0.281032
-0.205161
-0.115382