/*--------------------------------*- C++ -*----------------------------------*\
  =========                 |
  \\      /  F ield         | OpenFOAM: The Open Source CFD Toolbox
   \\    /   O peration     | Website:  https://openfoam.org
    \\  /    A nd           | Version:  7
     \\/     M anipulation  |
\*---------------------------------------------------------------------------*/
FoamFile
{
    version     2.0;
    format      ascii;
    class       volScalarField;
    location    "10";
    object      p;
}
// * * * * * * * * * * * * * * * * * * * * * * * * * * * * * * * * * * * * * //

dimensions      [1 -1 -2 0 0 0 0];

internalField   nonuniform List<scalar> 
19968
(
1
1
1
1
1
1
1
1
1
1
1
1
1
1
1
1
1
1
1
1
1
1
1
1
1
1
1
1
1
1
1
1
1
1
1
1
1
1
1
1
1
1
1
1
1
1
1
1
1.59867
8.11551
10.4129
10.4409
10.5058
10.5661
10.6298
10.6907
10.7495
10.8046
10.8568
10.9087
10.9618
11.0166
11.07
11.1199
11.1676
11.2144
11.2599
11.3034
11.3457
11.3872
11.4277
11.4665
11.5038
11.5403
11.5775
11.6165
11.6566
11.6953
11.7301
11.7599
11.7863
11.812
11.8396
11.8696
11.9001
11.928
11.9501
11.9655
11.9753
11.9824
11.9895
11.9991
12.0119
12.0264
12.0399
12.0499
1
1
1
1
1
1
1
1
1
1
1
1
1
1
1
1
1
1
1
1
1
1
1
1
1
1
1
1
1
1
1
1
1
1
1
1
1
1
1
1
1
1
1
1
1
1
1
1
1.56146
8.03559
10.402
10.4446
10.5067
10.568
10.631
10.6901
10.747
10.8011
10.8532
10.9054
10.9581
11.0124
11.0653
11.1157
11.1638
11.2108
11.2563
11.3
11.3426
11.3847
11.4255
11.4647
11.5022
11.5386
11.5752
11.6132
11.652
11.6895
11.7237
11.7536
11.7807
11.8073
11.8354
11.8654
11.8956
11.9229
11.9447
11.9599
11.9699
11.9769
11.9838
11.993
12.0051
12.019
12.032
12.0416
1
1
1
1
1
1
1
1
1
1
1
1
1
1
1
1
1
1
1
1
1
1
1
1
1
1
1
1
1
1
1
1
1
1
1
1
1
1
1
1
1
1
1
1
1
1
1
1
1.4802
7.87009
10.4036
10.4356
10.5009
10.5629
10.6255
10.6835
10.7397
10.7935
10.8456
10.8982
10.9504
11.0042
11.0567
11.1073
11.1558
11.2028
11.2483
11.2921
11.3353
11.3781
11.4197
11.4595
11.4973
11.5337
11.5699
11.6067
11.6438
11.6797
11.7128
11.7426
11.7705
11.7981
11.8271
11.8572
11.8869
11.9136
11.9351
11.9506
11.9611
11.9685
11.9754
11.984
11.9953
12.0082
12.0204
12.0295
1
1
1
1
1
1
1
1
1
1
1
1
1
1
1
1
1
1
1
1
1
1
1
1
1
1
1
1
1
1
1
1
1
1
1
1
1
1
1
1
1
1
1
1
1
1
1
1
1.36967
7.61271
10.3957
10.4291
10.4938
10.5555
10.6172
10.675
10.731
10.7849
10.837
10.8896
10.941
10.994
11.0458
11.0966
11.1453
11.1921
11.2374
11.2814
11.3253
11.3689
11.4113
11.4516
11.4897
11.5261
11.5614
11.5966
11.6316
11.6655
11.6973
11.7271
11.7557
11.7845
11.8142
11.8442
11.8729
11.8984
11.9191
11.9345
11.9453
11.9531
11.9602
11.9685
11.9792
11.9912
12.0027
12.0114
1
1
1
1
1
1
1
1
1
1
1
1
1
1
1
1
1
1
1
1
1
1
1
1
1
1
1
1
1
1
1
1
1
1
1
1
1
1
1
1
1
1
1
1
1
1
1
1
1.23371
7.27137
10.3966
10.4237
10.4862
10.5482
10.6088
10.6663
10.722
10.7759
10.8278
10.8802
10.9306
10.9823
11.0331
11.0837
11.1325
11.1793
11.2242
11.2682
11.3123
11.3565
11.3996
11.4406
11.479
11.5152
11.5499
11.5836
11.6167
11.6488
11.6797
11.7094
11.7388
11.7687
11.7992
11.8292
11.8572
11.8815
11.9011
11.9157
11.926
11.9332
11.9393
11.9462
11.9551
11.9653
11.9752
11.983
1
1
1
1
1
1
1
1
1
1
1
1
1
1
1
1
1
1
1
1
1
1
1
1
1
1
1
1
1
1
1
1
1
1
1
1
1
1
1
1
1
1
1
1
1
1
1
1
1.01368
6.72618
10.4
10.4346
10.4836
10.5451
10.6039
10.6613
10.7166
10.7708
10.823
10.8746
10.9235
10.9728
11.0216
11.071
11.1193
11.1653
11.2091
11.2516
11.2945
11.3379
11.3807
11.4215
11.4594
11.4948
11.5282
11.5603
11.5916
11.6221
11.6519
11.6812
11.7108
11.7413
11.7721
11.8021
11.8296
11.8532
11.8724
11.8872
11.8979
11.9057
11.912
11.9186
11.9266
11.9357
11.9444
11.9514
1
1
1
1
1
1
1
1
1
1
1
1
1
1
1
1
1
1
1
1
1
1
1
1
1
1
1
1
1
1
1
1
1
1
1
1
1
1
1
1
1
1
1
1
1
1
1
1
1.00007
5.98946
10.2978
10.3876
10.4353
10.5012
10.562
10.6225
10.6805
10.7364
10.7897
10.841
10.8894
10.9376
10.9856
11.0349
11.0833
11.129
11.1721
11.2136
11.2562
11.2996
11.3429
11.3842
11.4223
11.4574
11.4903
11.5218
11.5527
11.5832
11.613
11.6425
11.6723
11.7027
11.7336
11.7634
11.7904
11.8136
11.8324
11.847
11.8581
11.8662
11.8727
11.8789
11.886
11.894
11.9015
11.9079
1
1
1
1
1
1
1
1
1
1
1
1
1
1
1
1
1
1
1
1
1
1
1
1
1
1
1
1
1
1
1
1
1
1
1
1
1
1
1
1
1
1
1
1
1
1
1
1
1
5.07077
10.147
10.3532
10.4042
10.4708
10.5337
10.5971
10.6574
10.7142
10.7674
10.8167
10.8629
10.9086
10.9551
11.0036
11.0515
11.0964
11.1382
11.178
11.2192
11.262
11.3051
11.3462
11.3838
11.4179
11.4496
11.4801
11.5102
11.5403
11.5701
11.5994
11.6289
11.6587
11.6887
11.7176
11.7436
11.7658
11.7838
11.7981
11.8091
11.8173
11.8239
11.8298
11.8361
11.8432
11.8496
11.8553
1
1
1
1
1
1
1
1
1
1
1
1
1
1
1
1
1
1
1
1
1
1
1
1
1
1
1
1
1
1
1
1
1
1
1
1
1
1
1
1
1
1
1
1
1
1
1
1
1
4.02833
9.85725
10.3061
10.3632
10.4329
10.4985
10.5643
10.6263
10.6832
10.7357
10.7837
10.8286
10.8725
10.9176
10.9652
11.0119
11.0552
11.095
11.1323
11.1712
11.2124
11.2543
11.2945
11.3309
11.3635
11.3936
11.4229
11.4522
11.482
11.5117
11.541
11.5698
11.5986
11.6271
11.6543
11.679
11.7001
11.7175
11.7316
11.7429
11.7518
11.7589
11.7651
11.7712
11.7778
11.7833
11.7886
1
1
1
1
1
1
1
1
1
1
1
1
1
1
1
1
1
1
1
1
1
1
1
1
1
1
1
1
1
1
1
1
1
1
1
1
1
1
1
1
1
1
1
1
1
1
1
1
1
2.92315
9.3365
10.2815
10.3414
10.4139
10.4764
10.5391
10.599
10.6535
10.704
10.7509
10.7943
10.8364
10.8795
10.9253
10.9703
11.0116
11.0499
11.0854
11.1219
11.1605
11.2001
11.2382
11.2722
11.3021
11.3293
11.3556
11.3825
11.4103
11.4388
11.4671
11.495
11.5226
11.5495
11.5752
11.5983
11.6182
11.6348
11.6484
11.6595
11.6681
11.6748
11.6805
11.6857
11.6915
11.696
11.7005
1
1
1
1
1
1
1
1
1
1
1
1
1
1
1
1
1
1
1
1
1
1
1
1
1
1
1
1
1
1
1
1
1
1
1
1
1
1
1
1
1
1
1
1
1
1
1
1
1
1.86843
8.40518
10.3182
10.3185
10.3863
10.4357
10.4929
10.5518
10.6074
10.6586
10.7061
10.7489
10.7898
10.8315
10.8762
10.9206
10.9615
10.9993
11.0341
11.0688
11.1051
11.1421
11.1778
11.2101
11.238
11.2626
11.2857
11.3089
11.3331
11.3581
11.3832
11.4078
11.4317
11.4544
11.4756
11.4944
11.5106
11.5244
11.5364
11.5468
11.5556
11.563
11.5692
11.5747
11.5807
11.5852
11.5896
1
1
1
1
1
1
1
1
1
1
1
1
1
1
1
1
1
1
1
1
1
1
1
1
1
1
1
1
1
1
1
1
1
1
1
1
1
1
1
1
1
1
1
1
1
1
1
1
1
1.03483
6.74964
10.3504
10.3576
10.3979
10.4374
10.4819
10.5297
10.5767
10.6216
10.6655
10.7056
10.743
10.7804
10.8203
10.8607
10.8987
10.9341
10.9671
10.9983
11.0303
11.0628
11.0946
11.1243
11.1502
11.1725
11.1927
11.2125
11.2329
11.2543
11.2764
11.2984
11.3196
11.3395
11.3576
11.3736
11.3872
11.3987
11.408
11.4152
11.4199
11.4221
11.4225
11.4227
11.4248
11.4272
11.4301
1
1
1
1
1
1
1
1
1
1
1
1
1
1
1
1
1
1
1
1
1
1
1
1
1
1
1
1
1
1
1
1
1
1
1
1
1
1
1
1
1
1
1
1
1
1
1
1
1
1.00006
4.63607
9.93412
10.199
10.2609
10.32
10.3729
10.4251
10.4753
10.522
10.5659
10.606
10.6424
10.6782
10.7158
10.7545
10.7924
10.8281
10.8612
10.8917
10.921
10.9503
10.9792
11.0072
11.0326
11.0547
11.074
11.0912
11.1074
11.1238
11.1408
11.158
11.1745
11.1891
11.2012
11.2103
11.2165
11.2198
11.2205
11.2198
11.2181
11.2165
11.2157
11.2158
11.2194
11.2233
11.2274
1
1
1
1
1
1
1
1
1
1
1
1
1
1
1
1
1
1
1
1
1
1
1
1
1
1
1
1
1
1
1
1
1
1
1
1
1
1
1
1
1
1
1
1
1
1
1
1
1
1
2.40392
8.81326
10.1462
10.1961
10.2701
10.3224
10.3703
10.4169
10.4626
10.5056
10.5445
10.5784
10.6103
10.6429
10.6768
10.711
10.7439
10.7739
10.8008
10.8247
10.8472
10.8695
10.8916
10.913
10.9321
10.9483
10.961
10.9706
10.9786
10.9866
10.995
11.0036
11.0109
11.016
11.0186
11.0186
11.016
11.0112
11.0036
10.9933
10.9793
10.9627
10.942
10.9205
10.8991
10.8809
1
1
1
1
1
1
1
1
1
1
1
1
1
1
1
1
1
1
1
1
1
1
1
1
1
1
1
1
1
1
1
1
1
1
1
1
1
1
1
1
1
1
1
1
1
1
1
1
1
1
1.05943
6.41898
10.2197
10.2346
10.257
10.2884
10.3178
10.3505
10.3865
10.4233
10.4584
10.4894
10.5176
10.545
10.5728
10.601
10.629
10.6552
10.6784
10.6978
10.7134
10.7277
10.7423
10.7578
10.7726
10.7854
10.7946
10.7988
10.7977
10.7947
10.7914
10.7881
10.7837
10.7772
10.7669
10.7522
10.7312
10.7022
10.6639
10.6167
10.5631
10.5085
10.4636
10.4272
10.4104
10.4044
1
1
1
1
1
1
1
1
1
1
1
1
1
1
1
1
1
1
1
1
1
1
1
1
1
1
1
1
1
1
1
1
1
1
1
1
1
1
1
1
1
1
1
1
1
1
1
1
1
1
1.00009
3.32732
9.26513
10.0538
10.1058
10.1529
10.1898
10.2251
10.2614
10.3
10.3388
10.3744
10.4055
10.433
10.4579
10.4814
10.5039
10.5252
10.5442
10.5596
10.5706
10.5775
10.5819
10.5861
10.5911
10.597
10.6021
10.6006
10.5914
10.5763
10.5573
10.5357
10.5123
10.4866
10.4573
10.4225
10.3792
10.3249
10.2591
10.1851
10.1069
10.0285
9.9393
9.85546
9.74128
9.83122
1
1
1
1
1
1
1
1
1
1
1
1
1
1
1
1
1
1
1
1
1
1
1
1
1
1
1
1
1
1
1
1
1
1
1
1
1
1
1
1
1
1
1
1
1
1
1
1
1
1
1
1.25025
7.34248
10.083
10.0646
10.0884
10.1215
10.1521
10.1838
10.2171
10.2512
10.2833
10.3118
10.3362
10.3566
10.3741
10.3891
10.4029
10.4161
10.4278
10.436
10.4367
10.4321
10.4248
10.4185
10.4149
10.4122
10.4045
10.3885
10.3638
10.3308
10.291
10.2466
10.1985
10.1455
10.0848
10.0105
9.91698
9.79681
9.64741
9.4528
9.19858
8.82113
8.26017
7.33072
5.43246
1
1
1
1
1
1
1
1
1
1
1
1
1
1
1
1
1
1
1
1
1
1
1
1
1
1
1
1
1
1
1
1
1
1
1
1
1
1
1
1
1
1
1
1
1
1
1
1
1
1
1
1.00221
4.65383
9.58992
9.94754
9.9902
10.0263
10.0519
10.0779
10.1065
10.1375
10.1682
10.197
10.2227
10.2441
10.2612
10.274
10.2841
10.2933
10.3017
10.3075
10.306
10.2983
10.2849
10.2698
10.2561
10.2432
10.2268
10.2035
10.171
10.1277
10.074
10.0116
9.94232
9.86464
9.77682
9.66989
9.53904
9.3682
9.15694
8.87609
8.51723
8.00113
7.32434
6.10625
4.5022
1
1
1
1
1
1
1
1
1
1
1
1
1
1
1
1
1
1
1
1
1
1
1
1
1
1
1
1
1
1
1
1
1
1
1
1
1
1
1
1
1
1
1
1
1
1
1
1
1
1
1
0.999995
1.93853
8.15868
9.9333
9.92535
9.96571
9.99375
10.0148
10.0354
10.0603
10.0863
10.1113
10.1338
10.1526
10.167
10.1752
10.18
10.1829
10.185
10.1842
10.1779
10.1654
10.1468
10.125
10.1023
10.0785
10.0509
10.0167
9.97327
9.91826
9.85131
9.77239
9.68374
9.58163
9.46644
9.32777
9.16266
8.95408
8.69672
8.36977
7.94873
7.40931
6.65459
5.65334
4.52369
1
1
1
1
1
1
1
1
1
1
1
1
1
1
1
1
1
1
1
1
1
1
1
1
1
1
1
1
1
1
1
1
1
1
1
1
1
1
1
1
1
1
1
1
1
1
1
1
1
1
1
0.999999
1.03269
5.37763
9.75967
9.84236
9.87553
9.90818
9.93352
9.95394
9.97703
9.99857
10.0184
10.0362
10.0521
10.0643
10.0693
10.0699
10.0672
10.0624
10.0548
10.042
10.0233
9.99916
9.97152
9.9425
9.91081
9.87401
9.82907
9.77402
9.70626
9.62662
9.53352
9.42931
9.30805
9.16947
9.00536
8.81235
8.57977
8.29704
7.95384
7.52248
6.98675
6.33661
5.5595
4.72952
1
1
1
1
1
1
1
1
1
1
1
1
1
1
1
1
1
1
1
1
1
1
1
1
1
1
1
1
1
1
1
1
1
1
1
1
1
1
1
1
1
1
1
1
1
1
1
1
1
1
1
1
1.00001
2.17212
8.39622
9.84241
9.81761
9.8478
9.86833
9.88303
9.90002
9.91616
9.93044
9.94342
9.95506
9.96141
9.96052
9.95546
9.94763
9.93821
9.92656
9.91008
9.88627
9.85533
9.81962
9.78303
9.74416
9.70018
9.64633
9.58106
9.5013
9.40932
9.30375
9.18671
9.05289
8.89938
8.7202
8.51063
8.26521
7.97502
7.6354
7.22017
6.74048
6.19558
5.58861
4.92868
1
1
1
1
1
1
1
1
1
1
1
1
1
1
1
1
1
1
1
1
1
1
1
1
1
1
1
1
1
1
1
1
1
1
1
1
1
1
1
1
1
1
1
1
1
1
1
1
1
1
1
1
0.999999
1.04491
5.43335
9.69261
9.75741
9.78332
9.7965
9.8083
9.82153
9.83341
9.84257
9.85006
9.85656
9.85954
9.85309
9.84212
9.82784
9.81166
9.79457
9.77535
9.74888
9.71337
9.67106
9.62683
9.58023
9.52934
9.46802
9.39437
9.30498
9.20262
9.08679
8.95904
8.81659
8.65573
8.47138
8.25731
8.01089
7.72442
7.40006
7.02083
6.59794
6.13955
5.64206
5.12757
1
1
1
1
1
1
1
1
1
1
1
1
1
1
1
1
1
1
1
1
1
1
1
1
1
1
1
1
1
1
1
1
1
1
1
1
1
1
1
1
1
1
1
1
1
1
1
1
1
1
1
1
1
1.00004
2.03773
8.21486
9.72789
9.70559
9.71745
9.72477
9.73226
9.73804
9.74237
9.74424
9.74769
9.74982
9.73924
9.7224
9.70231
9.67858
9.65541
9.63328
9.60567
9.56958
9.52489
9.47506
9.42085
9.36229
9.29379
9.21339
9.11805
9.00948
8.88709
8.7514
8.60226
8.43811
8.2553
8.04677
7.81289
7.53632
7.23903
6.89243
6.51711
6.12719
5.70741
5.28199
1
1
1
1
1
1
1
1
1
1
1
1
1
1
1
1
1
1
1
1
1
1
1
1
1
1
1
1
1
1
1
1
1
1
1
1
1
1
1
1
1
1
1
1
1
1
1
1
1
1
1
1
1
1
1.03349
4.90073
9.43079
9.6096
9.62579
9.63808
9.65431
9.66036
9.66196
9.65705
9.65702
9.65723
9.64485
9.62348
9.59701
9.56477
9.53085
9.50013
9.46668
9.42876
9.38363
9.33146
9.27246
9.20693
9.1307
9.04315
8.9434
8.83219
8.70795
8.56906
8.41606
8.24938
8.06831
7.86702
7.64983
7.39097
7.12229
6.80761
6.4792
6.14696
5.77317
5.40329
1
1
1
1
1
1
1
1
1
1
1
1
1
1
1
1
1
1
1
1
1
1
1
1
1
1
1
1
1
1
1
1
1
1
1
1
1
1
1
1
1
1
1
1
1
1
1
1
1
1
1
1
1
1
1.00003
1.54294
7.62378
9.66081
9.60847
9.58992
9.5833
9.57724
9.56854
9.55635
9.55033
9.54541
9.53155
9.50911
9.48144
9.44744
9.40725
9.36936
9.32924
9.28863
9.24314
9.18983
9.12748
9.05703
8.97502
8.88215
8.77934
8.66706
8.54426
8.40748
8.25619
8.0907
7.91371
7.71656
7.51229
7.27616
7.03083
6.75269
6.47129
6.16901
5.82667
5.51096
1
1
1
1
1
1
1
1
1
1
1
1
1
1
1
1
1
1
1
1
1
1
1
1
1
1
1
1
1
1
1
1
1
1
1
1
1
1
1
1
1
1
1
1
1
1
1
1
1
1
1
1
1
1
1
1.00868
3.90171
9.01011
9.40296
9.43978
9.46761
9.46967
9.4625
9.44694
9.43515
9.42496
9.41001
9.39091
9.36717
9.33643
9.29517
9.25091
9.20212
9.15606
9.10721
9.05154
8.98696
8.91419
8.82938
8.73406
8.62938
8.51625
8.39587
8.26414
8.11913
7.95932
7.7883
7.5943
7.39943
7.17995
6.95566
6.7159
6.46193
6.17967
5.88588
5.61253
1
1
1
1
1
1
1
1
1
1
1
1
1
1
1
1
1
1
1
1
1
1
1
1
1
1
1
1
1
1
1
1
1
1
1
1
1
1
1
1
1
1
1
1
1
1
1
1
1
1
1
1
1
1
1
1
1.22086
6.28331
9.35694
9.38909
9.38171
9.37395
9.3697
9.35506
9.33902
9.32481
9.30551
9.28391
9.26063
9.23246
9.19388
9.14669
9.09126
9.0391
8.98335
8.92072
8.85355
8.77991
8.69403
8.59959
8.49524
8.3817
8.26269
8.13445
7.99718
7.8443
7.68214
7.49899
7.31064
7.10512
6.9028
6.68568
6.44097
6.19531
5.94944
5.69623
1
1
1
1
1
1
1
1
1
1
1
1
1
1
1
1
1
1
1
1
1
1
1
1
1
1
1
1
1
1
1
1
1
1
1
1
1
1
1
1
1
1
1
1
1
1
1
1
1
1
1
1
1
1
1
1
1.00148
2.18543
8.01624
9.30326
9.25002
9.26272
9.26383
9.25727
9.24394
9.22911
9.20768
9.18093
9.15381
9.12468
9.08817
9.0421
8.98551
8.93013
8.86828
8.79872
8.72639
8.65145
8.56613
8.47417
8.37242
8.26131
8.14338
8.01739
7.8893
7.74067
7.5881
7.41975
7.24013
7.05215
6.86417
6.65437
6.42892
6.22379
6.00011
5.76213
1
1
1
1
1
1
1
1
1
1
1
1
1
1
1
1
1
1
1
1
1
1
1
1
1
1
1
1
1
1
1
1
1
1
1
1
1
1
1
1
1
1
1
1
1
1
1
1
1
1
1
1
1
1
1
1
1
1.03987
4.17759
8.8826
9.16123
9.1755
9.17802
9.17147
9.15978
9.14637
9.12389
9.09123
9.05739
9.02235
8.9828
8.93669
8.88198
8.82509
8.76371
8.691
8.61485
8.53699
8.45428
8.36347
8.26479
8.15828
8.04265
7.92111
7.79332
7.6513
7.50589
7.34977
7.18426
7.01459
6.83386
6.63532
6.4402
6.25468
6.03728
5.82391
1
1
1
1
1
1
1
1
1
1
1
1
1
1
1
1
1
1
1
1
1
1
1
1
1
1
1
1
1
1
1
1
1
1
1
1
1
1
1
1
1
1
1
1
1
1
1
1
1
1
1
1
1
1
1
1
1
1.00008
1.25793
5.73199
8.99259
9.15152
9.13887
9.12154
9.10017
9.07782
9.05129
9.01482
8.97303
8.93009
8.88401
8.83477
8.78024
8.7223
8.66585
8.59476
8.51934
8.43874
8.35479
8.26448
8.16729
8.06352
7.95433
7.8359
7.70997
7.57683
7.43759
7.29071
7.14024
6.9821
6.80811
6.6323
6.46093
6.28296
6.0848
5.89937
1
1
1
1
1
1
1
1
1
1
1
1
1
1
1
1
1
1
1
1
1
1
1
1
1
1
1
1
1
1
1
1
1
1
1
1
1
1
1
1
1
1
1
1
1
1
1
1
1
1
1
1
1
1
1
1
1
1
1.00209
1.62913
7.23895
9.15656
9.11115
9.06649
9.01782
8.97957
8.94642
8.91237
8.87358
8.83005
8.78484
8.736
8.682
8.62404
8.56829
8.50296
8.42927
8.35063
8.26652
8.17875
8.08222
7.98205
7.87564
7.76323
7.64527
7.52064
7.38827
7.2497
7.10981
6.95713
6.7945
6.64501
6.48885
6.3217
6.15077
5.98699
1
1
1
1
1
1
1
1
1
1
1
1
1
1
1
1
1
1
1
1
1
1
1
1
1
1
1
1
1
1
1
1
1
1
1
1
1
1
1
1
1
1
1
1
1
1
1
1
1
1
1
1
1
1
1
1
1
1
1
1.01138
3.04391
8.31553
8.95282
8.88918
8.85982
8.83681
8.81804
8.79558
8.7673
8.73084
8.68759
8.64249
8.59003
8.53293
8.47789
8.41592
8.34537
8.26961
8.18848
8.10267
8.00764
7.90961
7.80761
7.70235
7.59366
7.47923
7.35599
7.2259
7.09296
6.94767
6.80374
6.67522
6.53184
6.38067
6.23618
6.08973
1
1
1
1
1
1
1
1
1
1
1
1
1
1
1
1
1
1
1
1
1
1
1
1
1
1
1
1
1
1
1
1
1
1
1
1
1
1
1
1
1
1
1
1
1
1
1
1
1
1
1
1
1
1
1
1
1
1
1
1.00002
1.10939
4.37045
8.6023
8.79261
8.76743
8.76802
8.75288
8.72983
8.70081
8.66461
8.62156
8.57684
8.52455
8.46557
8.40704
8.34189
8.27072
8.19584
8.11706
8.03534
7.94577
7.85146
7.75603
7.65709
7.55599
7.44873
7.33413
7.21559
7.09454
6.96836
6.84746
6.73179
6.59861
6.46537
6.34197
6.20762
1
1
1
1
1
1
1
1
1
1
1
1
1
1
1
1
1
1
1
1
1
1
1
1
1
1
1
1
1
1
1
1
1
1
1
1
1
1
1
1
1
1
1
1
1
1
1
1
1
1
1
1
1
1
1
1
1
1
1
1
1.00051
1.29572
5.18746
8.59526
8.72095
8.71991
8.70659
8.67918
8.64573
8.6062
8.56109
8.51351
8.45978
8.40053
8.33845
8.2709
8.19984
8.12648
8.05041
7.97241
7.89092
7.80334
7.71264
7.62204
7.52987
7.43205
7.33339
7.23592
7.13283
7.02646
6.92278
6.81607
6.69155
6.57416
6.46402
6.3367
1
1
1
1
1
1
1
1
1
1
1
1
1
1
1
1
1
1
1
1
1
1
1
1
1
1
1
1
1
1
1
1
1
1
1
1
1
1
1
1
1
1
1
1
1
1
1
1
1
1
1
1
1
1
1
1
1
1
1
1
1
1.00285
1.49026
5.8714
8.59104
8.69639
8.66641
8.63308
8.59537
8.55037
8.50263
8.45415
8.40096
8.34234
8.27911
8.21126
8.1409
8.06961
7.9965
7.92186
7.84661
7.76823
7.6861
7.60761
7.53233
7.45477
7.37809
7.29774
7.20563
7.11473
7.02172
6.91776
6.80136
6.69783
6.59443
6.47104
1
1
1
1
1
1
1
1
1
1
1
1
1
1
1
1
1
1
1
1
1
1
1
1
1
1
1
1
1
1
1
1
1
1
1
1
1
1
1
1
1
1
1
1
1
1
1
1
1
1
1
1
1
1
1
1
1
1
1
1
1
1
1.0072
1.71805
6.45272
8.56676
8.6163
8.58739
8.54421
8.49776
8.44649
8.39463
8.33896
8.27957
8.21669
8.15195
8.08599
8.01951
7.95111
7.88276
7.81854
7.75826
7.69885
7.64077
7.58306
7.52237
7.45966
7.3864
7.30065
7.21967
7.12993
7.02635
6.92105
6.8289
6.72643
6.60744
1
1
1
1
1
1
1
1
1
1
1
1
1
1
1
1
1
1
1
1
1
1
1
1
1
1
1
1
1
1
1
1
1
1
1
1
1
1
1
1
1
1
1
1
1
1
1
1
1
1
1
1
1
1
1
1
1
1
1
1
1
1
1.00001
1.01457
1.97926
6.89138
8.53612
8.54666
8.5077
8.45509
8.40115
8.34422
8.28344
8.22161
8.15935
8.09704
8.03728
7.97722
7.92061
7.8725
7.83191
7.79555
7.75966
7.71933
7.67292
7.6203
7.56214
7.48912
7.40845
7.33313
7.24263
7.14237
7.05167
6.96519
6.8595
6.74794
1
1
1
1
1
1
1
1
1
1
1
1
1
1
1
1
1
1
1
1
1
1
1
1
1
1
1
1
1
1
1
1
1
1
1
1
1
1
1
1
1
1
1
1
1
1
1
1
1
1
1
1
1
1
1
1
1
1
1
1
1
1
1
1.00003
1.02621
2.23859
7.27485
8.49698
8.46111
8.41218
8.34853
8.28843
8.22556
8.16412
8.1039
8.04736
7.99545
7.95464
7.92644
7.90909
7.89751
7.88405
7.86301
7.82925
7.78712
7.73789
7.67755
7.60249
7.52768
7.45424
7.36137
7.2677
7.18849
7.10044
6.99242
6.89158
1
1
1
1
1
1
1
1
1
1
1
1
1
1
1
1
1
1
1
1
1
1
1
1
1
1
1
1
1
1
1
1
1
1
1
1
1
1
1
1
1
1
1
1
1
1
1
1
1
1
1
1
1
1
1
1
1
1
1
1
1
1
1
1
1.00008
1.04129
2.62358
7.50852
8.38764
8.33669
8.29236
8.23173
8.17047
8.11081
8.05871
8.01992
8.00197
7.99854
8.00773
8.01923
8.02453
8.01984
8.00015
7.96323
7.91923
7.8667
7.79879
7.72315
7.65403
7.57841
7.48518
7.40211
7.32895
7.2364
7.13084
7.04156
1
1
1
1
1
1
1
1
1
1
1
1
1
1
1
1
1
1
1
1
1
1
1
1
1
1
1
1
1
1
1
1
1
1
1
1
1
1
1
1
1
1
1
1
1
1
1
1
1
1
1
1
1
1
1
1
1
1
1
1
1
1
1
1
1
1.00015
1.06975
2.90913
7.55966
8.27064
8.21893
8.16232
8.11372
8.07096
8.05034
8.04967
8.07156
8.11506
8.15307
8.17885
8.18773
8.17723
8.14694
8.1018
8.05169
7.99198
7.91786
7.84647
7.78126
7.70147
7.61129
7.5392
7.46651
7.37058
7.27388
7.19416
1
1
1
1
1
1
1
1
1
1
1
1
1
1
1
1
1
1
1
1
1
1
1
1
1
1
1
1
1
1
1
1
1
1
1
1
1
1
1
1
1
1
1
1
1
1
1
1
1
1
1
1
1
1
1
1
1
1
1
1
1
1
1
1
1
1
1.00032
1.09725
3.00578
7.48405
8.157
8.11235
8.07811
8.0665
8.09536
8.16054
8.23576
8.30671
8.35157
8.37681
8.36804
8.33886
8.2931
8.24082
8.18605
8.12068
8.04609
7.98154
7.91644
7.83275
7.74841
7.68263
7.60511
7.50799
7.42182
7.34707
1
1
1
1
1
1
1
1
1
1
1
1
1
1
1
1
1
1
1
1
1
1
1
1
1
1
1
1
1
1
1
1
1
1
1
1
1
1
1
1
1
1
1
1
1
1
1
1
1
1
1
1
1
1
1
1
1
1
1
1
1
1
1
1
1
1
1
1.00055
1.10959
2.94492
7.3616
8.08448
8.08375
8.14626
8.24993
8.37319
8.47324
8.54056
8.57059
8.57656
8.54656
8.50228
8.44539
8.38586
8.32481
8.25251
8.17697
8.11371
8.04583
7.96228
7.88778
7.82528
7.74327
7.64985
7.57327
7.50065
1
1
1
1
1
1
1
1
1
1
1
1
1
1
1
1
1
1
1
1
1
1
1
1
1
1
1
1
1
1
1
1
1
1
1
1
1
1
1
1
1
1
1
1
1
1
1
1
1
1
1
1
1
1
1
1
1
1
1
1
1
1
1
1
1
1
1
1
1.00068
1.10483
2.87459
7.19466
8.17079
8.38071
8.51523
8.66071
8.74081
8.77317
8.76961
8.745
8.69894
8.64129
8.58039
8.52498
8.46568
8.39285
8.32164
8.2593
8.18745
8.10451
8.03345
7.96744
7.88153
7.79545
7.72497
7.65233
1
1
1
1
1
1
1
1
1
1
1
1
1
1
1
1
1
1
1
1
1
1
1
1
1
1
1
1
1
1
1
1
1
1
1
1
1
1
1
1
1
1
1
1
1
1
1
1
1
1
1
1
1
1
1
1
1
1
1
1
1
1
1
1
1
1
1
1
1
1.00064
1.09733
2.74047
7.5915
8.70782
8.85035
8.93875
8.96912
8.96468
8.94001
8.90105
8.84606
8.77718
8.71556
8.66307
8.59729
8.51874
8.45844
8.40412
8.33113
8.25017
8.18372
8.11608
8.03144
7.9534
7.88118
7.80349
1
1
1
1
1
1
1
1
1
1
1
1
1
1
1
1
1
1
1
1
1
1
1
1
1
1
1
1
1
1
1
1
1
1
1
1
1
1
1
1
1
1
1
1
1
1
1
1
1
1
1
1
1
1
1
1
1
1
1
1
1
1
1
1
1
1
1
1
1
1
1.0006
1.0832
3.75111
8.59379
9.18475
9.20081
9.1795
9.1328
9.0878
9.04071
8.98174
8.91433
8.86042
8.81013
8.73868
8.66141
8.60683
8.55276
8.47096
8.38786
8.32692
8.26015
8.17901
8.1078
8.03469
7.95592
1
1
1
1
1
1
1
1
1
1
1
1
1
1
1
1
1
1
1
1
1
1
1
1
1
1
1
1
1
1
1
1
1
1
1
1
1
1
1
1
1
1
1
1
1
1
1
1
1
1
1
1
1
1
1
1
1
1
1
1
1
1
1
1
1
1
1
1
1
1
1
1.00039
1.1993
6.02558
9.51465
9.41749
9.36274
9.30327
9.242
9.17904
9.10909
9.04168
8.99033
8.938
8.86718
8.80192
8.75421
8.70022
8.61939
8.54307
8.48421
8.41374
8.32794
8.25509
8.18272
8.10518
1
1
1
1
1
1
1
1
1
1
1
1
1
1
1
1
1
1
1
1
1
1
1
1
1
1
1
1
1
1
1
1
1
1
1
1
1
1
1
1
1
1
1
1
1
1
1
1
1
1
1
1
1
1
1
1
1
1
1
1
1
1
1
1
1
1
1
1
1
1
1
1
1.00126
2.22851
8.26452
9.55695
9.46505
9.40051
9.3354
9.2762
9.22057
9.17295
9.12672
9.07214
9.00808
8.94795
8.898
8.83581
8.75392
8.68301
8.62566
8.55718
8.47674
8.40786
8.34045
8.26595
1
1
1
1
1
1
1
1
1
1
1
1
1
1
1
1
1
1
1
1
1
1
1
1
1
1
1
1
1
1
1
1
1
1
1
1
1
1
1
1
1
1
1
1
1
1
1
1
1
1
1
1
1
1
1
1
1
1
1
1
1
1
1
1
1
1
1
1
1
1
1
1
1
1.04143
4.98429
9.4259
9.55731
9.49749
9.46121
9.42068
9.37345
9.3235
9.26775
9.21142
9.15604
9.09716
9.03899
8.96844
8.89314
8.82714
8.76785
8.69639
8.61755
8.54948
8.48224
8.41146
1
1
1
1
1
1
1
1
1
1
1
1
1
1
1
1
1
1
1
1
1
1
1
1
1
1
1
1
1
1
1
1
1
1
1
1
1
1
1
1
1
1
1
1
1
1
1
1
1
1
1
1
1
1
1
1
1
1
1
1
1
1
1
1
1
1
1
1
1
1
1
1
1
1.00007
1.67963
7.92822
9.75025
9.66171
9.60233
9.54533
9.49187
9.43895
9.38477
9.32981
9.27155
9.21035
9.14711
9.08187
9.02191
8.96336
8.90057
8.82923
8.75799
8.69276
8.62625
8.55608
1
1
1
1
1
1
1
1
1
1
1
1
1
1
1
1
1
1
1
1
1
1
1
1
1
1
1
1
1
1
1
1
1
1
1
1
1
1
1
1
1
1
1
1
1
1
1
1
1
1
1
1
1
1
1
1
1
1
1
1
1
1
1
1
1
1
1
1
1
1
1
1
1
1
1.01316
4.71366
9.44851
9.69211
9.63708
9.59626
9.55616
9.51374
9.46795
9.42017
9.37012
9.31644
9.26052
9.20322
9.1439
9.08103
9.01688
8.95279
8.89398
8.83222
8.76494
8.69544
1
1
1
1
1
1
1
1
1
1
1
1
1
1
1
1
1
1
1
1
1
1
1
1
1
1
1
1
1
1
1
1
1
1
1
1
1
1
1
1
1
1
1
1
1
1
1
1
1
1
1
1
1
1
1
1
1
1
1
1
1
1
1
1
1
1
1
1
1
1
1
1
1
1
1
1.75449
8.10945
9.8382
9.73953
9.69087
9.65083
9.61156
9.56959
9.52207
9.47133
9.42
9.36731
9.31336
9.25686
9.20011
9.1414
9.08096
9.01901
8.95293
8.88484
8.81876
1
1
1
1
1
1
1
1
1
1
1
1
1
1
1
1
1
1
1
1
1
1
1
1
1
1
1
1
1
1
1
1
1
1
1
1
1
1
1
1
1
1
1
1
1
1
1
1
1
1
1
1
1
1
1
1
1
1
1
1
1
1
1
1
1
1
1
1
1
1
1
1
1
1
1
1.01709
5.38898
9.70013
9.79919
9.75405
9.71842
9.67633
9.63276
9.58676
9.53885
9.49024
9.44001
9.38859
9.33605
9.28265
9.22844
9.17203
9.11253
9.05153
8.9899
8.92938
1
1
1
1
1
1
1
1
1
1
1
1
1
1
1
1
1
1
1
1
1
1
1
1
1
1
1
1
1
1
1
1
1
1
1
1
1
1
1
1
1
1
1
1
1
1
1
1
1
1
1
1
1
1
1
1
1
1
1
1
1
1
1
1
1
1
1
1
1
1
1
1
1
1
1
1
2.46401
8.67697
9.91131
9.84242
9.79603
9.75146
9.70675
9.66177
9.61592
9.56933
9.5215
9.4724
9.42201
9.36844
9.31291
9.25835
9.2023
9.14633
9.08946
9.03174
1
1
1
1
1
1
1
1
1
1
1
1
1
1
1
1
1
1
1
1
1
1
1
1
1
1
1
1
1
1
1
1
1
1
1
1
1
1
1
1
1
1
1
1
1
1
1
1
1
1
1
1
1
1
1
1
1
1
1
1
1
1
1
1
1
1
1
1
1
1
1
1
1
1
1
1
1.07236
6.47226
9.93688
9.95108
9.87329
9.82376
9.77365
9.72489
9.67624
9.62776
9.57876
9.52962
9.47931
9.42829
9.37642
9.32373
9.27009
9.21602
9.16099
9.10461
1
1
1
1
1
1
1
1
1
1
1
1
1
1
1
1
1
1
1
1
1
1
1
1
1
1
1
1
1
1
1
1
1
1
1
1
1
1
1
1
1
1
1
1
1
1
1
1
1
1
1
1
1
1
1
1
1
1
1
1
1
1
1
1
1
1
1
1
1
1
1
1
1
1
1
1
1.00011
3.73272
9.36335
9.94193
9.88787
9.85271
9.81079
9.7676
9.72251
9.67684
9.63007
9.58303
9.53476
9.48623
9.4373
9.38742
9.33701
9.28558
9.23316
9.1796
1
1
1
1
1
1
1
1
1
1
1
1
1
1
1
1
1
1
1
1
1
1
1
1
1
1
1
1
1
1
1
1
1
1
1
1
1
1
1
1
1
1
1
1
1
1
1
1
1
1
1
1
1
1
1
1
1
1
1
1
1
1
1
1
1
1
1
1
1
1
1
1
1
1
1
1
1
1.67135
8.12388
10.0934
9.98049
9.92224
9.87134
9.82474
9.77946
9.73501
9.68967
9.64371
9.59638
9.54853
9.50006
9.45041
9.40054
9.34947
9.29778
9.24523
1
1
1
1
1
1
1
1
1
1
1
1
1
1
1
1
1
1
1
1
1
1
1
1
1
1
1
1
1
1
1
1
1
1
1
1
1
1
1
1
1
1
1
1
1
1
1
1
1
1
1
1
1
1
1
1
1
1
1
1
1
1
1
1
1
1
1
1
1
1
1
1
1
1
1
1
1
1.01597
6.05089
10.002
10.0331
9.97626
9.92858
9.87947
9.83189
9.78533
9.73875
9.69199
9.64445
9.59648
9.54798
9.49857
9.44908
9.39856
9.34753
9.296
1
1
1
1
1
1
1
1
1
1
1
1
1
1
1
1
1
1
1
1
1
1
1
1
1
1
1
1
1
1
1
1
1
1
1
1
1
1
1
1
1
1
1
1
1
1
1
1
1
1
1
1
1
1
1
1
1
1
1
1
1
1
1
1
1
1
1
1
1
1
1
1
1
1
1
1
1
0.999997
3.72216
9.42551
10.0077
9.95855
9.93154
9.89556
9.85724
9.81603
9.77346
9.72957
9.68475
9.63908
9.5927
9.5454
9.49767
9.44889
9.3994
9.34936
1
1
1
1
1
1
1
1
1
1
1
1
1
1
1
1
1
1
1
1
1
1
1
1
1
1
1
1
1
1
1
1
1
1
1
1
1
1
1
1
1
1
1
1
1
1
1
1
1
1
1
1
1
1
1
1
1
1
1
1
1
1
1
1
1
1
1
1
1
1
1
1
1
1
1
1
1
0.999999
1.92614
8.37392
10.1826
10.0872
10.0369
9.98718
9.93978
9.89178
9.84434
9.79693
9.74964
9.70211
9.65437
9.60609
9.55743
9.50802
9.458
9.40747
1
1
1
1
1
1
1
1
1
1
1
1
1
1
1
1
1
1
1
1
1
1
1
1
1
1
1
1
1
1
1
1
1
1
1
1
1
1
1
1
1
1
1
1
1
1
1
1
1
1
1
1
1
1
1
1
1
1
1
1
1
1
1
1
1
1
1
1
1
1
1
1
1
1
1
1
1
1
1.03779
6.6709
10.1832
10.1355
10.0668
10.0152
9.9683
9.92316
9.8776
9.83164
9.78537
9.73865
9.69166
9.64417
9.59626
9.54773
9.49869
9.44909
1
1
1
1
1
1
1
1
1
1
1
1
1
1
1
1
1
1
1
1
1
1
1
1
1
1
1
1
1
1
1
1
1
1
1
1
1
1
1
1
1
1
1
1
1
1
1
1
1
1
1
1
1
1
1
1
1
1
1
1
1
1
1
1
1
1
1
1
1
1
1
1
1
1
1
1
1
1
1.00002
4.78026
9.8478
10.1031
10.0675
10.0386
10.0003
9.95897
9.91467
9.86934
9.82337
9.77686
9.73011
9.68284
9.63523
9.58707
9.53852
9.48943
1
1
1
1
1
1
1
1
1
1
1
1
1
1
1
1
1
1
1
1
1
1
1
1
1
1
1
1
1
1
1
1
1
1
1
1
1
1
1
1
1
1
1
1
1
1
1
1
1
1
1
1
1
1
1
1
1
1
1
1
1
1
1
1
1
1
1
1
1
1
1
1
1
1
1
1
1
1
1
3.05907
9.1857
10.1581
10.0932
10.0625
10.0212
9.97884
9.93511
9.89115
9.84675
9.8018
9.75653
9.71071
9.66447
9.61753
9.57019
9.52226
1
1
1
1
1
1
1
1
1
1
1
1
1
1
1
1
1
1
1
1
1
1
1
1
1
1
1
1
1
1
1
1
1
1
1
1
1
1
1
1
1
1
1
1
1
1
1
1
1
1
1
1
1
1
1
1
1
1
1
1
1
1
1
1
1
1
1
1
1
1
1
1
1
1
1
1
1
1
1
1.7658
8.24683
10.2835
10.1867
10.1353
10.0822
10.0339
9.98731
9.94198
9.89685
9.85146
9.80581
9.75966
9.71313
9.66596
9.61844
9.57038
1
1
1
1
1
1
1
1
1
1
1
1
1
1
1
1
1
1
1
1
1
1
1
1
1
1
1
1
1
1
1
1
1
1
1
1
1
1
1
1
1
1
1
1
1
1
1
1
1
1
1
1
1
1
1
1
1
1
1
1
1
1
1
1
1
1
1
1
1
1
1
1
1
1
1
1
1
1
1
1.02976
6.91176
10.3
10.2193
10.1506
10.0967
10.0498
10.0058
9.96299
9.91997
9.87621
9.83182
9.78686
9.74137
9.69511
9.64842
9.60125
1
1
1
1
1
1
1
1
1
1
1
1
1
1
1
1
1
1
1
1
1
1
1
1
1
1
1
1
1
1
1
1
1
1
1
1
1
1
1
1
1
1
1
1
1
1
1
1
1
1
1
1
1
1
1
1
1
1
1
1
1
1
1
1
1
1
1
1
1
1
1
1
1
1
1
1
1
1
1
1.00002
5.49027
10.0745
10.1784
10.137
10.1061
10.0682
10.028
9.98621
9.94338
9.89976
9.85547
9.8108
9.76578
9.72009
9.6739
9.62745
1
1
1
1
1
1
1
1
1
1
1
1
1
1
1
1
1
1
1
1
1
1
1
1
1
1
1
1
1
1
1
1
1
1
1
1
1
1
1
1
1
1
1
1
1
1
1
1
1
1
1
1
1
1
1
1
1
1
1
1
1
1
1
1
1
1
1
1
1
1
1
1
1
1
1
1
1
1
1
1
4.15523
9.73692
10.2041
10.1563
10.1304
10.0942
10.056
10.0149
9.97215
9.92848
9.88395
9.83908
9.79391
9.74818
9.70187
9.65555
1
1
1
1
1
1
1
1
1
1
1
1
1
1
1
1
1
1
1
1
1
1
1
1
1
1
1
1
1
1
1
1
1
1
1
1
1
1
1
1
1
1
1
1
1
1
1
1
1
1
1
1
1
1
1
1
1
1
1
1
1
1
1
1
1
1
1
1
1
1
1
1
1
1
1
1
1
1
1
1
2.9763
9.26063
10.2438
10.1793
10.1484
10.1074
10.0669
10.0248
9.98225
9.93941
9.89607
9.852
9.80773
9.76341
9.71828
9.67297
1
1
1
1
1
1
1
1
1
1
1
1
1
1
1
1
1
1
1
1
1
1
1
1
1
1
1
1
1
1
1
1
1
1
1
1
1
1
1
1
1
1
1
1
1
1
1
1
1
1
1
1
1
1
1
1
1
1
1
1
1
1
1
1
1
1
1
1
1
1
1
1
1
1
1
1
1
1
1
1
2.0439
8.62535
10.3065
10.2278
10.1892
10.146
10.1043
10.0622
10.0198
9.97684
9.93352
9.88933
9.84496
9.80028
9.75499
9.70953
1
1
1
1
1
1
1
1
1
1
1
1
1
1
1
1
1
1
1
1
1
1
1
1
1
1
1
1
1
1
1
1
1
1
1
1
1
1
1
1
1
1
1
1
1
1
1
1
1
1
1
1
1
1
1
1
1
1
1
1
1
1
1
1
1
1
1
1
1
1
1
1
1
1
1
1
1
1
1
1
1.42582
7.77822
10.3586
10.263
10.2096
10.1619
10.1184
10.0759
10.0335
9.99108
9.94856
9.90489
9.86137
9.81754
9.77315
9.72833
1
1
1
1
1
1
1
1
1
1
1
1
1
1
1
1
1
1
1
1
1
1
1
1
1
1
1
1
1
1
1
1
1
1
1
1
1
1
1
1
1
1
1
1
1
1
1
1
1
1
1
1
1
1
1
1
1
1
1
1
1
1
1
1
1
1
1
1
1
1
1
1
1
1
1
1
1
1
1
1
1.07271
6.9373
10.3311
10.2798
10.2256
10.1796
10.1358
10.0929
10.0501
10.0075
9.965
9.92164
9.8784
9.83469
9.79072
9.74611
1
1
1
1
1
1
1
1
1
1
1
1
1
1
1
1
1
1
1
1
1
1
1
1
1
1
1
1
1
1
1
1
1
1
1
1
1
1
1
1
1
1
1
1
1
1
1
1
1
1
1
1
1
1
1
1
1
1
1
1
1
1
1
1
1
1
1
1
1
1
1
1
1
1
1
1
1
1
1
1
1.00063
6.10848
10.2183
10.2682
10.2161
10.1818
10.1416
10.1018
10.0611
10.0203
9.97889
9.93681
9.89405
9.85084
9.80738
9.76303
1
1
1
1
1
1
1
1
1
1
1
1
1
1
1
1
1
1
1
1
1
1
1
1
1
1
1
1
1
1
1
1
1
1
1
1
1
1
1
1
1
1
1
1
1
1
1
1
1
1
1
1
1
1
1
1
1
1
1
1
1
1
1
1
1
1
1
1
1
1
1
1
1
1
1
1
1
1
1
1
1
5.2658
10.0945
10.2714
10.2182
10.1881
10.1498
10.1118
10.0721
10.0322
9.99133
9.95041
9.90809
9.8655
9.82248
9.77858
1
1
1
1
1
1
1
1
1
1
1
1
1
1
1
1
1
1
1
1
1
1
1
1
1
1
1
1
1
1
1
1
1
1
1
1
1
1
1
1
1
1
1
1
1
1
1
1
1
1
1
1
1
1
1
1
1
1
1
1
1
1
1
1
1
1
1
1
1
1
1
1
1
1
1
1
1
1
1
1
1
4.52153
9.94236
10.2911
10.2317
10.2017
10.1643
10.1275
10.0886
10.0494
10.0085
9.96785
9.9254
9.88296
9.8396
9.79558
1
1
1
1
1
1
1
1
1
1
1
1
1
1
1
1
1
1
1
1
1
1
1
1
1
1
1
1
1
1
1
1
1
1
1
1
1
1
1
1
1
1
1
1
1
1
1
1
1
1
1
1
1
1
1
1
1
1
1
1
1
1
1
1
1
1
1
1
1
1
1
1
1
1
1
1
1
1
1
1
1
3.90952
9.75805
10.3164
10.2455
10.212
10.1729
10.135
10.0957
10.0564
10.0156
9.97518
9.93288
9.89087
9.84768
9.80416
1
1
1
1
1
1
1
1
1
1
1
1
1
1
1
1
1
1
1
1
1
1
1
1
1
1
1
1
1
1
1
1
1
1
1
1
1
1
1
1
1
1
1
1
1
1
1
1
1
1
1
1
1
1
1
1
1
1
1
1
1
1
1
1
1
1
1
1
1
1
1
1
1
1
1
1
1
1
1
1
1
3.41548
9.55569
10.3354
10.2567
10.2213
10.1814
10.1432
10.104
10.0649
10.0242
9.98367
9.94148
9.8996
9.85654
9.8134
1
1
1
1
1
1
1
1
1
1
1
1
1
1
1
1
1
1
1
1
1
1
1
1
1
1
1
1
1
1
1
1
1
1
1
1
1
1
1
1
1
1
1
1
1
1
1
1
1
1
1
1
1
1
1
1
1
1
1
1
1
1
1
1
1
1
1
1
1
1
1
1
1
1
1
1
1
1
1
1
1
2.9957
9.4103
10.3471
10.2665
10.231
10.1906
10.1517
10.1121
10.0722
10.0313
9.99047
9.94861
9.90675
9.86377
9.82083
1
1
1
1
1
1
1
1
1
1
1
1
1
1
1
1
1
1
1
1
1
1
1
1
1
1
1
1
1
1
1
1
1
1
1
1
1
1
1
1
1
1
1
1
1
1
1
1
1
1
1
1
1
1
1
1
1
1
1
1
1
1
1
1
1
1
1
1
1
1
1
1
1
1
1
1
1
1
1
1
1
2.69293
9.25716
10.3556
10.2747
10.239
10.1983
10.159
10.1192
10.079
10.0381
9.99688
9.95532
9.91346
9.87061
9.82773
1
1
1
1
1
1
1
1
1
1
1
1
1
1
1
1
1
1
1
1
1
1
1
1
1
1
1
1
1
1
1
1
1
1
1
1
1
1
1
1
1
1
1
1
1
1
1
1
1
1
1
1
1
1
1
1
1
1
1
1
1
1
1
1
1
1
1
1
1
1
1
1
1
1
1
1
1
1
1
1
1
2.48879
9.12486
10.3604
10.28
10.2442
10.2036
10.164
10.1242
10.084
10.0433
10.0019