/*--------------------------------*- C++ -*----------------------------------*\
  =========                 |
  \\      /  F ield         | OpenFOAM: The Open Source CFD Toolbox
   \\    /   O peration     | Website:  https://openfoam.org
    \\  /    A nd           | Version:  7
     \\/     M anipulation  |
\*---------------------------------------------------------------------------*/
FoamFile
{
    version     2.0;
    format      ascii;
    class       volScalarField;
    location    "10";
    object      rho;
}
// * * * * * * * * * * * * * * * * * * * * * * * * * * * * * * * * * * * * * //

dimensions      [1 -3 0 0 0 0 0];

internalField   nonuniform List<scalar> 
19968
(
1.40001
1.40001
1.40001
1.40001
1.40001
1.40001
1.40001
1.40001
1.40001
1.40001
1.40001
1.40001
1.40001
1.40001
1.40001
1.40001
1.40001
1.40001
1.40001
1.40001
1.40001
1.40001
1.40001
1.40001
1.40001
1.40001
1.40001
1.40001
1.40001
1.40001
1.40001
1.40001
1.40001
1.40001
1.40001
1.40001
1.40001
1.40001
1.40001
1.40001
1.40001
1.40001
1.40001
1.40001
1.40001
1.40001
1.40001
1.40001
1.73439
4.60217
5.4139
5.43112
5.46002
5.48393
5.50542
5.5235
5.54118
5.55979
5.57968
5.60068
5.62239
5.64424
5.66474
5.68308
5.69983
5.71582
5.73129
5.74642
5.7617
5.77724
5.79258
5.80718
5.82085
5.83391
5.84712
5.86103
5.87543
5.88935
5.90179
5.91242
5.92183
5.93107
5.941
5.95181
5.96284
5.97288
5.98086
5.98638
5.98986
5.9923
5.99479
5.99819
6.00273
6.0079
6.01274
6.01632
1.40001
1.40001
1.40001
1.40001
1.40001
1.40001
1.40001
1.40001
1.40001
1.40001
1.40001
1.40001
1.40001
1.40001
1.40001
1.40001
1.40001
1.40001
1.40001
1.40001
1.40001
1.40001
1.40001
1.40001
1.40001
1.40001
1.40001
1.40001
1.40001
1.40001
1.40001
1.40001
1.40001
1.40001
1.40001
1.40001
1.40001
1.40001
1.40001
1.40001
1.40001
1.40001
1.40001
1.40001
1.40001
1.40001
1.40001
1.40001
1.71393
4.5725
5.40938
5.43305
5.46087
5.4847
5.50557
5.52302
5.54029
5.55872
5.57859
5.59964
5.62113
5.64276
5.66308
5.68159
5.69852
5.71457
5.73004
5.74521
5.76063
5.77635
5.79185
5.80656
5.82026
5.83328
5.8463
5.85984
5.87377
5.88727
5.89949
5.91017
5.91983
5.92936
5.9395
5.95032
5.96121
5.97107
5.97893
5.98441
5.98791
5.99035
5.99277
5.996
6.00033
6.00528
6.00993
6.01339
1.40001
1.40001
1.40001
1.40001
1.40001
1.40001
1.40001
1.40001
1.40001
1.40001
1.40001
1.40001
1.40001
1.40001
1.40001
1.40001
1.40001
1.40001
1.40001
1.40001
1.40001
1.40001
1.40001
1.40001
1.40001
1.40001
1.40001
1.40001
1.40001
1.40001
1.40001
1.40001
1.40001
1.40001
1.40001
1.40001
1.40001
1.40001
1.40001
1.40001
1.40001
1.40001
1.40001
1.40001
1.40001
1.40001
1.40001
1.40001
1.67023
4.51489
5.41184
5.43008
5.45836
5.48187
5.50257
5.52025
5.538
5.55668
5.57648
5.59744
5.61849
5.63978
5.65991
5.67861
5.69575
5.71183
5.72726
5.74248
5.75809
5.77407
5.7898
5.80466
5.81846
5.83149
5.84436
5.85749
5.87081
5.8837
5.89554
5.9062
5.91614
5.92608
5.93651
5.94739
5.95812
5.96777
5.97553
5.98109
5.98477
5.98735
5.98977
5.99281
5.99684
6.00145
6.00582
6.00908
1.40001
1.40001
1.40001
1.40001
1.40001
1.40001
1.40001
1.40001
1.40001
1.40001
1.40001
1.40001
1.40001
1.40001
1.40001
1.40001
1.40001
1.40001
1.40001
1.40001
1.40001
1.40001
1.40001
1.40001
1.40001
1.40001
1.40001
1.40001
1.40001
1.40001
1.40001
1.40001
1.40001
1.40001
1.40001
1.40001
1.40001
1.40001
1.40001
1.40001
1.40001
1.40001
1.40001
1.40001
1.40001
1.40001
1.40001
1.40001
1.60949
4.42152
5.41162
5.42837
5.45467
5.47722
5.49811
5.51698
5.53567
5.5547
5.57426
5.59483
5.61512
5.63582
5.6557
5.67456
5.69192
5.70805
5.72347
5.73877
5.75456
5.77075
5.78667
5.80168
5.81556
5.82858
5.8412
5.8538
5.86636
5.87852
5.8899
5.90052
5.91077
5.92113
5.93183
5.94267
5.95308
5.96231
5.96979
5.97532
5.97913
5.98186
5.98434
5.98728
5.99109
5.99542
5.99952
6.00264
1.40001
1.40001
1.40001
1.40001
1.40001
1.40001
1.40001
1.40001
1.40001
1.40001
1.40001
1.40001
1.40001
1.40001
1.40001
1.40001
1.40001
1.40001
1.40001
1.40001
1.40001
1.40001
1.40001
1.40001
1.40001
1.40001
1.40001
1.40001
1.40001
1.40001
1.40001
1.40001
1.40001
1.40001
1.40001
1.40001
1.40001
1.40001
1.40001
1.40001
1.40001
1.40001
1.40001
1.40001
1.40001
1.40001
1.40001
1.40001
1.53391
4.29783
5.41642
5.42653
5.44966
5.47219
5.49385
5.51398
5.53345
5.55266
5.57174
5.5915
5.61079
5.63064
5.65008
5.66903
5.68672
5.7031
5.71865
5.73404
5.7499
5.76615
5.78217
5.79729
5.81128
5.82434
5.83681
5.84896
5.86087
5.87239
5.88339
5.89399
5.90454
5.91533
5.92635
5.93721
5.94734
5.95616
5.96326
5.96854
5.9722
5.97473
5.97687
5.97932
5.98251
5.9862
5.98975
5.99252
1.40001
1.40001
1.40001
1.40001
1.40001
1.40001
1.40001
1.40001
1.40001
1.40001
1.40001
1.40001
1.40001
1.40001
1.40001
1.40001
1.40001
1.40001
1.40001
1.40001
1.40001
1.40001
1.40001
1.40001
1.40001
1.40001
1.40001
1.40001
1.40001
1.40001
1.40001
1.40001
1.40001
1.40001
1.40001
1.40001
1.40001
1.40001
1.40001
1.40001
1.40001
1.40001
1.40001
1.40001
1.40001
1.40001
1.40001
1.40001
1.40932
4.0962
5.42088
5.42991
5.44661
5.46902
5.491
5.51248
5.53287
5.55229
5.57071
5.58907
5.60693
5.62542
5.64391
5.66256
5.68051
5.69724
5.71286
5.72799
5.74341
5.75916
5.77479
5.78968
5.80355
5.81648
5.8287
5.84038
5.85167
5.86259
5.87317
5.88363
5.89428
5.90529
5.91649
5.92737
5.93735
5.94594
5.95291
5.95825
5.96212
5.96488
5.96713
5.96947
5.97234
5.97563
5.97875
5.98126
1.40001
1.40001
1.40001
1.40001
1.40001
1.40001
1.40001
1.40001
1.40001
1.40001
1.40001
1.40001
1.40001
1.40001
1.40001
1.40001
1.40001
1.40001
1.40001
1.40001
1.40001
1.40001
1.40001
1.40001
1.40001
1.40001
1.40001
1.40001
1.40001
1.40001
1.40001
1.40001
1.40001
1.40001
1.40001
1.40001
1.40001
1.40001
1.40001
1.40001
1.40001
1.40001
1.40001
1.40001
1.40001
1.40001
1.40001
1.40001
1.40007
3.79448
5.37958
5.41118
5.42832
5.45276
5.47582
5.49904
5.52089
5.54111
5.55959
5.57717
5.59421
5.6118
5.62967
5.64818
5.66638
5.68348
5.69933
5.7144
5.72966
5.74518
5.76068
5.77557
5.78952
5.80252
5.81473
5.82634
5.83752
5.84837
5.85895
5.86947
5.8802
5.89127
5.90248
5.91332
5.92317
5.9316
5.93845
5.94379
5.94778
5.9507
5.95302
5.95527
5.95784
5.96076
5.96346
5.96574
1.40001
1.40001
1.40001
1.40001
1.40001
1.40001
1.40001
1.40001
1.40001
1.40001
1.40001
1.40001
1.40001
1.40001
1.40001
1.40001
1.40001
1.40001
1.40001
1.40001
1.40001
1.40001
1.40001
1.40001
1.40001
1.40001
1.40001
1.40001
1.40001
1.40001
1.40001
1.40001
1.40001
1.40001
1.40001
1.40001
1.40001
1.40001
1.40001
1.40001
1.40001
1.40001
1.40001
1.40001
1.40001
1.40001
1.40001
1.40001
1.40001
3.40468
5.32047
5.39978
5.41958
5.44476
5.46821
5.49172
5.51386
5.53439
5.55322
5.57046
5.58672
5.60308
5.6199
5.63765
5.65534
5.67206
5.68758
5.70214
5.71689
5.73193
5.74706
5.76169
5.77539
5.7881
5.79995
5.81122
5.82212
5.83279
5.84331
5.85378
5.8644
5.87527
5.88619
5.89669
5.90619
5.91429
5.9209
5.92611
5.93013
5.93314
5.93552
5.93769
5.93999
5.94259
5.94491
5.94697
1.40001
1.40001
1.40001
1.40001
1.40001
1.40001
1.40001
1.40001
1.40001
1.40001
1.40001
1.40001
1.40001
1.40001
1.40001
1.40001
1.40001
1.40001
1.40001
1.40001
1.40001
1.40001
1.40001
1.40001
1.40001
1.40001
1.40001
1.40001
1.40001
1.40001
1.40001
1.40001
1.40001
1.40001
1.40001
1.40001
1.40001
1.40001
1.40001
1.40001
1.40001
1.40001
1.40001
1.40001
1.40001
1.40001
1.40001
1.40001
1.40001
2.94448
5.22242
5.39045
5.41178
5.43741
5.46087
5.48407
5.50593
5.52611
5.54495
5.56226
5.57838
5.59397
5.60978
5.62644
5.643
5.65863
5.67324
5.68687
5.70076
5.7151
5.72961
5.74367
5.75675
5.7688
5.78001
5.79075
5.8013
5.81181
5.82227
5.83267
5.84305
5.85348
5.86384
5.87376
5.88276
5.89049
5.8969
5.90212
5.90629
5.90956
5.91217
5.91446
5.91669
5.91913
5.92116
5.92306
1.40001
1.40001
1.40001
1.40001
1.40001
1.40001
1.40001
1.40001
1.40001
1.40001
1.40001
1.40001
1.40001
1.40001
1.40001
1.40001
1.40001
1.40001
1.40001
1.40001
1.40001
1.40001
1.40001
1.40001
1.40001
1.40001
1.40001
1.40001
1.40001
1.40001
1.40001
1.40001
1.40001
1.40001
1.40001
1.40001
1.40001
1.40001
1.40001
1.40001
1.40001
1.40001
1.40001
1.40001
1.40001
1.40001
1.40001
1.40001
1.40001
2.42183
5.05073
5.39048
5.41222
5.43852
5.46062
5.48205
5.50198
5.52036
5.53818
5.55532
5.57123
5.58617
5.60086
5.61615
5.63123
5.64546
5.65908
5.67188
5.68489
5.69837
5.71197
5.7251
5.73706
5.74779
5.75761
5.76705
5.77653
5.78627
5.79623
5.80625
5.81623
5.82613
5.83585
5.84512
5.85356
5.86088
5.86702
5.87207
5.87616
5.87936
5.88189
5.88401
5.88598
5.88813
5.88979
5.89144
1.40001
1.40001
1.40001
1.40001
1.40001
1.40001
1.40001
1.40001
1.40001
1.40001
1.40001
1.40001
1.40001
1.40001
1.40001
1.40001
1.40001
1.40001
1.40001
1.40001
1.40001
1.40001
1.40001
1.40001
1.40001
1.40001
1.40001
1.40001
1.40001
1.40001
1.40001
1.40001
1.40001
1.40001
1.40001
1.40001
1.40001
1.40001
1.40001
1.40001
1.40001
1.40001
1.40001
1.40001
1.40001
1.40001
1.40001
1.40001
1.40001
1.89119
4.74146
5.40899
5.40706
5.4314
5.44952
5.46966
5.48937
5.5079
5.52576
5.54315
5.55909
5.57388
5.58815
5.60278
5.61713
5.63057
5.64355
5.6559
5.66829
5.68108
5.69386
5.70608
5.71708
5.72663
5.73503
5.74289
5.75081
5.7591
5.76777
5.77655
5.78521
5.7936
5.80164
5.80917
5.81597
5.82193
5.82708
5.83154
5.83544
5.83875
5.84154
5.8439
5.846
5.8482
5.8498
5.85138
1.40001
1.40001
1.40001
1.40001
1.40001
1.40001
1.40001
1.40001
1.40001
1.40001
1.40001
1.40001
1.40001
1.40001
1.40001
1.40001
1.40001
1.40001
1.40001
1.40001
1.40001
1.40001
1.40001
1.40001
1.40001
1.40001
1.40001
1.40001
1.40001
1.40001
1.40001
1.40001
1.40001
1.40001
1.40001
1.40001
1.40001
1.40001
1.40001
1.40001
1.40001
1.40001
1.40001
1.40001
1.40001
1.40001
1.40001
1.40001
1.40001
1.42568
4.10954
5.41145
5.41605
5.43298
5.44888
5.4656
5.48273
5.49912
5.51504
5.53116
5.54626
5.5601
5.57324
5.5865
5.59946
5.61158
5.62331
5.63474
5.6459
5.6573
5.66867
5.67948
5.68931
5.69761
5.70463
5.71097
5.71732
5.72409
5.73139
5.73897
5.74648
5.75366
5.76041
5.76665
5.77229
5.77723
5.78149
5.78499
5.78774
5.78958
5.79057
5.79089
5.79106
5.79186
5.7927
5.79375
1.40001
1.40001
1.40001
1.40001
1.40001
1.40001
1.40001
1.40001
1.40001
1.40001
1.40001
1.40001
1.40001
1.40001
1.40001
1.40001
1.40001
1.40001
1.40001
1.40001
1.40001
1.40001
1.40001
1.40001
1.40001
1.40001
1.40001
1.40001
1.40001
1.40001
1.40001
1.40001
1.40001
1.40001
1.40001
1.40001
1.40001
1.40001
1.40001
1.40001
1.40001
1.40001
1.40001
1.40001
1.40001
1.40001
1.40001
1.40001
1.40001
1.40005
3.2153
5.25399
5.36422
5.38897
5.41049
5.42906
5.44756
5.46533
5.48194
5.49788
5.51272
5.52623
5.53907
5.5519
5.56462
5.57682
5.58853
5.59984
5.6107
5.62125
5.63161
5.64145
5.65053
5.65834
5.66484
5.67039
5.67548
5.68055
5.68586
5.69142
5.69696
5.70211
5.70661
5.71035
5.71331
5.71545
5.71664
5.71696
5.71677
5.71629
5.71583
5.71571
5.71596
5.7176
5.7194
5.72114
1.40001
1.40001
1.40001
1.40001
1.40001
1.40001
1.40001
1.40001
1.40001
1.40001
1.40001
1.40001
1.40001
1.40001
1.40001
1.40001
1.40001
1.40001
1.40001
1.40001
1.40001
1.40001
1.40001
1.40001
1.40001
1.40001
1.40001
1.40001
1.40001
1.40001
1.40001
1.40001
1.40001
1.40001
1.40001
1.40001
1.40001
1.40001
1.40001
1.40001
1.40001
1.40001
1.40001
1.40001
1.40001
1.40001
1.40001
1.40001
1.40001
1.4
2.17812
4.90125
5.36618
5.37833
5.40221
5.41911
5.43479
5.4502
5.46556
5.48047
5.4943
5.50647
5.51774
5.5288
5.53994
5.55103
5.56177
5.57189
5.5813
5.58984
5.59775
5.60522
5.61221
5.61847
5.62365
5.62781
5.63099
5.63342
5.63546
5.63751
5.63961
5.64156
5.643
5.64386
5.64417
5.64381
5.64257
5.64064
5.63786
5.63411
5.62898
5.62305
5.6161
5.60973
5.60396
5.59877
1.40001
1.40001
1.40001
1.40001
1.40001
1.40001
1.40001
1.40001
1.40001
1.40001
1.40001
1.40001
1.40001
1.40001
1.40001
1.40001
1.40001
1.40001
1.40001
1.40001
1.40001
1.40001
1.40001
1.40001
1.40001
1.40001
1.40001
1.40001
1.40001
1.40001
1.40001
1.40001
1.40001
1.40001
1.40001
1.40001
1.40001
1.40001
1.40001
1.40001
1.40001
1.40001
1.40001
1.40001
1.40001
1.40001
1.40001
1.40001
1.40001
1.40001
1.44324
3.98639
5.38514
5.39505
5.40461
5.41573
5.42428
5.4333
5.4439
5.45577
5.46787
5.4788
5.48851
5.49749
5.50622
5.51503
5.52393
5.53256
5.54046
5.54716
5.55242
5.5569
5.56114
5.56531
5.56898
5.57189
5.57358
5.5738
5.57241
5.57015
5.56767
5.56503
5.56198
5.5583
5.55336
5.54699
5.5386
5.52761
5.51334
5.49581
5.47597
5.45583
5.43982
5.42802
5.4242
5.42342
1.40001
1.40001
1.40001
1.40001
1.40001
1.40001
1.40001
1.40001
1.40001
1.40001
1.40001
1.40001
1.40001
1.40001
1.40001
1.40001
1.40001
1.40001
1.40001
1.40001
1.40001
1.40001
1.40001
1.40001
1.40001
1.40001
1.40001
1.40001
1.40001
1.40001
1.40001
1.40001
1.40001
1.40001
1.40001
1.40001
1.40001
1.40001
1.40001
1.40001
1.40001
1.40001
1.40001
1.40001
1.40001
1.40001
1.40001
1.40001
1.40001
1.40001
1.40006
2.63575
5.06306
5.34279
5.36002
5.37609
5.38694
5.3963
5.40628
5.41821
5.43139
5.44386
5.45446
5.46309
5.47025
5.47678
5.48323
5.48972
5.4958
5.50075
5.50397
5.50539
5.50569
5.50573
5.50589
5.50631
5.50657
5.50489
5.50022
5.49317
5.48471
5.4752
5.4649
5.45367
5.44114
5.4268
5.40964
5.38872
5.36373
5.33587
5.30675
5.27762
5.24204
5.20261
5.14789
5.16712
1.40001
1.40001
1.40001
1.40001
1.40001
1.40001
1.40001
1.40001
1.40001
1.40001
1.40001
1.40001
1.40001
1.40001
1.40001
1.40001
1.40001
1.40001
1.40001
1.40001
1.40001
1.40001
1.40001
1.40001
1.40001
1.40001
1.40001
1.40001
1.40001
1.40001
1.40001
1.40001
1.40001
1.40001
1.40001
1.40001
1.40001
1.40001
1.40001
1.40001
1.40001
1.40001
1.40001
1.40001
1.40001
1.40001
1.40001
1.40001
1.40001
1.40001
1.40001
1.56373
4.38254
5.36543
5.35738
5.36477
5.3741
5.38146
5.38909
5.39804
5.40836
5.41881
5.42797
5.43501
5.43992
5.44351
5.44653
5.44973
5.45328
5.4564
5.45807
5.45696
5.4536
5.44906
5.44511
5.44226
5.43992
5.43592
5.42832
5.41749
5.40373
5.38736
5.36902
5.34907
5.32729
5.30277
5.27341
5.23708
5.19083
5.13368
5.05952
4.96233
4.81455
4.58502
4.17519
3.26437
1.40001
1.40001
1.40001
1.40001
1.40001
1.40001
1.40001
1.40001
1.40001
1.40001
1.40001
1.40001
1.40001
1.40001
1.40001
1.40001
1.40001
1.40001
1.40001
1.40001
1.40001
1.40001
1.40001
1.40001
1.40001
1.40001
1.40001
1.40001
1.40001
1.40001
1.40001
1.40001
1.40001
1.40001
1.40001
1.40001
1.40001
1.40001
1.40001
1.40001
1.40001
1.40001
1.40001
1.40001
1.40001
1.40001
1.40001
1.40001
1.40001
1.40001
1.4
1.40147
3.23489
5.16921
5.32759
5.3417
5.35196
5.35695
5.36168
5.36791
5.37619
5.3854
5.39422
5.40141
5.4062
5.40889
5.41036
5.41152
5.41298
5.41436
5.41466
5.4123
5.40729
5.40015
5.39272
5.38625
5.38021
5.37262
5.36221
5.34838
5.33066
5.30888
5.28358
5.25549
5.22417
5.18904
5.14674
5.09542
5.02883
4.94669
4.83737
4.69684
4.49068
4.2105
3.67777
2.91573
1.40001
1.40001
1.40001
1.40001
1.40001
1.40001
1.40001
1.40001
1.40001
1.40001
1.40001
1.40001
1.40001
1.40001
1.40001
1.40001
1.40001
1.40001
1.40001
1.40001
1.40001
1.40001
1.40001
1.40001
1.40001
1.40001
1.40001
1.40001
1.40001
1.40001
1.40001
1.40001
1.40001
1.40001
1.40001
1.40001
1.40001
1.40001
1.40001
1.40001
1.40001
1.40001
1.40001
1.40001
1.40001
1.40001
1.40001
1.40001
1.40001
1.40001
1.40001
1.4
1.9563
4.71217
5.34738
5.33649
5.34608
5.34987
5.35111
5.35346
5.35909
5.36646
5.37375
5.37952
5.38275
5.38353
5.38238
5.38067
5.37897
5.37737
5.37465
5.3697
5.36228
5.35269
5.34228
5.33216
5.32177
5.30978
5.29522
5.27719
5.25477
5.22772
5.19596
5.1604
5.1196
5.07368
5.01862
4.95325
4.87084
4.76912
4.63934
4.47079
4.25097
3.93508
3.49752
2.96985
1.40001
1.40001
1.40001
1.40001
1.40001
1.40001
1.40001
1.40001
1.40001
1.40001
1.40001
1.40001
1.40001
1.40001
1.40001
1.40001
1.40001
1.40001
1.40001
1.40001
1.40001
1.40001
1.40001
1.40001
1.40001
1.40001
1.40001
1.40001
1.40001
1.40001
1.40001
1.40001
1.40001
1.40001
1.40001
1.40001
1.40001
1.40001
1.40001
1.40001
1.40001
1.40001
1.40001
1.40001
1.40001
1.40001
1.40001
1.40001
1.40001
1.40001
1.40001
1.4
1.42446
3.55895
5.26016
5.30763
5.32158
5.32925
5.33193
5.33416
5.33948
5.34573
5.35146
5.35553
5.35737
5.35664
5.35342
5.34923
5.34463
5.33976
5.33387
5.32578
5.31529
5.30296
5.28963
5.27635
5.2624
5.24666
5.22788
5.20524
5.17765
5.14539
5.10792
5.06618
5.0178
4.96255
4.89709
4.82002
4.72698
4.61355
4.47498
4.2991
4.07702
3.80161
3.46237
3.08109
1.40001
1.40001
1.40001
1.40001
1.40001
1.40001
1.40001
1.40001
1.40001
1.40001
1.40001
1.40001
1.40001
1.40001
1.40001
1.40001
1.40001
1.40001
1.40001
1.40001
1.40001
1.40001
1.40001
1.40001
1.40001
1.40001
1.40001
1.40001
1.40001
1.40001
1.40001
1.40001
1.40001
1.40001
1.40001
1.40001
1.40001
1.40001
1.40001
1.40001
1.40001
1.40001
1.40001
1.40001
1.40001
1.40001
1.40001
1.40001
1.40001
1.40001
1.40001
1.40001
1.4
2.08772
4.82073
5.32674
5.30772
5.3127
5.31474
5.31654
5.32102
5.32629
5.33062
5.33318
5.33345
5.33053
5.32436
5.31714
5.30997
5.30293
5.29513
5.28514
5.27209
5.25632
5.23901
5.22186
5.20433
5.18525
5.16267
5.13575
5.10311
5.06563
5.02289
4.97581
4.92221
4.86078
4.78894
4.70464
4.60549
4.48762
4.34859
4.1769
3.97552
3.74233
3.47608
3.17731
1.40001
1.40001
1.40001
1.40001
1.40001
1.40001
1.40001
1.40001
1.40001
1.40001
1.40001
1.40001
1.40001
1.40001
1.40001
1.40001
1.40001
1.40001
1.40001
1.40001
1.40001
1.40001
1.40001
1.40001
1.40001
1.40001
1.40001
1.40001
1.40001
1.40001
1.40001
1.40001
1.40001
1.40001
1.40001
1.40001
1.40001
1.40001
1.40001
1.40001
1.40001
1.40001
1.40001
1.40001
1.40001
1.40001
1.40001
1.40001
1.40001
1.40001
1.40001
1.40001
1.4
1.43367
3.59293
5.24766
5.2806
5.29071
5.29345
5.29598
5.30021
5.30469
5.30765
5.30866
5.30774
5.30389
5.29541
5.28538
5.27549
5.26594
5.25607
5.24489
5.23039
5.21208
5.19126
5.17011
5.14859
5.12604
5.09994
5.06921
5.03224
4.9901
4.94273
4.89086
4.83332
4.7685
4.6941
4.60739
4.50702
4.38958
4.2554
4.09692
3.91773
3.7202
3.50147
3.26974
1.40001
1.40001
1.40001
1.40001
1.40001
1.40001
1.40001
1.40001
1.40001
1.40001
1.40001
1.40001
1.40001
1.40001
1.40001
1.40001
1.40001
1.40001
1.40001
1.40001
1.40001
1.40001
1.40001
1.40001
1.40001
1.40001
1.40001
1.40001
1.40001
1.40001
1.40001
1.40001
1.40001
1.40001
1.40001
1.40001
1.40001
1.40001
1.40001
1.40001
1.40001
1.40001
1.40001
1.40001
1.40001
1.40001
1.40001
1.40001
1.40001
1.40001
1.40001
1.40001
1.40001
1.40003
2.02058
4.76564
5.28807
5.27163
5.2712
5.27085
5.27293
5.2756
5.27711
5.27669
5.27548
5.27198
5.26228
5.25005
5.23821
5.22606
5.2143
5.20224
5.18727
5.16831
5.1458
5.1215
5.09602
5.06961
5.03995
5.00588
4.96584
4.92049
4.86971
4.81386
4.75286
4.68599
4.61154
4.52642
4.43043
4.31624
4.19231
4.04639
3.88632
3.71811
3.53319
3.34187
1.40001
1.40001
1.40001
1.40001
1.40001
1.40001
1.40001
1.40001
1.40001
1.40001
1.40001
1.40001
1.40001
1.40001
1.40001
1.40001
1.40001
1.40001
1.40001
1.40001
1.40001
1.40001
1.40001
1.40001
1.40001
1.40001
1.40001
1.40001
1.40001
1.40001
1.40001
1.40001
1.40001
1.40001
1.40001
1.40001
1.40001
1.40001
1.40001
1.40001
1.40001
1.40001
1.40001
1.40001
1.40001
1.40001
1.40001
1.40001
1.40001
1.40001
1.40001
1.40001
1.40001
1.40001
1.42509
3.36532
5.1576
5.23984
5.24258
5.24488
5.25024
5.25272
5.25279
5.24986
5.24767
5.24391
5.23415
5.22091
5.20707
5.192
5.17682
5.16225
5.14546
5.12585
5.10284
5.07698
5.04887
5.01899
4.98559
4.948
4.90548
4.85827
4.80582
4.74765
4.68404
4.61514
4.54049
4.4575
4.3676
4.25997
4.14725
4.01406
3.87339
3.72911
3.56483
3.39903
1.40001
1.40001
1.40001
1.40001
1.40001
1.40001
1.40001
1.40001
1.40001
1.40001
1.40001
1.40001
1.40001
1.40001
1.40001
1.40001
1.40001
1.40001
1.40001
1.40001
1.40001
1.40001
1.40001
1.40001
1.40001
1.40001
1.40001
1.40001
1.40001
1.40001
1.40001
1.40001
1.40001
1.40001
1.40001
1.40001
1.40001
1.40001
1.40001
1.40001
1.40001
1.40001
1.40001
1.40001
1.40001
1.40001
1.40001
1.40001
1.40001
1.40001
1.40001
1.40001
1.40001
1.40001
1.40002
1.74314
4.54299
5.27584
5.2522
5.24047
5.23489
5.23048
5.22517
5.21812
5.21284
5.2069
5.19694
5.18419
5.17012
5.15481
5.13783
5.12137
5.1028
5.08264
5.05968
5.03325
5.00348
4.97118
4.93496
4.89474
4.85046
4.80215
4.74939
4.69097
4.62683
4.55719
4.48306
4.40077
4.31533
4.21632
4.1127
3.99436
3.87343
3.74195
3.59123
3.44997
1.40001
1.40001
1.40001
1.40001
1.40001
1.40001
1.40001
1.40001
1.40001
1.40001
1.40001
1.40001
1.40001
1.40001
1.40001
1.40001
1.40001
1.40001
1.40001
1.40001
1.40001
1.40001
1.40001
1.40001
1.40001
1.40001
1.40001
1.40001
1.40001
1.40001
1.40001
1.40001
1.40001
1.40001
1.40001
1.40001
1.40001
1.40001
1.40001
1.40001
1.40001
1.40001
1.40001
1.40001
1.40001
1.40001
1.40001
1.40001
1.40001
1.40001
1.40001
1.40001
1.40001
1.40001
1.40001
1.40641
2.93869
5.0314
5.18547
5.19511
5.20256
5.20032
5.1945
5.18481
5.17596
5.16712
5.1565
5.14522
5.13287
5.11891
5.10182
5.08348
5.06228
5.04067
5.0169
4.98983
4.95923
4.92585
4.88828
4.8469
4.80171
4.75273
4.70035
4.64305
4.58028
4.51166
4.43872
4.35655
4.274
4.18101
4.08549
3.98275
3.87305
3.75001
3.62051
3.4984
1.40001
1.40001
1.40001
1.40001
1.40001
1.40001
1.40001
1.40001
1.40001
1.40001
1.40001
1.40001
1.40001
1.40001
1.40001
1.40001
1.40001
1.40001
1.40001
1.40001
1.40001
1.40001
1.40001
1.40001
1.40001
1.40001
1.40001
1.40001
1.40001
1.40001
1.40001
1.40001
1.40001
1.40001
1.40001
1.40001
1.40001
1.40001
1.40001
1.40001
1.40001
1.40001
1.40001
1.40001
1.40001
1.40001
1.40001
1.40001
1.40001
1.40001
1.40001
1.40001
1.40001
1.40001
1.40001
1.40001
1.55251
3.98167
5.17149
5.18365
5.18046
5.17576
5.17127
5.16136
5.14968
5.13788
5.12452
5.11171
5.09921
5.0859
5.06967
5.05028
5.02675
5.00318
4.97713
4.94767
4.91626
4.88262
4.84466
4.80375
4.75892
4.70993
4.65798
4.6016
4.54113
4.47424
4.40375
4.32487
4.24397
4.15586
4.0688
3.97492
3.86871
3.76113
3.65237
3.53926
1.40001
1.40001
1.40001
1.40001
1.40001
1.40001
1.40001
1.40001
1.40001
1.40001
1.40001
1.40001
1.40001
1.40001
1.40001
1.40001
1.40001
1.40001
1.40001
1.40001
1.40001
1.40001
1.40001
1.40001
1.40001
1.40001
1.40001
1.40001
1.40001
1.40001
1.40001
1.40001
1.40001
1.40001
1.40001
1.40001
1.40001
1.40001
1.40001
1.40001
1.40001
1.40001
1.40001
1.40001
1.40001
1.40001
1.40001
1.40001
1.40001
1.40001
1.40001
1.40001
1.40001
1.40001
1.40001
1.40001
1.40113
2.11115
4.75131
5.18154
5.15288
5.15338
5.14813
5.13921
5.12671
5.11285
5.09724
5.08176
5.06714
5.05285
5.03682
5.01738
4.99312
4.96818
4.93973
4.90757
4.87418
4.8401
4.80248
4.76283
4.71947
4.67195
4.6208
4.56538
4.50833
4.44251
4.37506
4.30129
4.22306
4.14143
4.05957
3.96819
3.86963
3.77904
3.67958
3.5729
1.40001
1.40001
1.40001
1.40001
1.40001
1.40001
1.40001
1.40001
1.40001
1.40001
1.40001
1.40001
1.40001
1.40001
1.40001
1.40001
1.40001
1.40001
1.40001
1.40001
1.40001
1.40001
1.40001
1.40001
1.40001
1.40001
1.40001
1.40001
1.40001
1.40001
1.40001
1.40001
1.40001
1.40001
1.40001
1.40001
1.40001
1.40001
1.40001
1.40001
1.40001
1.40001
1.40001
1.40001
1.40001
1.40001
1.40001
1.40001
1.40001
1.40001
1.40001
1.40001
1.40001
1.40001
1.40001
1.40001
1.40001
1.43014
3.09221
5.03918
5.13524
5.13327
5.12862
5.11972
5.1076
5.09384
5.07736
5.0592
5.04132
5.02411
5.00607
4.98573
4.96146
4.93533
4.90656
4.87274
4.8375
4.80206
4.76542
4.72634
4.68455
4.63944
4.58985
4.53674
4.48003
4.41677
4.35181
4.28247
4.20943
4.13478
4.05542
3.96836
3.882
3.79935
3.70232
3.60608
1.40001
1.40001
1.40001
1.40001
1.40001
1.40001
1.40001
1.40001
1.40001
1.40001
1.40001
1.40001
1.40001
1.40001
1.40001
1.40001
1.40001
1.40001
1.40001
1.40001
1.40001
1.40001
1.40001
1.40001
1.40001
1.40001
1.40001
1.40001
1.40001
1.40001
1.40001
1.40001
1.40001
1.40001
1.40001
1.40001
1.40001
1.40001
1.40001
1.40001
1.40001
1.40001
1.40001
1.40001
1.40001
1.40001
1.40001
1.40001
1.40001
1.40001
1.40001
1.40001
1.40001
1.40001
1.40001
1.40001
1.40001
1.40007
1.57655
3.78292
5.08519
5.13279
5.12472
5.11223
5.09709
5.08092
5.06373
5.04375
5.02224
5.00135
4.97992
4.95735
4.93217
4.90474
4.87713
4.84319
4.80758
4.77044
4.7329
4.69377
4.6526
4.60891
4.56247
4.51126
4.45581
4.39644
4.334
4.26822
4.20107
4.13085
4.05414
3.97628
3.90004
3.82042
3.73131
3.64708
1.40001
1.40001
1.40001
1.40001
1.40001
1.40001
1.40001
1.40001
1.40001
1.40001
1.40001
1.40001
1.40001
1.40001
1.40001
1.40001
1.40001
1.40001
1.40001
1.40001
1.40001
1.40001
1.40001
1.40001
1.40001
1.40001
1.40001
1.40001
1.40001
1.40001
1.40001
1.40001
1.40001
1.40001
1.40001
1.40001
1.40001
1.40001
1.40001
1.40001
1.40001
1.40001
1.40001
1.40001
1.40001
1.40001
1.40001
1.40001
1.40001
1.40001
1.40001
1.40001
1.40001
1.40001
1.40001
1.40001
1.40001
1.40001
1.40163
1.80012
4.47673
5.17037
5.14105
5.11258
5.084
5.06068
5.04036
5.02061
4.99952
4.97739
4.9553
4.93178
4.90574
4.87734
4.84914
4.81665
4.78088
4.74374
4.70542
4.66677
4.62547
4.58315
4.53804
4.48969
4.438
4.38253
4.3231
4.26079
4.19799
4.1301
4.0581
3.99155
3.92192
3.8469
3.7696
3.69479
1.40001
1.40001
1.40001
1.40001
1.40001
1.40001
1.40001
1.40001
1.40001
1.40001
1.40001
1.40001
1.40001
1.40001
1.40001
1.40001
1.40001
1.40001
1.40001
1.40001
1.40001
1.40001
1.40001
1.40001
1.40001
1.40001
1.40001
1.40001
1.40001
1.40001
1.40001
1.40001
1.40001
1.40001
1.40001
1.40001
1.40001
1.40001
1.40001
1.40001
1.40001
1.40001
1.40001
1.40001
1.40001
1.40001
1.40001
1.40001
1.40001
1.40001
1.40001
1.40001
1.40001
1.40001
1.40001
1.40001
1.40001
1.40001
1.40001
1.40872
2.57382
4.90091
5.09901
5.06729
5.04637
5.02813
5.01234
4.99584
4.97773
4.95738
4.93442
4.91082
4.88394
4.85473
4.82586
4.79384
4.75843
4.72157
4.68359
4.64488
4.60345
4.56149
4.51794
4.47252
4.42479
4.37379
4.31841
4.25985
4.20012
4.13525
4.07112
4.01368
3.94947
3.88153
3.81629
3.74956
1.40001
1.40001
1.40001
1.40001
1.40001
1.40001
1.40001
1.40001
1.40001
1.40001
1.40001
1.40001
1.40001
1.40001
1.40001
1.40001
1.40001
1.40001
1.40001
1.40001
1.40001
1.40001
1.40001
1.40001
1.40001
1.40001
1.40001
1.40001
1.40001
1.40001
1.40001
1.40001
1.40001
1.40001
1.40001
1.40001
1.40001
1.40001
1.40001
1.40001
1.40001
1.40001
1.40001
1.40001
1.40001
1.40001
1.40001
1.40001
1.40001
1.40001
1.40001
1.40001
1.40001
1.40001
1.40001
1.40001
1.40001
1.40001
1.40001
1.40002
1.48035
3.20765
4.98129
5.03446
5.02138
5.01801
5.0071
4.99201
4.97402
4.95315
4.92915
4.90434
4.87604
4.84473
4.81329
4.77892
4.74232
4.70489
4.66687
4.62881
4.58856
4.54718
4.5057
4.46254
4.41782
4.36982
4.31825
4.26448
4.20955
4.15232
4.0973
4.04529
3.98608
3.92683
3.87144
3.81071
1.40001
1.40001
1.40001
1.40001
1.40001
1.40001
1.40001
1.40001
1.40001
1.40001
1.40001
1.40001
1.40001
1.40001
1.40001
1.40001
1.40001
1.40001
1.40001
1.40001
1.40001
1.40001
1.40001
1.40001
1.40001
1.40001
1.40001
1.40001
1.40001
1.40001
1.40001
1.40001
1.40001
1.40001
1.40001
1.40001
1.40001
1.40001
1.40001
1.40001
1.40001
1.40001
1.40001
1.40001
1.40001
1.40001
1.40001
1.40001
1.40001
1.40001
1.40001
1.40001
1.40001
1.40001
1.40001
1.40001
1.40001
1.40001
1.40001
1.40001
1.40043
1.60185
3.58917
4.98647
5.01297
5.00785
4.99986
4.98543
4.96787
4.94704
4.92306
4.89731
4.86833
4.83651
4.80312
4.76731
4.73026
4.69283
4.65505
4.61748
4.57947
4.53976
4.4993
4.459
4.41775
4.37332
4.32772
4.28223
4.23381
4.1845
4.13723
4.08904
4.03371
3.98175
3.93276
3.87588
1.40001
1.40001
1.40001
1.40001
1.40001
1.40001
1.40001
1.40001
1.40001
1.40001
1.40001
1.40001
1.40001
1.40001
1.40001
1.40001
1.40001
1.40001
1.40001
1.40001
1.40001
1.40001
1.40001
1.40001
1.40001
1.40001
1.40001
1.40001
1.40001
1.40001
1.40001
1.40001
1.40001
1.40001
1.40001
1.40001
1.40001
1.40001
1.40001
1.40001
1.40001
1.40001
1.40001
1.40001
1.40001
1.40001
1.40001
1.40001
1.40001
1.40001
1.40001
1.40001
1.40001
1.40001
1.40001
1.40001
1.40001
1.40001
1.40001
1.40001
1.40001
1.40228
1.72287
3.91024
5.01361
5.01214
4.99657
4.97898
4.95969
4.93721
4.91303
4.88776
4.85985
4.82906
4.79588
4.76055
4.72421
4.68772
4.65095
4.61425
4.57818
4.54151
4.50365
4.4672
4.43168
4.39463
4.35725
4.31789
4.27389
4.2309
4.18763
4.14041
4.08861
4.04277
3.99703
3.94243
1.40001
1.40001
1.40001
1.40001
1.40001
1.40001
1.40001
1.40001
1.40001
1.40001
1.40001
1.40001
1.40001
1.40001
1.40001
1.40001
1.40001
1.40001
1.40001
1.40001
1.40001
1.40001
1.40001
1.40001
1.40001
1.40001
1.40001
1.40001
1.40001
1.40001
1.40001
1.40001
1.40001
1.40001
1.40001
1.40001
1.40001
1.40001
1.40001
1.40001
1.40001
1.40001
1.40001
1.40001
1.40001
1.40001
1.40001
1.40001
1.40001
1.40001
1.40001
1.40001
1.40001
1.40001
1.40001
1.40001
1.40001
1.40001
1.40001
1.40001
1.40001
1.40001
1.40568
1.85929
4.19178
5.0197
5.00409
4.98151
4.95693
4.93148
4.90432
4.87699
4.84805
4.81742
4.78519
4.75208
4.71848
4.68481
4.65068
4.61684
4.58503
4.55526
4.52599
4.49709
4.46796
4.43687
4.40448
4.36753
4.32554
4.28615
4.24359
4.19604
4.14869
4.10754
4.06218
4.00972
1.40001
1.40001
1.40001
1.40001
1.40001
1.40001
1.40001
1.40001
1.40001
1.40001
1.40001
1.40001
1.40001
1.40001
1.40001
1.40001
1.40001
1.40001
1.40001
1.40001
1.40001
1.40001
1.40001
1.40001
1.40001
1.40001
1.40001
1.40001
1.40001
1.40001
1.40001
1.40001
1.40001
1.40001
1.40001
1.40001
1.40001
1.40001
1.40001
1.40001
1.40001
1.40001
1.40001
1.40001
1.40001
1.40001
1.40001
1.40001
1.40001
1.40001
1.40001
1.40001
1.40001
1.40001
1.40001
1.40001
1.40001
1.40001
1.40001
1.40001
1.40001
1.40001
1.40002
1.41139
2.01268
4.39708
5.02978
5.00355
4.97289
4.94054
4.90885
4.8767
4.84343
4.81025
4.77748
4.7452
4.71454
4.68428
4.65562
4.63076
4.60897
4.58904
4.56917
4.54693
4.5215
4.4933
4.46252
4.42527
4.38502
4.34744
4.30389
4.2572
4.21555
4.17631
4.12927
4.07992
1.40001
1.40001
1.40001
1.40001
1.40001
1.40001
1.40001
1.40001
1.40001
1.40001
1.40001
1.40001
1.40001
1.40001
1.40001
1.40001
1.40001
1.40001
1.40001
1.40001
1.40001
1.40001
1.40001
1.40001
1.40001
1.40001
1.40001
1.40001
1.40001
1.40001
1.40001
1.40001
1.40001
1.40001
1.40001
1.40001
1.40001
1.40001
1.40001
1.40001
1.40001
1.40001
1.40001
1.40001
1.40001
1.40001
1.40001
1.40001
1.40001
1.40001
1.40001
1.40001
1.40001
1.40001
1.40001
1.40001
1.40001
1.40001
1.40001
1.40001
1.40001
1.40001
1.40001
1.40004
1.42029
2.16077
4.57759
5.02601
4.99575
4.96133
4.92173
4.88415
4.84685
4.81106
4.77674
4.74515
4.7165
4.6932
4.67581
4.66375
4.65395
4.64285
4.62867
4.60941
4.58608
4.55919
4.52726
4.48912
4.45128
4.4142
4.36931
4.3251
4.28783
4.24734
4.19884
4.15376
1.40001
1.40001
1.40001
1.40001
1.40001
1.40001
1.40001
1.40001
1.40001
1.40001
1.40001
1.40001
1.40001
1.40001
1.40001
1.40001
1.40001
1.40001
1.40001
1.40001
1.40001
1.40001
1.40001
1.40001
1.40001
1.40001
1.40001
1.40001
1.40001
1.40001
1.40001
1.40001
1.40001
1.40001
1.40001
1.40001
1.40001
1.40001
1.40001
1.40001
1.40001