/*--------------------------------*- C++ -*----------------------------------*\
  =========                 |
  \\      /  F ield         | OpenFOAM: The Open Source CFD Toolbox
   \\    /   O peration     | Website:  https://openfoam.org
    \\  /    A nd           | Version:  7
     \\/     M anipulation  |
\*---------------------------------------------------------------------------*/
FoamFile
{
    version     2.0;
    format      ascii;
    class       volScalarField;
    location    "10";
    object      T;
}
// * * * * * * * * * * * * * * * * * * * * * * * * * * * * * * * * * * * * * //

dimensions      [0 0 0 1 0 0 0];

internalField   nonuniform List<scalar> 
19968
(
1
1
1
1
1
1
1
1
1
1
1
1
1
1
1
1
1
1
1
1
1
1
1
1
1
1
1
1
1
1
1
1
1
1
1
1
1
1
1
1
1
1
1
1
1
1
1
1
1.29045
2.46878
2.69273
2.6914
2.6938
2.69743
2.70312
2.70971
2.71591
2.72069
2.72411
2.72685
2.72955
2.73257
2.73587
2.73935
2.743
2.7468
2.7505
2.75386
2.75683
2.75948
2.76194
2.76437
2.76685
2.76942
2.77206
2.77479
2.77754
2.78019
2.78257
2.78463
2.78644
2.78818
2.79003
2.79201
2.79402
2.79584
2.79728
2.79831
2.79898
2.79949
2.8
2.80066
2.80151
2.80247
2.80336
2.80402
1
1
1
1
1
1
1
1
1
1
1
1
1
1
1
1
1
1
1
1
1
1
1
1
1
1
1
1
1
1
1
1
1
1
1
1
1
1
1
1
1
1
1
1
1
1
1
1
1.27547
2.46033
2.69214
2.6914
2.6936
2.69754
2.70334
2.70978
2.71572
2.72033
2.72374
2.72654
2.72924
2.73225
2.73553
2.73903
2.74271
2.74652
2.75022
2.7536
2.7566
2.75928
2.76178
2.76423
2.76674
2.7693
2.7719
2.77456
2.77723
2.7798
2.78214
2.7842
2.78606
2.78786
2.78974
2.79173
2.79371
2.79549
2.79692
2.79793
2.79862
2.79912
2.79961
2.80024
2.80105
2.80197
2.80283
2.80347
1
1
1
1
1
1
1
1
1
1
1
1
1
1
1
1
1
1
1
1
1
1
1
1
1
1
1
1
1
1
1
1
1
1
1
1
1
1
1
1
1
1
1
1
1
1
1
1
1.24073
2.44041
2.69134
2.69055
2.69336
2.69765
2.70341
2.70948
2.715
2.71942
2.72285
2.72581
2.7286
2.73166
2.73491
2.7384
2.74208
2.74588
2.74959
2.75299
2.75604
2.75879
2.76136
2.76387
2.76641
2.76898
2.77155
2.77412
2.77667
2.77913
2.78141
2.78347
2.78538
2.78725
2.78918
2.79118
2.79313
2.79487
2.79628
2.79731
2.79802
2.79855
2.79904
2.79964
2.80039
2.80124
2.80205
2.80265
1
1
1
1
1
1
1
1
1
1
1
1
1
1
1
1
1
1
1
1
1
1
1
1
1
1
1
1
1
1
1
1
1
1
1
1
1
1
1
1
1
1
1
1
1
1
1
1
1.19139
2.41045
2.68941
2.68973
2.69336
2.69805
2.70349
2.70892
2.71395
2.71822
2.72176
2.72494
2.7279
2.73104
2.73427
2.7377
2.74134
2.74508
2.74876
2.75217
2.75528
2.75813
2.7608
2.7634
2.76598
2.76852
2.77102
2.77346
2.77587
2.7782
2.7804
2.78246
2.78442
2.78636
2.78833
2.79031
2.7922
2.79386
2.79522
2.79623
2.79697
2.79752
2.79802
2.79859
2.7993
2.8001
2.80086
2.80144
1
1
1
1
1
1
1
1
1
1
1
1
1
1
1
1
1
1
1
1
1
1
1
1
1
1
1
1
1
1
1
1
1
1
1
1
1
1
1
1
1
1
1
1
1
1
1
1
1.12601
2.36862
2.68725
2.68924
2.69388
2.69866
2.70346
2.70818
2.71274
2.71694
2.72069
2.72419
2.7274
2.73064
2.73385
2.73719
2.7407
2.7443
2.74785
2.75121
2.75436
2.75733
2.76014
2.76283
2.76543
2.76793
2.77032
2.77264
2.77491
2.77714
2.77929
2.78134
2.78335
2.78535
2.78737
2.78935
2.79118
2.79276
2.79403
2.795
2.79569
2.79619
2.79662
2.79709
2.79768
2.79836
2.79901
2.79953
1
1
1
1
1
1
1
1
1
1
1
1
1
1
1
1
1
1
1
1
1
1
1
1
1
1
1
1
1
1
1
1
1
1
1
1
1
1
1
1
1
1
1
1
1
1
1
1
1.00697
2.29888
2.68592
2.69037
2.69473
2.69942
2.70361
2.70764
2.71168
2.71584
2.71997
2.72397
2.7275
2.73081
2.73396
2.73718
2.74043
2.74369
2.74691
2.75005
2.75314
2.75616
2.75908
2.76183
2.76439
2.76676
2.76898
2.77114
2.77327
2.77541
2.7775
2.77954
2.78155
2.78357
2.78561
2.78758
2.78938
2.79091
2.79215
2.79312
2.79383
2.79436
2.7948
2.79524
2.79577
2.79637
2.79694
2.7974
1
1
1
1
1
1
1
1
1
1
1
1
1
1
1
1
1
1
1
1
1
1
1
1
1
1
1
1
1
1
1
1
1
1
1
1
1
1
1
1
1
1
1
1
1
1
1
1
1.00003
2.20986
2.67995
2.68754
2.69135
2.69619
2.70038
2.70438
2.70839
2.71265
2.71705
2.72136
2.72518
2.72867
2.73194
2.7352
2.73837
2.74141
2.74435
2.7473
2.75037
2.75354
2.75665
2.75954
2.7621
2.76439
2.7665
2.76857
2.77068
2.77282
2.77495
2.77701
2.77902
2.78105
2.78307
2.78503
2.7868
2.7883
2.78951
2.79046
2.79118
2.79173
2.79216
2.79257
2.79303
2.79356
2.79405
2.79447
1
1
1
1
1
1
1
1
1
1
1
1
1
1
1
1
1
1
1
1
1
1
1
1
1
1
1
1
1
1
1
1
1
1
1
1
1
1
1
1
1
1
1
1
1
1
1
1
1
2.0851
2.67005
2.68429
2.68764
2.69235
2.69692
2.70153
2.70598
2.71032
2.71455
2.71853
2.72219
2.72567
2.72908
2.73253
2.73585
2.73887
2.74168
2.74445
2.74747
2.7507
2.75396
2.75696
2.75954
2.76173
2.76373
2.76572
2.76779
2.76994
2.77208
2.77415
2.77615
2.77814
2.78012
2.78201
2.78372
2.78515
2.7863
2.78721
2.78792
2.78846
2.78889
2.78927
2.78967
2.79013
2.79054
2.79092
1
1
1
1
1
1
1
1
1
1
1
1
1
1
1
1
1
1
1
1
1
1
1
1
1
1
1
1
1
1
1
1
1
1
1
1
1
1
1
1
1
1
1
1
1
1
1
1
1
1.91534
2.64249
2.6767
2.68091
2.68622
2.69151
2.6969
2.70197
2.70651
2.71058
2.71423
2.71765
2.72107
2.72466
2.72843
2.73202
2.73516
2.73794
2.74057
2.74345
2.74665
2.74995
2.75301
2.7556
2.75776
2.75971
2.76166
2.76373
2.7659
2.76807
2.77016
2.77215
2.77408
2.77599
2.7778
2.77941
2.78078
2.78188
2.78278
2.7835
2.78407
2.78452
2.78491
2.78529
2.7857
2.78605
2.7864
1
1
1
1
1
1
1
1
1
1
1
1
1
1
1
1
1
1
1
1
1
1
1
1
1
1
1
1
1
1
1
1
1
1
1
1
1
1
1
1
1
1
1
1
1
1
1
1
1
1.6898
2.58797
2.67028
2.67506
2.6808
2.68597
2.69148
2.69696
2.7018
2.70589
2.70936
2.71253
2.71581
2.71946
2.72347
2.72737
2.73075
2.73364
2.73623
2.73895
2.74198
2.74515
2.74816
2.75074
2.75289
2.7548
2.75668
2.75867
2.76076
2.76288
2.76495
2.76693
2.76884
2.7707
2.77245
2.77399
2.77528
2.77634
2.77719
2.77789
2.77842
2.77884
2.77918
2.77949
2.77985
2.78014
2.78044
1
1
1
1
1
1
1
1
1
1
1
1
1
1
1
1
1
1
1
1
1
1
1
1
1
1
1
1
1
1
1
1
1
1
1
1
1
1
1
1
1
1
1
1
1
1
1
1
1
1.38315
2.48179
2.67065
2.67168
2.6772
2.68097
2.68574
2.69113
2.6962
2.70047
2.70398
2.707
2.7101
2.71364
2.71771
2.72183
2.72549
2.72861
2.73127
2.73386
2.73666
2.73961
2.74251
2.74513
2.74739
2.74937
2.75123
2.7531
2.755
2.75693
2.75883
2.76066
2.76243
2.7641
2.7656
2.7669
2.76796
2.76884
2.76959
2.77024
2.77078
2.77123
2.77159
2.77193
2.77232
2.77262
2.77293
1
1
1
1
1
1
1
1
1
1
1
1
1
1
1
1
1
1
1
1
1
1
1
1
1
1
1
1
1
1
1
1
1
1
1
1
1
1
1
1
1
1
1
1
1
1
1
1
1
1.01619
2.29941
2.67778
2.67736
2.67939
2.68174
2.68492
2.68875
2.69269
2.69633
2.69957
2.70235
2.70504
2.70805
2.71162
2.71545
2.71906
2.72221
2.72488
2.72724
2.72964
2.7322
2.73484
2.73743
2.73979
2.74191
2.74382
2.7456
2.74734
2.74908
2.75084
2.75261
2.75433
2.75594
2.75736
2.75854
2.75947
2.76022
2.76081
2.76124
2.76149
2.76157
2.76152
2.76147
2.76159
2.76177
2.76198
1
1
1
1
1
1
1
1
1
1
1
1
1
1
1
1
1
1
1
1
1
1
1
1
1
1
1
1
1
1
1
1
1
1
1
1
1
1
1
1
1
1
1
1
1
1
1
1
1
1.00003
2.01864
2.6471
2.66184
2.66568
2.67038
2.67487
2.67923
2.68338
2.68717
2.69056
2.69348
2.69613
2.69893
2.70216
2.70574
2.70933
2.7126
2.71538
2.71775
2.71994
2.72222
2.72464
2.72719
2.72972
2.73206
2.73414
2.73592
2.73749
2.73897
2.74047
2.74204
2.7436
2.74503
2.74619
2.747
2.74749
2.74773
2.74776
2.74766
2.74748
2.7473
2.74717
2.74707
2.74717
2.74726
2.74744
1
1
1
1
1
1
1
1
1
1
1
1
1
1
1
1
1
1
1
1
1
1
1
1
1
1
1
1
1
1
1
1
1
1
1
1
1
1
1
1
1
1
1
1
1
1
1
1
1
1
1.54514
2.51744
2.64709
2.65409
2.66154
2.66674
2.67139
2.67582
2.67999
2.6837
2.68685
2.68952
2.69214
2.69499
2.69814
2.70139
2.70445
2.70707
2.70925
2.71111
2.7129
2.71484
2.717
2.71929
2.72154
2.72355
2.72517
2.7264
2.72739
2.72837
2.72946
2.73065
2.73175
2.73262
2.73311
2.73327
2.73323
2.73297
2.73244
2.7317
2.73069
2.72944
2.72767
2.7254
2.72286
2.72084
1
1
1
1
1
1
1
1
1
1
1
1
1
1
1
1
1
1
1
1
1
1
1
1
1
1
1
1
1
1
1
1
1
1
1
1
1
1
1
1
1
1
1
1
1
1
1
1
1
1
1.02769
2.25432
2.65686
2.65585
2.65697
2.65962
2.66303
2.66703
2.67109
2.67473
2.67779
2.68036
2.68281
2.68541
2.68822
2.6911
2.69386
2.69628
2.69829
2.69993
2.70132
2.70274
2.70435
2.70621
2.70815
2.70997
2.71145
2.71239
2.71281
2.71315
2.71352
2.71398
2.71437
2.71452
2.71435
2.71375
2.71254
2.71061
2.7079
2.7045
2.7006
2.69655
2.69295
2.6894
2.68696
2.68578
1
1
1
1
1
1
1
1
1
1
1
1
1
1
1
1
1
1
1
1
1
1
1
1
1
1
1
1
1
1
1
1
1
1
1
1
1
1
1
1
1
1
1
1
1
1
1
1
1
1
1.00005
1.76734
2.56194
2.63445
2.63959
2.64395
2.64822
2.65279
2.65729
2.66141
2.66496
2.66799
2.67079
2.67362
2.6765
2.67932
2.68192
2.68417
2.68603
2.68754
2.68878
2.68983
2.6908
2.69185
2.69304
2.69434
2.6955
2.69595
2.69589
2.69552
2.69481
2.69396
2.69305
2.692
2.69067
2.68881
2.68612
2.68243
2.67776
2.67234
2.66637
2.66027
2.65451
2.65207
2.64921
2.66372
1
1
1
1
1
1
1
1
1
1
1
1
1
1
1
1
1
1
1
1
1
1
1
1
1
1
1
1
1
1
1
1
1
1
1
1
1
1
1
1
1
1
1
1
1
1
1
1
1
1
1
1.11935
2.34556
2.63096
2.6301
2.6327
2.63675
2.6411
2.64559
2.64986
2.65361
2.6568
2.65967
2.6625
2.66535
2.66808
2.67046
2.67244
2.6741
2.67557
2.67685
2.67759
2.67805
2.6784
2.67873
2.6792
2.67966
2.67965
2.67927
2.67824
2.6765
2.6743
2.67187
2.66924
2.66623
2.66253
2.65762
2.65106
2.64227
2.63095
2.61566
2.59516
2.56506
2.52219
2.4581
2.32984
1
1
1
1
1
1
1
1
1
1
1
1
1
1
1
1
1
1
1
1
1
1
1
1
1
1
1
1
1
1
1
1
1
1
1
1
1
1
1
1
1
1
1
1
1
1
1
1
1
1
1
1.00116
2.0141
2.59729
2.61405
2.61833
2.62274
2.627
2.63146
2.63587
2.63989
2.64336
2.6465
2.64963
2.65285
2.65593
2.65854
2.66058
2.66223
2.66373
2.6651
2.66587
2.66634
2.66639
2.66615
2.66577
2.66542
2.66491
2.66401
2.66238
2.65988
2.65663
2.65281
2.64853
2.64359
2.63779
2.63039
2.62092
2.60807
2.59159
2.56887
2.53876
2.49441
2.43537
2.32445
2.16175
1
1
1
1
1
1
1
1
1
1
1
1
1
1
1
1
1
1
1
1
1
1
1
1
1
1
1
1
1
1
1
1
1
1
1
1
1
1
1
1
1
1
1
1
1
1
1
1
1
1
1
0.999999
1.38729
2.42398
2.60065
2.60387
2.60977
2.61526
2.62016
2.6244
2.62814
2.63132
2.63426
2.63729
2.6406
2.64397
2.64665
2.64874
2.65033
2.65167
2.6528
2.65361
2.65401
2.6539
2.65337
2.65246
2.65137
2.65007
2.64832
2.64585
2.64248
2.63822
2.63308
2.62718
2.62019
2.61212
2.6021
2.58977
2.57363
2.55298
2.52573
2.48911
2.44017
2.36754
2.26295
2.1325
1
1
1
1
1
1
1
1
1
1
1
1
1
1
1
1
1
1
1
1
1
1
1
1
1
1
1
1
1
1
1
1
1
1
1
1
1
1
1
1
1
1
1
1
1
1
1
1
1
1
1
1
1.01496
2.11543
2.59756
2.59614
2.59806
2.6029
2.60825
2.61252
2.61596
2.61855
2.62092
2.62359
2.62685
2.63039
2.63328
2.63551
2.63706
2.6382
2.63912
2.63979
2.64005
2.63982
2.63916
2.6381
2.63666
2.63475
2.63219
2.62883
2.62452
2.6193
2.613
2.60573
2.59702
2.58684
2.5745
2.5596
2.5411
2.51778
2.48837
2.4497
2.39917
2.33356
2.24798
2.14903
1
1
1
1
1
1
1
1
1
1
1
1
1
1
1
1
1
1
1
1
1
1
1
1
1
1
1
1
1
1
1
1
1
1
1
1
1
1
1
1
1
1
1
1
1
1
1
1
1
1
1
1
1.00001
1.4566
2.43837
2.58684
2.58957
2.59509
2.59951
2.6025
2.60478
2.60644
2.60808
2.61023
2.61315
2.61626
2.61906
2.62128
2.62275
2.62374
2.62453
2.62513
2.6253
2.62494
2.62407
2.62288
2.62126
2.61902
2.61588
2.6118
2.60662
2.60049
2.59319
2.58479
2.57488
2.56321
2.54928
2.53259
2.51251
2.48797
2.45818
2.42004
2.3737
2.31777
2.25084
2.1717
1
1
1
1
1
1
1
1
1
1
1
1
1
1
1
1
1
1
1
1
1
1
1
1
1
1
1
1
1
1
1
1
1
1
1
1
1
1
1
1
1
1
1
1
1
1
1
1
1
1
1
1
1
1.02038
2.11713
2.58586
2.58691
2.58882
2.59097
2.59285
2.59427
2.59522
2.59618
2.59767
2.59983
2.60251
2.60497
2.607
2.60811
2.60853
2.60888
2.60931
2.60946
2.60909
2.60814
2.60683
2.60506
2.60262
2.59911
2.59452
2.58871
2.58185
2.57379
2.56452
2.55379
2.54128
2.52657
2.50907
2.48841
2.46362
2.43458
2.39917
2.35778
2.31047
2.25589
2.19547
1
1
1
1
1
1
1
1
1
1
1
1
1
1
1
1
1
1
1
1
1
1
1
1
1
1
1
1
1
1
1
1
1
1
1
1
1
1
1
1
1
1
1
1
1
1
1
1
1
1
1
1
1
1.00002
1.41189
2.41328
2.57544
2.57755
2.58091
2.58302
2.58399
2.58422
2.58463
2.58533
2.58684
2.58912
2.59108
2.59262
2.59311
2.59279
2.59242
2.59247
2.5925
2.59223
2.59141
2.59009
2.58815
2.58546
2.58164
2.57673
2.57062
2.56343
2.55497
2.54515
2.53389
2.521
2.50621
2.48884
2.46886
2.44446
2.41744
2.3847
2.34772
2.30711
2.26152
2.21278
1
1
1
1
1
1
1
1
1
1
1
1
1
1
1
1
1
1
1
1
1
1
1
1
1
1
1
1
1
1
1
1
1
1
1
1
1
1
1
1
1
1
1
1
1
1
1
1
1
1
1
1
1
1
1.0153
2.03875
2.55994
2.56754
2.57052
2.57267
2.57437
2.57477
2.57516
2.57529
2.57636
2.57826
2.57976
2.58057
2.58031
2.57911
2.5775
2.57644
2.57575
2.57524
2.57447
2.5732
2.57117
2.56819
2.56399
2.5587
2.55241
2.54517
2.53675
2.52688
2.51546
2.50245
2.48776
2.47086
2.4521
2.42898
2.4043
2.37433
2.34185
2.30773
2.26728
2.22552
1
1
1
1
1
1
1
1
1
1
1
1
1
1
1
1
1
1
1
1
1
1
1
1
1
1
1
1
1
1
1
1
1
1
1
1
1
1
1
1
1
1
1
1
1
1
1
1
1
1
1
1
1
1
1.00002
1.23922
2.3494
2.56361
2.5612
2.56197
2.56293
2.56347
2.56375
2.56394
2.56492
2.56652
2.56771
2.56796
2.56746
2.56585
2.56338
2.56126
2.55957
2.55854
2.55756
2.55616
2.55393
2.55068
2.54613
2.54049
2.53401
2.52677
2.51864
2.50919
2.49819
2.48553
2.47135
2.45485
2.43718
2.41601
2.39337
2.36678
2.33897
2.30806
2.27147
2.23636
1
1
1
1
1
1
1
1
1
1
1
1
1
1
1
1
1
1
1
1
1
1
1
1
1
1
1
1
1
1
1
1
1
1
1
1
1
1
1
1
1
1
1
1
1
1
1
1
1
1
1
1
1
1
1
1.00409
1.85879
2.50709
2.53867
2.54388
2.54773
2.54938
2.5503
2.55087
2.55204
2.55365
2.55485
2.55525
2.55492
2.55348
2.55072
2.54773
2.5449
2.54302
2.54144
2.5396
2.53705
2.53355
2.52874
2.5228
2.51602
2.50862
2.50072
2.49186
2.48169
2.46984
2.45649
2.44048
2.42378
2.4042
2.38355
2.36076
2.33582
2.30708
2.27599
2.24604
1
1
1
1
1
1
1
1
1
1
1
1
1
1
1
1
1
1
1
1
1
1
1
1
1
1
1
1
1
1
1
1
1
1
1
1
1
1
1
1
1
1
1
1
1
1
1
1
1
1
1
1
1
1
1
1
1.10093
2.20929
2.53307
2.53581
2.53538
2.53558
2.53664
2.53753
2.53893
2.54089
2.54224
2.5427
2.54253
2.54144
2.53892
2.53559
2.53201
2.52935
2.52691
2.52423
2.52123
2.51748
2.51239
2.50626
2.49918
2.49142
2.48344
2.47485
2.46549
2.45451
2.44224
2.4275
2.41164
2.39354
2.37514
2.35476
2.33085
2.30608
2.2805
2.25322
1
1
1
1
1
1
1
1
1
1
1
1
1
1
1
1
1
1
1
1
1
1
1
1
1
1
1
1
1
1
1
1
1
1
1
1
1
1
1
1
1
1
1
1
1
1
1
1
1
1
1
1
1
1
1
1
1.00067
1.44927
2.36204
2.51366
2.51317
2.51638
2.51925
2.52184
2.52434
2.52712
2.52898
2.52931
2.52911
2.5282
2.52609
2.52302
2.51942
2.51646
2.51343
2.51005
2.50647
2.50244
2.49717
2.49093
2.48363
2.4756
2.46727
2.45859
2.44992
2.43938
2.42817
2.41502
2.40021
2.38397
2.36722
2.34771
2.32594
2.3057
2.28292
2.25784
1
1
1
1
1
1
1
1
1
1
1
1
1
1
1
1
1
1
1
1
1
1
1
1
1
1
1
1
1
1
1
1
1
1
1
1
1
1
1
1
1
1
1
1
1
1
1
1
1
1
1
1
1
1
1
1
1
1.01795
1.89141
2.4678
2.4976
2.50245
2.50541
2.50797
2.51071
2.51382
2.51577
2.51577
2.51529
2.51415
2.51215
2.50944
2.50628
2.50341
2.50058
2.49704
2.49319
2.4889
2.48373
2.47737
2.46998
2.46185
2.45318
2.44439
2.4354
2.42527
2.41469
2.40275
2.3894
2.37509
2.35917
2.34089
2.3226
2.30476
2.28295
2.26104
1
1
1
1
1
1
1
1
1
1
1
1
1
1
1
1
1
1
1
1
1
1
1
1
1
1
1
1
1
1
1
1
1
1
1
1
1
1
1
1
1
1
1
1
1
1
1
1
1
1
1
1
1
1
1
1
1
1.00003
1.11707
2.12133
2.47575
2.49614
2.49662
2.49797
2.49952
2.50132
2.50248
2.50227
2.50133
2.49976
2.49756
2.49503
2.49229
2.48969
2.48757
2.48446
2.4809
2.47656
2.47137
2.46503
2.4576
2.44938
2.4408
2.43176
2.42245
2.41277
2.40255
2.3914
2.37948
2.36634
2.35103
2.33516
2.31929
2.30241
2.28305
2.26459
1
1
1
1
1
1
1
1
1
1
1
1
1
1
1
1
1
1
1
1
1
1
1
1
1
1
1
1
1
1
1
1
1
1
1
1
1
1
1
1
1
1
1
1
1
1
1
1
1
1
1
1
1
1
1
1
1
1
1.00092
1.26702
2.26383
2.47937
2.48114
2.48272
2.48328
2.48414
2.48495
2.48523
2.48485
2.48366
2.48195
2.47992
2.47768
2.47547
2.47377
2.47146
2.46838
2.4645
2.45954
2.45358
2.44627
2.43826
2.42967
2.42078
2.41177
2.40248
2.39264
2.3821
2.37108
2.3583
2.34404
2.33069
2.31632
2.30066
2.28436
2.26855
1
1
1
1
1
1
1
1
1
1
1
1
1
1
1
1
1
1
1
1
1
1
1
1
1
1
1
1
1
1
1
1
1
1
1
1
1
1
1
1
1
1
1
1
1
1
1
1
1
1
1
1
1
1
1
1
1
1
1
1.00512
1.6557
2.37543
2.45812
2.45593
2.45796
2.46047
2.46298
2.46482
2.46584
2.46566
2.46486
2.46385
2.46237
2.46072
2.45948
2.45781
2.45534
2.45204
2.44768
2.44221
2.43529
2.42761
2.4194
2.41102
2.40264
2.39403
2.38477
2.3748
2.36426
2.35216
2.33972
2.32837
2.3154
2.30141
2.28774
2.27377
1
1
1
1
1
1
1
1
1
1
1
1
1
1
1
1
1
1
1
1
1
1
1
1
1
1
1
1
1
1
1
1
1
1
1
1
1
1
1
1
1
1
1
1
1
1
1
1
1
1
1
1
1
1
1
1
1
1
1
1.00001
1.04918
1.90752
2.4177
2.44509
2.44444
2.44624
2.44734
2.44827
2.44896
2.44905
2.44874
2.44837
2.44756
2.44634
2.44529
2.44379
2.44165
2.43879
2.43502
2.43032
2.42432
2.41734
2.40995
2.40221
2.39449
2.38643
2.37777
2.36884
2.35949
2.34947
2.3397
2.32976
2.31759
2.30505
2.29341
2.2806
1
1
1
1
1
1
1
1
1
1
1
1
1
1
1
1
1
1
1
1
1
1
1
1
1
1
1
1
1
1
1
1
1
1
1
1
1
1
1
1
1
1
1
1
1
1
1
1
1
1
1
1
1
1
1
1
1
1
1
1
1.00021
1.13244
2.02344
2.41321
2.43556
2.43776
2.43792
2.43728
2.43647
2.43554
2.43457
2.43378
2.43281
2.43167
2.43048
2.4289
2.42689
2.42436
2.42116
2.41721
2.41236
2.40645
2.39987
2.39311
2.38625
2.37918
2.37233
2.36566
2.35863
2.35084
2.34261
2.33369
2.32248
2.31151
2.3011
2.28888
1
1
1
1
1
1
1
1
1
1
1
1
1
1
1
1
1
1
1
1
1
1
1
1
1
1
1
1
1
1
1
1
1
1
1
1
1
1
1
1
1
1
1
1
1
1
1
1
1
1
1
1
1
1
1
1
1
1
1
1
1
1.00123
1.21099
2.10217
2.39897
2.4291
2.42827
2.42747
2.42627
2.42456
2.42289
2.42153
2.42011
2.41855
2.41682
2.4148
2.41253
2.41002
2.40707
2.40356
2.39949
2.3947
2.3893
2.3842
2.37953
2.37488
2.37061
2.36617
2.36036
2.35427
2.3475
2.33912
2.3289
2.31945
2.30977
2.29795
1
1
1
1
1
1
1
1
1
1
1
1
1
1
1
1
1
1
1
1
1
1
1
1
1
1
1
1
1
1
1
1
1
1
1
1
1
1
1
1
1
1
1
1
1
1
1
1
1
1
1
1
1
1
1
1
1
1
1
1
1
1
1.00314
1.29366
2.15513
2.38929
2.4106
2.4134
2.41318
2.41244
2.41116
2.40979
2.4081
2.40615
2.40396
2.40164
2.39917
2.39655
2.39354
2.39036
2.38733
2.38441
2.38145
2.37867
2.3761
2.3736
2.37112
2.3677
2.36293
2.35819
2.35224
2.34434
2.33556
2.32755
2.31822
2.30701
1
1
1
1
1
1
1
1
1
1
1
1
1
1
1
1
1
1
1
1
1
1
1
1
1
1
1
1
1
1
1
1
1
1
1
1
1
1
1
1
1
1
1
1
1
1
1
1
1
1
1
1
1
1
1
1
1
1
1
1
1
1
1
1.00639
1.37676
2.19417
2.37597
2.39137
2.39515
2.39593
2.39601
2.39546
2.39435
2.39287
2.39104
2.38892
2.38671
2.38418
2.38183
2.38007
2.379
2.37823
2.37758
2.37679
2.37579
2.37431
2.37244
2.3693
2.36529
2.36148
2.35595
2.34881
2.34189
2.33491
2.32568
2.31552
1
1
1
1
1
1
1
1
1
1
1
1
1
1
1
1
1
1
1
1
1
1
1
1
1
1
1
1
1
1
1
1
1
1
1
1
1
1
1
1
1
1
1
1
1
1
1
1
1
1
1
1
1
1
1
1
1
1
1
1
1
1
1
1.00001
1.01155
1.45043
2.22493
2.36685
2.37113
2.37378
2.37477
2.37582
2.37594
2.37574
2.37516
2.37429
2.3733
2.37291
2.37329
2.37422
2.37573
2.37735
2.37828
2.37796
2.3772
2.3761
2.3742
2.37096
2.36759
2.36418
2.35871
2.35251
2.34709
2.34044
2.33146
2.32277
1
1
1
1
1
1
1
1
1
1
1
1
1
1
1
1
1
1
1
1
1
1
1
1
1
1
1
1
1
1
1
1
1
1
1
1
1
1
1
1
1
1
1
1
1
1
1
1
1
1
1
1
1
1
1
1
1
1
1
1
1
1
1
1
1.00003
1.01828
1.54677
2.25103
2.354
2.35282
2.35375
2.35396
2.35455
2.35541
2.35665
2.35856
2.36154
2.3654
2.36989
2.37445
2.37788
2.38017
2.3812
2.38081
2.38008
2.37881
2.37625
2.37286
2.36994
2.36633
2.36082
2.35572
2.35115
2.34448
2.33614
2.32902
1
1
1
1
1
1
1
1
1
1
1
1
1
1
1
1
1
1
1
1
1
1
1
1
1
1
1
1
1
1
1
1
1
1
1
1
1
1
1
1
1
1
1
1
1
1
1
1
1
1
1
1
1
1
1
1
1
1
1
1
1
1
1
1
1
1.00005
1.03101
1.61158
2.26126
2.34043
2.33777
2.33578
2.33589
2.33682
2.34
2.34547
2.35193
2.36079
2.36888
2.37563
2.38046
2.38305
2.38374
2.38316
2.3822
2.38052
2.3775
2.37449
2.37187
2.36784
2.36253
2.35847
2.35412
2.34737
2.34017
2.33435
1
1
1
1
1
1
1
1
1
1
1
1
1
1
1
1
1
1
1
1
1
1
1
1
1
1
1
1
1
1
1
1
1
1
1
1
1
1
1
1
1
1
1
1
1
1
1
1
1
1
1
1
1
1
1
1
1
1
1
1
1
1
1
1
1
1
1.00012
1.04324
1.63185
2.25383
2.32755
2.32498
2.32447
2.32608
2.33136
2.34113
2.35246
2.36298
2.37102
2.3784
2.38181
2.38335
2.38332
2.38284
2.38206
2.38042
2.37775
2.37566
2.37335
2.36918
2.3645
2.36117
2.35664
2.35002
2.34411
2.33912
1
1
1
1
1
1
1
1
1
1
1
1
1
1
1
1
1
1
1
1
1
1
1
1
1
1
1
1
1
1
1
1
1
1
1
1
1
1
1
1
1
1
1
1
1
1
1
1
1
1
1
1
1
1
1
1
1
1
1
1
1
1
1
1
1
1
1
1.00021
1.04857
1.61731
2.23757
2.31626
2.31825
2.32621
2.33711
2.34938
2.36022
2.36902
2.3756
2.38091
2.38194
2.38243
2.382
2.38131
2.3805
2.37876
2.37642
2.37483
2.37268
2.36877
2.36523
2.36254
2.35807
2.35222
2.34762
2.34325
1
1
1
1
1
1
1
1
1
1
1
1
1
1
1
1
1
1
1
1
1
1
1
1
1
1
1
1
1
1
1
1
1
1
1
1
1
1
1
1
1
1
1
1
1
1
1
1
1
1
1
1
1
1
1
1
1
1
1
1
1
1
1
1
1
1
1
1
1.00026
1.04627
1.60086
2.21882
2.31654
2.33621
2.34959
2.36335
2.37179
2.3771
2.38008
2.38133
2.38092
2.38006
2.37904
2.37847
2.37771
2.37593
2.37421
2.37309
2.37106
2.36769
2.36493
2.36242
2.358
2.35323
2.34963
2.34578
1
1
1
1
1
1
1
1
1
1
1
1
1
1
1
1
1
1
1
1
1
1
1
1
1
1
1
1
1
1
1
1
1
1
1
1
1
1
1
1
1
1
1
1
1
1
1
1
1
1
1
1
1
1
1
1
1
1
1
1
1
1
1
1
1
1
1
1
1
1.00024
1.04286
1.56787
2.25144
2.35458
2.36824
2.37642
2.3806
2.38253
2.3829
2.38231
2.3809
2.37859
2.37693
2.37604
2.37428
2.37164
2.37073
2.37019
2.36819
2.36531
2.36344
2.36132
2.35746
2.35379
2.35045
2.34658
1
1
1
1
1
1
1
1
1
1
1
1
1
1
1
1
1
1
1
1
1
1
1
1
1
1
1
1
1
1
1
1
1
1
1
1
1
1
1
1
1
1
1
1
1
1
1
1
1
1
1
1
1
1
1
1
1
1
1
1
1
1
1
1
1
1
1
1
1
1
1.00022
1.03654
1.78467
2.37697
2.41157
2.40728
2.40216
2.39623
2.39179
2.38795
2.38395
2.3802
2.37812
2.37668
2.37393
2.37089
2.3697
2.36855
2.36536
2.36217
2.36079
2.3589
2.35566
2.35294
2.34993
2.34622
1
1
1
1
1
1
1
1
1
1
1
1
1
1
1
1
1
1
1
1
1
1
1
1
1
1
1
1
1
1
1
1
1
1
1
1
1
1
1
1
1
1
1
1
1
1
1
1
1
1
1
1
1
1
1
1
1
1
1
1
1
1
1
1
1
1
1
1
1
1
1
1.00015
1.08967
2.14915
2.48785
2.46921
2.45098
2.43462
2.42075
2.40913
2.39899
2.39104
2.3858
2.38141
2.37659
2.37307
2.37131
2.36937
2.36562
2.36248
2.36082
2.35822
2.3543
2.35137
2.3484
2.34488
1
1
1
1
1
1
1
1
1
1
1
1
1
1
1
1
1
1
1
1
1
1
1
1
1
1
1
1
1
1
1
1
1
1
1
1
1
1
1
1
1
1
1
1
1
1
1
1
1
1
1
1
1
1
1
1
1
1
1
1
1
1
1
1
1
1
1
1
1
1
1
1
1.00056
1.46606
2.386
2.50355
2.49178
2.47697
2.46109
2.44589
2.43219
2.42051
2.41021
2.40057
2.39194
2.38518
2.38021
2.37503
2.36925
2.36512
2.36236
2.35897
2.35486
2.35178
2.34879
2.34524
1
1
1
1
1
1
1
1
1
1
1
1
1
1
1
1
1
1
1
1
1
1
1
1
1
1
1
1
1
1
1
1
1
1
1
1
1
1
1
1
1
1
1
1
1
1
1
1
1
1
1
1
1
1
1
1
1
1
1
1
1
1
1
1
1
1
1
1
1
1
1
1
1
1.01892
2.04615
2.53918
2.53246
2.51982
2.5076
2.49406
2.47969
2.46532
2.45118
2.43799
2.42584
2.41449
2.40429
2.39422
2.3852
2.37801
2.37207
2.36586
2.3599
2.35536
2.35119
2.34696
1
1
1
1
1
1
1
1
1
1
1
1
1
1
1
1
1
1
1
1
1
1
1
1
1
1
1
1
1
1
1
1
1
1
1
1
1
1
1
1
1
1
1
1
1
1
1
1
1
1
1
1
1
1
1
1
1
1
1
1
1
1
1
1
1
1
1
1
1
1
1
1
1
1.00003
1.29387
2.38577
2.56321
2.5539
2.54397
2.53302
2.52122
2.50858
2.49531
2.48174
2.46802
2.45437
2.44104
2.42845
2.41717
2.40663
2.39648
2.38654
2.37766
2.37007
2.36306
2.35637
1
1
1
1
1
1
1
1
1
1
1
1
1
1
1
1
1
1
1
1
1
1
1
1
1
1
1
1
1
1
1
1
1
1
1
1
1
1
1
1
1
1
1
1
1
1
1
1
1
1
1
1
1
1
1
1
1
1
1
1
1
1
1
1
1
1
1
1
1
1
1
1
1
1
1.00622
2.013
2.56274
2.56421
2.55849
2.55262
2.54596
2.53818
2.52919
2.51914
2.5081
2.49618
2.48374
2.47108
2.45833
2.44563
2.43329
2.42165
2.4109
2.40038
2.39007
2.38021
1
1
1
1
1
1
1
1
1
1
1
1
1
1
1
1
1
1
1
1
1
1
1
1
1
1
1
1
1
1
1
1
1
1
1
1
1
1
1
1
1
1
1
1
1
1
1
1
1
1
1
1
1
1
1
1
1
1
1
1
1
1
1
1
1
1
1
1
1
1
1
1
1
1
1
1.32269
2.41531
2.5837
2.57552
2.57016
2.56515
2.55975
2.55357
2.54628
2.53822
2.5295
2.52004
2.50987
2.49896
2.48767
2.47598
2.46405
2.45205
2.43996
2.42807
2.41673
1
1
1
1
1
1
1
1
1
1
1
1
1
1
1
1
1
1
1
1
1
1
1
1
1
1
1
1
1
1
1
1
1
1
1
1
1
1
1
1
1
1
1
1
1
1
1
1
1
1
1
1
1
1
1
1
1
1
1
1
1
1
1
1
1
1
1
1
1
1
1
1
1
1
1
1.00803
2.11947
2.59595
2.59221
2.58553
2.58038
2.57511
2.56978
2.56407
2.55796
2.55148
2.54451
2.53701
2.52892
2.52026
2.511
2.50108
2.49053
2.47963
2.46855
2.45749
1
1
1
1
1
1
1
1
1
1
1
1
1
1
1
1
1
1
1
1
1
1
1
1
1
1
1
1
1
1
1
1
1
1
1
1
1
1
1
1
1
1
1
1
1
1
1
1
1
1
1
1
1
1
1
1
1
1
1
1
1
1
1
1
1
1
1
1
1
1
1
1
1
1
1
1
1.54841
2.48327
2.60565
2.60049
2.59603
2.59101
2.58568
2.58027
2.57475
2.56913
2.56331
2.55722
2.55081
2.54384
2.53648
2.52888
2.5208
2.51235
2.50348
2.49426
1
1
1
1
1
1
1
1
1
1
1
1
1
1
1
1
1
1
1
1
1
1
1
1
1
1
1
1
1
1
1
1
1
1
1
1
1
1
1
1
1
1
1
1
1
1
1
1
1
1
1
1
1
1
1
1
1
1
1
1
1
1
1
1
1
1
1
1
1
1
1
1
1
1
1
1
1.03267
2.25324
2.61933
2.6171
2.60924
2.60362
2.59796
2.59245
2.587
2.5816
2.57618
2.57074
2.56518
2.55949
2.55359
2.54748
2.54114
2.53453
2.52757
2.52026
1
1
1
1
1
1
1
1
1
1
1
1
1
1
1
1
1
1
1
1
1
1
1
1
1
1
1
1
1
1
1
1
1
1
1
1
1
1
1
1
1
1
1
1
1
1
1
1
1
1
1
1
1
1
1
1
1
1
1
1
1
1
1
1
1
1
1
1
1
1
1
1
1
1
1
1
1.00006
1.8451
2.56537
2.61349
2.60902
2.6062
2.60284
2.59913
2.59498
2.59056
2.58592
2.58119
2.57634
2.57146
2.56651
2.5614
2.55613
2.55063
2.54489
2.53891
1
1
1
1
1
1
1
1
1
1
1
1
1
1
1
1
1
1
1
1
1
1
1
1
1
1
1
1
1
1
1
1
1
1
1
1
1
1
1
1
1
1
1
1
1
1
1
1
1
1
1
1
1
1
1
1
1
1
1
1
1
1
1
1
1
1
1
1
1
1
1
1
1
1
1
1
1
1.29609
2.41757
2.62153
2.61515
2.61259
2.60946
2.60594
2.60223
2.5984
2.59437
2.59017
2.58579
2.58132
2.57675
2.57203
2.56722
2.56224
2.55712
2.55187
1
1
1
1
1
1
1
1
1
1
1
1
1
1
1
1
1
1
1
1
1
1
1
1
1
1
1
1
1
1
1
1
1
1
1
1
1
1
1
1
1
1
1
1
1
1
1
1
1
1
1
1
1
1
1
1
1
1
1
1
1
1
1
1
1
1
1
1
1
1
1
1
1
1
1
1
1
1.00758
2.2117
2.63461
2.63091
2.62379
2.6183
2.61333
2.60898
2.60493
2.60094
2.59693
2.59279
2.58855
2.5842
2.57971
2.57514
2.57044
2.56566
2.56082
1
1
1
1
1
1
1
1
1
1
1
1
1
1
1
1
1
1
1
1
1
1
1
1
1
1
1
1
1
1
1
1
1
1
1
1
1
1
1
1
1
1
1
1
1
1
1
1
1
1
1
1
1
1
1
1
1
1
1
1
1
1
1
1
1
1
1
1
1
1
1
1
1
1
1
1
1
1
1.85485
2.59091
2.62941
2.62445
2.62119
2.61756
2.61392
2.6102
2.6065
2.60275
2.59892
2.59498
2.59092
2.58672
2.58242
2.578
2.5735
2.56896
1
1
1
1
1
1
1
1
1
1
1
1
1
1
1
1
1
1
1
1
1
1
1
1
1
1
1
1
1
1
1
1
1
1
1
1
1
1
1
1
1
1
1
1
1
1
1
1
1
1
1
1
1
1
1
1
1
1
1
1
1
1
1
1
1
1
1
1
1
1
1
1
1
1
1
1
1
1
1.3918
2.45926
2.64072
2.63503
2.63203
2.62841
2.62443
2.62024
2.61608
2.61196
2.60785
2.60371
2.59951
2.59522
2.59087
2.58643
2.58195
2.57744
1
1
1
1
1
1
1
1
1
1
1
1
1
1
1
1
1
1
1
1
1
1
1
1
1
1
1
1
1
1
1
1
1
1
1
1
1
1
1
1
1
1
1
1
1
1
1
1
1
1
1
1
1
1
1
1
1
1
1
1
1
1
1
1
1
1
1
1
1
1
1
1
1
1
1
1
1
1
1.01721
2.28341
2.65222
2.64757
2.64122
2.63648
2.63223
2.6281
2.62389
2.61965
2.6154
2.61113
2.60683
2.60249
2.59813
2.59373
2.58932
2.58489
1
1
1
1
1
1
1
1
1
1
1
1
1
1
1
1
1
1
1
1
1
1
1
1
1
1
1
1
1
1
1
1
1
1
1
1
1
1
1
1
1
1
1
1
1
1
1
1
1
1
1
1
1
1
1
1
1
1
1
1
1
1
1
1
1
1
1
1
1
1
1
1
1
1
1
1
1
1
1.00001
2.03958
2.63704
2.64705
2.64401
2.64124
2.63774
2.63397
2.62995
2.62585
2.62171
2.61754
2.61333
2.60909
2.60483
2.60055
2.59626
2.59196
1
1
1
1
1
1
1
1
1
1
1
1
1
1
1
1
1
1
1
1
1
1
1
1
1
1
1
1
1
1
1
1
1
1
1
1
1
1
1
1
1
1
1
1
1
1
1
1
1
1
1
1
1
1
1
1
1
1
1
1
1
1
1
1
1
1
1
1
1
1
1
1
1
1
1
1
1
1
1
1.71572
2.56692
2.64944
2.64427
2.64182
2.63863
2.63536
2.63196
2.62851
2.62496
2.62129
2.61754
2.61371
2.60982
2.60587
2.60188
2.59784
1
1
1
1
1
1
1
1
1
1
1
1
1
1
1
1
1
1
1
1
1
1
1
1
1
1
1
1
1
1
1
1
1
1
1
1
1
1
1
1
1
1
1
1
1
1
1
1
1
1
1
1
1
1
1
1
1
1
1
1
1
1
1
1
1
1
1
1
1
1
1
1
1
1
1
1
1
1
1
1.33993
2.44931
2.65465
2.649
2.64641
2.64315
2.63993
2.63667
2.63339
2.63004
2.62659
2.62305
2.61943
2.61575
2.61199
2.60817
2.60428
1
1
1
1
1
1
1
1
1
1
1
1
1
1
1
1
1
1
1
1
1
1
1
1
1
1
1
1
1
1
1
1
1
1
1
1
1
1
1
1
1
1
1
1
1
1
1
1
1
1
1
1
1
1
1
1
1
1
1
1
1
1
1
1
1
1
1
1
1
1
1
1
1
1
1
1
1
1
1
1.0136
2.311
2.66424
2.65782
2.65224
2.64796
2.64431
2.64089
2.63754
2.63418
2.63075
2.62728
2.62376
2.62018
2.61651
2.61277
2.60896
1
1
1
1
1
1
1
1
1
1
1
1
1
1
1
1
1
1
1
1
1
1
1
1
1
1
1
1
1
1
1
1
1
1
1
1
1
1
1
1
1
1
1
1
1
1
1
1
1
1
1
1
1
1
1
1
1
1
1
1
1
1
1
1
1
1
1
1
1
1
1
1
1
1
1
1
1
1
1
1.00001
2.14343
2.6591
2.65892
2.65558
2.65296
2.64973
2.6463
2.64277
2.63921
2.63561
2.63197
2.62831
2.62461
2.62084
2.617
2.61313
1
1
1
1
1
1
1
1
1
1
1
1
1
1
1
1
1
1
1
1
1
1
1
1
1
1
1
1
1
1
1
1
1
1
1
1
1
1
1
1
1
1
1
1
1
1
1
1
1
1
1
1
1
1
1
1
1
1
1
1
1
1
1
1
1
1
1
1
1
1
1
1
1
1
1
1
1
1
1
1
1.93625
2.63085
2.66368
2.6596
2.65706
2.65379
2.65041
2.64685
2.64324
2.63958
2.63587
2.63214
2.62838
2.62456
2.62068
2.61679
1
1
1
1
1
1
1
1
1
1
1
1
1
1
1
1
1
1
1
1
1
1
1
1
1
1
1
1
1
1
1
1
1
1
1
1
1
1
1
1
1
1
1
1
1
1
1
1
1
1
1
1
1
1
1
1
1
1
1
1
1
1
1
1
1
1
1
1
1
1
1
1
1
1
1
1
1
1
1
1
1.69957
2.577
2.66489
2.6598
2.65699
2.65349
2.65013
2.64669
2.64326
2.63986
2.63647
2.63301
2.62952
2.626
2.6224
2.61875
1
1
1
1
1
1
1
1
1
1
1
1
1
1
1
1
1
1
1
1
1
1
1
1
1
1
1
1
1
1
1
1
1
1
1
1
1
1
1
1
1
1
1
1
1
1
1
1
1
1
1
1
1
1
1
1
1
1
1
1
1
1
1
1
1
1
1
1
1
1
1
1
1
1
1
1
1
1
1
1
1.44314
2.50236
2.66453
2.65936
2.6573
2.65458
2.65175
2.64872
2.64557
2.64236
2.63911
2.63579
2.63242
2.629
2.62552
2.622
1
1
1
1
1
1
1
1
1
1
1
1
1
1
1
1
1
1
1
1
1
1
1
1
1
1
1
1
1
1
1
1
1
1
1
1
1
1
1
1
1
1
1
1
1
1
1
1
1
1
1
1
1
1
1
1
1
1
1
1
1
1
1
1
1
1
1
1
1
1
1
1
1
1
1
1
1
1
1
1
1.21147
2.41181
2.66913
2.66265
2.65944
2.65646
2.65359
2.65062
2.64755
2.64439
2.64117
2.63784
2.6345
2.63114
2.62773
2.62428
1
1
1
1
1
1
1
1
1
1
1
1
1
1
1
1
1
1
1
1
1
1
1
1
1
1
1
1
1
1
1
1
1
1
1
1
1
1
1
1
1
1
1
1
1
1
1
1
1
1
1
1
1
1
1
1
1
1
1
1
1
1
1
1
1
1
1
1
1
1
1
1
1
1
1
1
1
1
1
1
1.04053
2.32311
2.67479
2.67012
2.66523
2.66129
2.65774
2.65437
2.65104
2.64772
2.64438
2.64099
2.6376
2.63418
2.63075
2.62728
1
1
1
1
1
1
1
1
1
1
1
1
1
1
1
1
1
1
1
1
1
1
1
1
1
1
1
1
1
1
1
1
1
1
1
1
1
1
1
1
1
1
1
1
1
1
1
1
1
1
1
1
1
1
1
1
1
1
1
1
1
1
1
1
1
1
1
1
1
1
1
1
1
1
1
1
1
1
1
1
1.00034
2.22414
2.6723
2.67201
2.66766
2.66462
2.66122
2.65795
2.65466
2.65138
2.64808
2.64472
2.6413
2.63786
2.6344
2.63088
1
1
1
1
1
1
1
1
1
1
1
1
1
1
1
1
1
1
1
1
1
1
1
1
1
1
1
1
1
1
1
1
1
1
1
1
1
1
1
1
1
1
1
1
1
1
1
1
1
1
1
1
1
1
1
1
1
1
1
1
1
1
1
1
1
1
1
1
1
1
1
1
1
1
1
1
1
1
1
1
1
2.10955
2.66133
2.67308
2.66899
2.66658
2.66358
2.6606
2.6575
2.65438
2.65116
2.6479
2.64452
2.64111
2.63766
2.63415
1
1
1
1
1
1
1
1
1
1
1
1
1
1
1
1
1
1
1
1
1
1
1
1
1
1
1
1
1
1
1
1
1
1
1
1
1
1
1
1
1
1
1
1
1
1
1
1
1
1
1
1
1
1
1
1
1
1
1
1
1
1
1
1
1
1
1
1
1
1
1
1
1
1
1
1
1
1
1
1
1
1.99504
2.6434
2.67427
2.66986
2.66765
2.66488
2.66212
2.65919
2.65621
2.65307
2.64992
2.64662
2.64331
2.63991
2.63644
1
1
1
1
1
1
1
1
1
1
1
1
1
1
1
1
1
1
1
1
1
1
1
1
1
1
1
1
1
1
1
1
1
1
1
1
1
1
1
1
1
1
1
1
1
1
1
1
1
1
1
1
1
1
1
1
1
1
1
1
1
1
1
1
1
1
1
1
1
1
1
1
1
1
1
1
1
1
1
1
1
1.89091
2.62538
2.67544
2.67023
2.66777
2.66485
2.66202
2.65908
2.65615
2.65311
2.65012
2.64697
2.64382
2.64054
2.6372
1
1
1
1
1
1
1
1
1
1
1
1
1
1
1
1
1
1
1
1
1
1
1
1
1
1
1
1
1
1
1
1
1
1
1
1
1
1
1
1
1
1
1
1
1
1
1
1
1
1
1
1
1
1
1
1
1
1
1
1
1
1
1
1
1
1
1
1
1
1
1
1
1
1
1
1
1
1
1
1
1
1.79737
2.60807
2.6769
2.671
2.66827
2.66522
2.66234
2.65942
2.65652
2.65355
2.6506
2.64753
2.64444
2.64122
2.63795
1
1
1
1
1
1
1
1
1
1
1
1
1
1
1
1
1
1
1
1
1
1
1
1
1
1
1
1
1
1
1
1
1
1
1
1
1
1
1
1
1
1
1
1
1
1
1
1
1
1
1
1
1
1
1
1
1
1
1
1
1
1
1
1
1
1
1
1
1
1
1
1
1
1
1
1
1
1
1
1
1
1.70664
2.59369
2.67808
2.67208
2.66937
2.66629
2.66334
2.66038
2.65742
2.65441
2.65142
2.64834
2.64525
2.64203
2.63878
1
1
1
1
1
1
1
1
1
1
1
1
1
1
1
1
1
1
1
1
1
1
1
1
1
1
1
1
1
1
1
1
1
1
1
1
1
1
1
1
1
1
1
1
1
1
1
1
1
1
1
1
1
1
1
1
1
1
1
1
1
1
1
1
1
1
1
1
1
1
1
1
1
1
1
1
1
1
1
1
1
1.63443
2.57925
2.67936
2.67336
2.67068
2.66762
2.66465
2.66167
2.65865
2.65559
2.65252
2.64942
2.64628
2.64305
2.63979
1
1
1
1
1
1
1
1
1
1
1
1
1
1
1
1
1
1
1
1
1
1
1
1
1
1
1
1
1
1
1
1
1
1
1
1
1
1
1
1
1
1
1
1
1
1
1
1
1
1
1
1
1
1
1
1
1
1
1
1
1
1
1
1
1
1
1
1
1
1
1
1
1
1
1
1
1
1
1
1
1
1.58171
2.56693
2.68031
2.67435
2.67168
2.66866
2.6657
2.66273
2.65971
2.65664
2.65352
2.65041
2.64725
2.64401
2.64074
1
1
1
1
1
1
1
1
1
1
1
1
1
1
1
1
1
1
1
1
1
1
1