/*--------------------------------*- C++ -*----------------------------------*\
  =========                 |
  \\      /  F ield         | OpenFOAM: The Open Source CFD Toolbox
   \\    /   O peration     | Website:  https://openfoam.org
    \\  /    A nd           | Version:  7
     \\/     M anipulation  |
\*---------------------------------------------------------------------------*/
FoamFile
{
    version     2.0;
    format      ascii;
    class       volVectorField;
    location    "10";
    object      U;
}
// * * * * * * * * * * * * * * * * * * * * * * * * * * * * * * * * * * * * * //

dimensions      [0 1 -1 0 0 0 0];

internalField   nonuniform List<vector> 
19968
(
(3 1.05602e-16 0)
(3 -2.61062e-16 0)
(3 -5.91975e-16 0)
(3 -7.21804e-16 0)
(3 -6.13651e-16 0)
(3 1.35021e-17 0)
(3 7.76045e-16 0)
(3 5.45641e-16 0)
(3 5.7787e-16 0)
(3 5.06935e-16 0)
(3 1.07852e-15 0)
(3 1.20911e-15 0)
(3 1.32684e-15 0)
(3 1.58258e-15 0)
(3 1.21497e-15 0)
(3 1.27413e-15 0)
(3 5.80288e-16 0)
(3 -1.85404e-16 0)
(3 -3.22105e-16 0)
(3 -2.66069e-16 0)
(3 -3.51798e-16 0)
(3 1.94069e-17 0)
(3 -1.23439e-16 0)
(3 -2.20893e-18 0)
(3 5.2652e-16 0)
(3 1.62666e-17 0)
(3 -3.59389e-16 0)
(3 -1.88e-16 0)
(3 3.49779e-16 0)
(3 8.7041e-16 0)
(3 1.06532e-15 0)
(3 1.0414e-15 0)
(3 1.15646e-15 0)
(3 1.06853e-15 0)
(3 9.4068e-16 0)
(3 7.72023e-16 0)
(3 4.63184e-16 0)
(3 5.10513e-17 0)
(3 5.13607e-17 0)
(3 -5.9423e-17 0)
(3 -4.03461e-16 0)
(3 -2.59975e-16 0)
(3 -1.12528e-15 0)
(3 -1.32292e-15 0)
(3 -3.0595e-16 0)
(3 3.574e-17 0)
(3 2.59921e-16 0)
(3 -2.32994e-16 0)
(2.78355 0.00261921 0)
(0.963362 0.00817163 0)
(0.757449 0.00555391 0)
(0.745322 0.00723165 0)
(0.73062 0.00783753 0)
(0.715726 0.00908379 0)
(0.698797 0.0102181 0)
(0.681258 0.01028 0)
(0.664813 0.00912699 0)
(0.650233 0.00814498 0)
(0.636613 0.00823358 0)
(0.622591 0.0090868 0)
(0.607442 0.0097924 0)
(0.591824 0.00949539 0)
(0.57676 0.00879412 0)
(0.562022 0.00883115 0)
(0.546756 0.00946334 0)
(0.530769 0.00985428 0)
(0.514617 0.00975852 0)
(0.498613 0.00960868 0)
(0.482675 0.00964955 0)
(0.466755 0.00983323 0)
(0.450906 0.0100768 0)
(0.435172 0.0102884 0)
(0.419556 0.0104207 0)
(0.403975 0.0105225 0)
(0.388251 0.0106493 0)
(0.372227 0.0107875 0)
(0.355887 0.0109034 0)
(0.33934 0.0109967 0)
(0.322715 0.011081 0)
(0.306094 0.0111627 0)
(0.289501 0.0112519 0)
(0.272882 0.0113598 0)
(0.256119 0.0114842 0)
(0.23908 0.0116165 0)
(0.221695 0.0117556 0)
(0.203992 0.0119087 0)
(0.18607 0.0120866 0)
(0.168011 0.0122974 0)
(0.149814 0.0125418 0)
(0.13142 0.0128144 0)
(0.112725 0.0131156 0)
(0.0935927 0.0134343 0)
(0.0739204 0.0137894 0)
(0.0536027 0.0141823 0)
(0.0326482 0.014461 0)
(0.0113781 0.0148783 0)
(3 2.21127e-16 0)
(3 2.74688e-16 0)
(3 -9.30706e-18 0)
(3 -2.34536e-16 0)
(3 -1.11487e-16 0)
(3 3.28717e-16 0)
(3 7.39946e-16 0)
(3 1.07534e-15 0)
(3 8.68921e-16 0)
(3 1.01942e-15 0)
(3 1.09781e-15 0)
(3 8.40176e-16 0)
(3 8.38843e-16 0)
(3 9.62985e-16 0)
(3 1.57942e-15 0)
(3 1.62837e-15 0)
(3 1.11892e-15 0)
(3 2.18346e-16 0)
(3 -1.21513e-15 0)
(3 -1.7255e-15 0)
(3 -1.80842e-15 0)
(3 -2.10534e-15 0)
(3 -2.33685e-15 0)
(3 -1.82275e-15 0)
(3 -3.93183e-16 0)
(3 -6.8299e-16 0)
(3 -3.57905e-16 0)
(3 2.16948e-16 0)
(3 6.83663e-16 0)
(3 8.42534e-16 0)
(3 4.77922e-16 0)
(3 3.32731e-16 0)
(3 7.63395e-16 0)
(3 1.1379e-15 0)
(3 2.70121e-16 0)
(3 -4.10695e-16 0)
(3 -2.15075e-16 0)
(3 3.88435e-16 0)
(3 -4.82538e-16 0)
(3 -1.07883e-15 0)
(3 -9.79422e-16 0)
(3 -4.74809e-16 0)
(3 -1.02931e-15 0)
(3 -1.68478e-15 0)
(3 -1.67046e-15 0)
(3 -1.11767e-15 0)
(3 1.41026e-16 0)
(3 4.18588e-16 0)
(2.79939 0.0140881 0)
(0.968923 0.0335016 0)
(0.754591 0.0260229 0)
(0.739799 0.0204376 0)
(0.725471 0.0223894 0)
(0.710791 0.02588 0)
(0.694521 0.02921 0)
(0.677684 0.0298785 0)
(0.661717 0.0275421 0)
(0.646976 0.0251461 0)
(0.632923 0.0251978 0)
(0.618867 0.0274037 0)
(0.60392 0.0293295 0)
(0.58856 0.0287081 0)
(0.573531 0.0270089 0)
(0.558554 0.0270806 0)
(0.543219 0.0287706 0)
(0.527281 0.0297981 0)
(0.511258 0.0295565 0)
(0.495317 0.029238 0)
(0.47934 0.0294221 0)
(0.463337 0.0299164 0)
(0.447432 0.0305399 0)
(0.431688 0.0311185 0)
(0.416065 0.0315411 0)
(0.400435 0.0319102 0)
(0.384607 0.0323535 0)
(0.368437 0.0328318 0)
(0.351931 0.0332459 0)
(0.335227 0.0335752 0)
(0.318489 0.0338391 0)
(0.301823 0.0340521 0)
(0.285243 0.034261 0)
(0.268672 0.0345282 0)
(0.251962 0.0348704 0)
(0.23497 0.0352683 0)
(0.217632 0.0357116 0)
(0.199992 0.0362072 0)
(0.182163 0.0367745 0)
(0.164225 0.0374292 0)
(0.146177 0.038173 0)
(0.127961 0.0389941 0)
(0.109499 0.0398996 0)
(0.0906818 0.040863 0)
(0.0714335 0.0419286 0)
(0.0516701 0.0431072 0)
(0.031386 0.0439134 0)
(0.0109214 0.0450845 0)
(3 -1.67121e-16 0)
(3 6.53042e-17 0)
(3 8.17732e-16 0)
(3 9.67614e-16 0)
(3 6.88113e-16 0)
(3 -4.07054e-16 0)
(3 -1.1315e-15 0)
(3 -6.71278e-16 0)
(3 -8.35243e-16 0)
(3 -1.02978e-15 0)
(3 -1.42684e-15 0)
(3 -1.62052e-15 0)
(3 -1.63685e-15 0)
(3 -9.62521e-16 0)
(3 6.34419e-16 0)
(3 1.60764e-15 0)
(3 1.50668e-15 0)
(3 1.25074e-15 0)
(3 6.9449e-16 0)
(3 -1.29718e-15 0)
(3 -2.31074e-15 0)
(3 -2.18058e-15 0)
(3 -1.48979e-15 0)
(3 -1.92251e-15 0)
(3 -2.15586e-15 0)
(3 -2.10723e-15 0)
(3 -1.32673e-15 0)
(3 -5.34231e-16 0)
(3 -3.07635e-16 0)
(3 -4.19362e-16 0)
(3 -2.84736e-16 0)
(3 -1.09755e-16 0)
(3 3.64057e-16 0)
(3 3.48831e-16 0)
(3 -3.81154e-16 0)
(3 -3.27439e-16 0)
(3 -1.32733e-16 0)
(3 -2.72259e-16 0)
(3 -1.52924e-15 0)
(3 -2.60724e-15 0)
(3 -2.09558e-15 0)
(3 -2.2192e-15 0)
(3 -1.97686e-15 0)
(3 -6.58566e-16 0)
(3 -2.50717e-16 0)
(3 -1.45502e-17 0)
(3 3.47215e-16 0)
(3 7.35916e-16 0)
(2.83816 0.0222066 0)
(0.98616 0.054374 0)
(0.760142 0.0466194 0)
(0.744262 0.0377835 0)
(0.727796 0.0398079 0)
(0.712378 0.0446726 0)
(0.696107 0.049063 0)
(0.67961 0.0497839 0)
(0.663936 0.0467327 0)
(0.648893 0.0436251 0)
(0.634182 0.0438114 0)
(0.619837 0.0470636 0)
(0.604817 0.0498477 0)
(0.58946 0.0489915 0)
(0.574263 0.0466404 0)
(0.55888 0.0468712 0)
(0.543366 0.0494546 0)
(0.527359 0.0509744 0)
(0.511369 0.0505996 0)
(0.495424 0.0502545 0)
(0.479361 0.0507199 0)
(0.463206 0.0515572 0)
(0.447143 0.0524957 0)
(0.431274 0.0533715 0)
(0.415541 0.0540641 0)
(0.399773 0.0546975 0)
(0.383753 0.0554283 0)
(0.367327 0.0561955 0)
(0.350507 0.0568653 0)
(0.33347 0.0574165 0)
(0.316443 0.0578753 0)
(0.299582 0.0582505 0)
(0.282918 0.058604 0)
(0.266342 0.0590344 0)
(0.249669 0.059576 0)
(0.232724 0.0602085 0)
(0.215434 0.0609231 0)
(0.197851 0.061731 0)
(0.18009 0.062656 0)
(0.162229 0.0637127 0)
(0.144256 0.064898 0)
(0.12611 0.0661912 0)
(0.107731 0.0676043 0)
(0.0890425 0.0690981 0)
(0.0699953 0.0707282 0)
(0.0505345 0.07255 0)
(0.0306238 0.0737314 0)
(0.0106452 0.0755076 0)
(3 -1.7712e-18 0)
(3 -2.16487e-16 0)
(3 -3.11968e-16 0)
(3 -3.72363e-16 0)
(3 -1.66582e-16 0)
(3 3.05573e-16 0)
(3 5.70055e-16 0)
(3 3.54878e-16 0)
(3 7.71292e-17 0)
(3 -5.94901e-17 0)
(3 -4.55743e-16 0)
(3 -7.30084e-16 0)
(3 -8.30264e-16 0)
(3 -4.88097e-16 0)
(3 -6.13718e-16 0)
(3 -6.65719e-16 0)
(3 -2.81898e-16 0)
(3 2.51889e-17 0)
(3 4.65037e-16 0)
(3 1.93073e-17 0)
(3 -4.00612e-16 0)
(3 2.83769e-16 0)
(3 7.96404e-16 0)
(3 5.68817e-16 0)
(3 3.94406e-17 0)
(3 1.22846e-16 0)
(3 -7.10645e-16 0)
(3 -1.1639e-15 0)
(3 -1.5479e-15 0)
(3 -1.52757e-15 0)
(3 -1.05267e-15 0)
(3 -1.27595e-16 0)
(3 -9.19771e-17 0)
(3 -5.36263e-16 0)
(3 -3.49281e-16 0)
(3 -3.82791e-16 0)
(3 -2.01964e-16 0)
(3 -6.0324e-16 0)
(3 -1.87596e-15 0)
(3 -2.11637e-15 0)
(3 -2.51294e-15 0)
(3 -2.23607e-15 0)
(3 -1.40902e-15 0)
(3 -1.03101e-15 0)
(3 -7.19465e-16 0)
(3 -7.67923e-17 0)
(3 1.99846e-16 0)
(3 1.38965e-16 0)
(2.88682 0.0255883 0)
(1.00914 0.0734209 0)
(0.761359 0.0668622 0)
(0.745785 0.057069 0)
(0.72885 0.0588296 0)
(0.713344 0.0638856 0)
(0.697632 0.0685306 0)
(0.681895 0.0693378 0)
(0.66676 0.0664258 0)
(0.651789 0.0633216 0)
(0.636866 0.0636852 0)
(0.622586 0.0675983 0)
(0.607802 0.0709603 0)
(0.592609 0.0701405 0)
(0.577306 0.0675589 0)
(0.561589 0.0680063 0)
(0.545932 0.071262 0)
(0.529883 0.0731383 0)
(0.513939 0.0726887 0)
(0.49799 0.0724779 0)
(0.481847 0.0733809 0)
(0.465509 0.0746268 0)
(0.44921 0.0758437 0)
(0.433116 0.0769778 0)
(0.417162 0.0779668 0)
(0.401134 0.0789168 0)
(0.384786 0.0799579 0)
(0.367949 0.08101 0)
(0.350637 0.0819326 0)
(0.333063 0.0827149 0)
(0.315519 0.0833852 0)
(0.29822 0.0839333 0)
(0.281213 0.0844177 0)
(0.264371 0.0849617 0)
(0.247474 0.0856218 0)
(0.230337 0.086392 0)
(0.212902 0.0872848 0)
(0.195249 0.088333 0)
(0.177513 0.0895728 0)
(0.159773 0.0910152 0)
(0.142005 0.0926447 0)
(0.124122 0.0944239 0)
(0.106043 0.0963615 0)
(0.0876706 0.0984136 0)
(0.0689391 0.100607 0)
(0.0498061 0.103082 0)
(0.030162 0.104616 0)
(0.0105092 0.10696 0)
(3 3.79066e-16 0)
(3 -4.26076e-17 0)
(3 -2.55784e-16 0)
(3 -1.15468e-16 0)
(3 9.70276e-17 0)
(3 1.06036e-15 0)
(3 1.17357e-15 0)
(3 1.21556e-15 0)
(3 1.94393e-15 0)
(3 2.50702e-15 0)
(3 1.22432e-15 0)
(3 5.21615e-16 0)
(3 7.57705e-16 0)
(3 -7.15932e-16 0)
(3 -2.46318e-15 0)
(3 -2.70617e-15 0)
(3 -2.03464e-15 0)
(3 -7.02772e-16 0)
(3 -6.22134e-16 0)
(3 -5.49994e-16 0)
(3 -4.60544e-16 0)
(3 -5.00139e-16 0)
(3 1.03906e-16 0)
(3 4.39434e-16 0)
(3 7.12637e-16 0)
(3 1.11606e-15 0)
(3 6.87527e-16 0)
(3 5.80722e-16 0)
(3 -3.75456e-16 0)
(3 -4.87643e-16 0)
(3 -8.92578e-16 0)
(3 -6.31085e-16 0)
(3 -5.52382e-16 0)
(3 -1.51439e-16 0)
(3 -3.35879e-16 0)
(3 -7.49819e-16 0)
(3 -9.25149e-16 0)
(3 -1.6266e-15 0)
(3 -1.73599e-15 0)
(3 -1.16428e-15 0)
(3 -1.13742e-15 0)
(3 -8.25552e-16 0)
(3 -1.00114e-15 0)
(3 -1.56991e-15 0)
(3 -1.20929e-15 0)
(3 -1.10548e-15 0)
(3 -3.10202e-16 0)
(3 -2.05664e-16 0)
(2.93867 0.0333572 0)
(1.03732 0.100113 0)
(0.76484 0.0858892 0)
(0.750657 0.0765593 0)
(0.734126 0.0790276 0)
(0.7182 0.0838552 0)
(0.702686 0.0880901 0)
(0.687501 0.0888695 0)
(0.672683 0.0866215 0)
(0.657704 0.0841061 0)
(0.642621 0.0847059 0)
(0.628367 0.0888213 0)
(0.61396 0.0925097 0)
(0.599112 0.0920473 0)
(0.583864 0.0897136 0)
(0.567966 0.0905345 0)
(0.552217 0.0943289 0)
(0.53617 0.0964763 0)
(0.520338 0.0960258 0)
(0.504499 0.0960876 0)
(0.488444 0.0975931 0)
(0.472071 0.0993761 0)
(0.45564 0.100888 0)
(0.439411 0.10226 0)
(0.423337 0.103585 0)
(0.407155 0.104937 0)
(0.390572 0.106368 0)
(0.373389 0.107783 0)
(0.35561 0.10906 0)
(0.337461 0.110202 0)
(0.319283 0.111225 0)
(0.30134 0.112079 0)
(0.283698 0.112794 0)
(0.266221 0.113499 0)
(0.248664 0.114266 0)
(0.230831 0.115102 0)
(0.212686 0.116036 0)
(0.194344 0.117122 0)
(0.175982 0.118418 0)
(0.157718 0.119953 0)
(0.139565 0.12173 0)
(0.121462 0.123737 0)
(0.103349 0.126002 0)
(0.0851402 0.128517 0)
(0.0667454 0.131222 0)
(0.0481401 0.13438 0)
(0.0290731 0.136306 0)
(0.0101372 0.139235 0)
(3 9.4196e-19 0)
(3 2.33961e-16 0)
(3 5.32331e-16 0)
(3 5.04628e-16 0)
(3 3.02502e-16 0)
(3 -5.71456e-17 0)
(3 -7.31095e-16 0)
(3 -7.72139e-16 0)
(3 -5.53393e-16 0)
(3 -2.29281e-16 0)
(3 2.72569e-16 0)
(3 6.114e-16 0)
(3 1.01062e-15 0)
(3 1.5725e-16 0)
(3 -6.35289e-16 0)
(3 -1.1203e-15 0)
(3 -1.09787e-15 0)
(3 -7.50751e-16 0)
(3 -5.8866e-16 0)
(3 -1.70698e-16 0)
(3 2.14754e-16 0)
(3 6.10018e-16 0)
(3 9.61493e-16 0)
(3 1.10754e-15 0)
(3 1.53038e-15 0)
(3 1.81449e-15 0)
(3 2.44599e-15 0)
(3 2.48989e-15 0)
(3 2.33769e-15 0)
(3 1.80984e-15 0)
(3 1.41872e-15 0)
(3 1.16013e-16 0)
(3 -1.42852e-16 0)
(3 3.39492e-16 0)
(3 6.82922e-16 0)
(3 4.89569e-16 0)
(3 -4.16818e-16 0)
(3 -1.32188e-15 0)
(3 -1.13306e-15 0)
(3 5.02613e-17 0)
(3 6.45188e-16 0)
(3 2.93157e-17 0)
(3 -1.59256e-15 0)
(3 -1.48213e-15 0)
(3 -1.10443e-15 0)
(3 -5.94699e-16 0)
(3 -9.53931e-17 0)
(3 -2.68152e-16 0)
(2.99974 0.00341354 0)
(1.10727 0.116299 0)
(0.777253 0.0959435 0)
(0.760297 0.0949648 0)
(0.745014 0.0999705 0)
(0.728653 0.104185 0)
(0.713215 0.107165 0)
(0.698194 0.107919 0)
(0.683249 0.106986 0)
(0.66798 0.105703 0)
(0.652675 0.106482 0)
(0.638373 0.110124 0)
(0.624458 0.113521 0)
(0.610206 0.11346 0)
(0.595241 0.111873 0)
(0.579431 0.113338 0)
(0.56371 0.117575 0)
(0.547753 0.119827 0)
(0.53215 0.119273 0)
(0.516589 0.119545 0)
(0.500858 0.121694 0)
(0.484698 0.124155 0)
(0.468337 0.126016 0)
(0.452148 0.127593 0)
(0.436145 0.129266 0)
(0.420035 0.131103 0)
(0.403469 0.133023 0)
(0.386214 0.134901 0)
(0.368245 0.136669 0)
(0.349779 0.138361 0)
(0.331174 0.13998 0)
(0.312725 0.141429 0)
(0.294524 0.142683 0)
(0.276436 0.143849 0)
(0.258207 0.144997 0)
(0.239623 0.146136 0)
(0.220637 0.147301 0)
(0.201367 0.148556 0)
(0.181997 0.149967 0)
(0.162675 0.151568 0)
(0.143465 0.153378 0)
(0.124364 0.155417 0)
(0.105365 0.15774 0)
(0.086437 0.160446 0)
(0.0674879 0.16338 0)
(0.0485398 0.167012 0)
(0.0292106 0.169197 0)
(0.0101772 0.172606 0)
(3 2.5382e-17 0)
(3 3.95652e-16 0)
(3 2.97522e-16 0)
(3 2.56994e-16 0)
(3 -4.84003e-16 0)
(3 -8.83059e-16 0)
(3 -1.48853e-15 0)
(3 -1.40015e-15 0)
(3 -1.97102e-15 0)
(3 -2.14414e-15 0)
(3 -6.70644e-16 0)
(3 4.27335e-16 0)
(3 4.44764e-16 0)
(3 3.03408e-16 0)
(3 4.0673e-16 0)
(3 1.01886e-15 0)
(3 7.65705e-16 0)
(3 2.71201e-16 0)
(3 -1.5793e-16 0)
(3 4.10106e-16 0)
(3 1.30192e-15 0)
(3 1.70682e-15 0)
(3 1.74867e-15 0)
(3 1.95325e-15 0)
(3 2.81878e-15 0)
(3 2.45792e-15 0)
(3 2.18336e-15 0)
(3 2.28981e-15 0)
(3 2.09418e-15 0)
(3 1.81192e-15 0)
(3 1.4892e-15 0)
(3 4.26855e-16 0)
(3 -6.43489e-17 0)
(3 -1.59788e-16 0)
(3 -1.13013e-16 0)
(3 2.78541e-16 0)
(3 5.68635e-16 0)
(3 8.31952e-16 0)
(3 1.11404e-15 0)
(3 1.62635e-15 0)
(3 1.64973e-15 0)
(3 4.2498e-16 0)
(3 -2.49493e-17 0)
(3 -2.10534e-16 0)
(3 -1.0003e-15 0)
(3 4.08891e-16 0)
(3 4.86371e-16 0)
(3 -3.25034e-16 0)
(3.00004 1.81475e-05 0)
(1.2253 0.136141 0)
(0.777661 0.116808 0)
(0.752991 0.116805 0)
(0.739294 0.122933 0)
(0.723813 0.126506 0)
(0.70929 0.129134 0)
(0.694548 0.13053 0)
(0.679433 0.131153 0)
(0.663888 0.131112 0)
(0.648529 0.131466 0)
(0.634365 0.133648 0)
(0.621107 0.136226 0)
(0.607577 0.136707 0)
(0.593033 0.136335 0)
(0.577578 0.138816 0)
(0.56211 0.143493 0)
(0.546466 0.145743 0)
(0.531326 0.145046 0)
(0.516285 0.145495 0)
(0.50121 0.148332 0)
(0.485702 0.151653 0)
(0.469836 0.154023 0)
(0.454061 0.155833 0)
(0.438483 0.157855 0)
(0.422834 0.160235 0)
(0.406733 0.16272 0)
(0.389927 0.165114 0)
(0.372367 0.167407 0)
(0.354228 0.169677 0)
(0.335839 0.171924 0)
(0.317491 0.17401 0)
(0.299293 0.175854 0)
(0.281142 0.17753 0)
(0.262804 0.1791 0)
(0.244074 0.180567 0)
(0.224888 0.18197 0)
(0.205334 0.183374 0)
(0.185571 0.184851 0)
(0.165743 0.186441 0)
(0.14595 0.188169 0)
(0.126244 0.190096 0)
(0.106667 0.192289 0)
(0.0872529 0.195001 0)
(0.0679138 0.197966 0)
(0.0487487 0.201942 0)
(0.029251 0.20431 0)
(0.0101939 0.208139 0)
(3 9.46234e-18 0)
(3 -2.80234e-16 0)
(3 -2.79874e-16 0)
(3 -1.50333e-16 0)
(3 -1.69822e-16 0)
(3 -5.49302e-17 0)
(3 5.24164e-17 0)
(3 -1.89016e-16 0)
(3 -7.35184e-17 0)
(3 2.1362e-16 0)
(3 8.16003e-16 0)
(3 1.22153e-15 0)
(3 1.4601e-15 0)
(3 1.24108e-15 0)
(3 1.34035e-15 0)
(3 1.46605e-15 0)
(3 1.56009e-15 0)
(3 1.38328e-15 0)
(3 1.26542e-15 0)
(3 1.60984e-15 0)
(3 2.10915e-15 0)
(3 2.17312e-15 0)
(3 2.17738e-15 0)
(3 1.25094e-15 0)
(3 5.42376e-17 0)
(3 -4.88034e-16 0)
(3 -5.67722e-16 0)
(3 -2.1945e-16 0)
(3 -1.63817e-16 0)
(3 -4.77082e-17 0)
(3 -1.86288e-16 0)
(3 -5.20322e-17 0)
(3 -6.68217e-17 0)
(3 -1.08756e-16 0)
(3 2.88952e-18 0)
(3 4.78895e-16 0)
(3 7.29885e-16 0)
(3 8.04799e-16 0)
(3 1.13818e-15 0)
(3 1.49889e-15 0)
(3 1.73217e-15 0)
(3 1.84942e-15 0)
(3 1.25056e-15 0)
(3 9.61635e-16 0)
(3 8.558e-16 0)
(3 4.50278e-16 0)
(3 -2.93831e-16 0)
(3 -1.04375e-16 0)
(3 3.33072e-08 0)
(1.42519 0.164874 0)
(0.790501 0.146251 0)
(0.752753 0.14057 0)
(0.738392 0.144701 0)
(0.723351 0.1473 0)
(0.709228 0.150159 0)
(0.694593 0.153041 0)
(0.679329 0.155721 0)
(0.663435 0.156988 0)
(0.647909 0.156517 0)
(0.633686 0.156413 0)
(0.620759 0.157681 0)
(0.607855 0.158708 0)
(0.593877 0.159816 0)
(0.579076 0.163496 0)
(0.564141 0.168577 0)
(0.549066 0.170651 0)
(0.534652 0.169624 0)
(0.520394 0.170044 0)
(0.506281 0.17342 0)
(0.491783 0.177696 0)
(0.476692 0.180814 0)
(0.461497 0.182941 0)
(0.44644 0.185296 0)
(0.431327 0.188274 0)
(0.415755 0.191488 0)
(0.399449 0.194603 0)
(0.382351 0.197633 0)
(0.364594 0.20071 0)
(0.346448 0.20384 0)
(0.328169 0.206855 0)
(0.309863 0.209623 0)
(0.291458 0.212173 0)
(0.272769 0.214549 0)
(0.253616 0.216731 0)
(0.233941 0.218733 0)
(0.213805 0.220602 0)
(0.193339 0.222402 0)
(0.172676 0.224169 0)
(0.151932 0.225925 0)
(0.131209 0.22778 0)
(0.110602 0.229795 0)
(0.0902215 0.232418 0)
(0.0700025 0.235259 0)
(0.0501369 0.239464 0)
(0.0300044 0.241952 0)
(0.0104434 0.246141 0)
(3 -1.70326e-17 0)
(3 -1.49627e-16 0)
(3 -1.11347e-16 0)
(3 1.14604e-16 0)
(3 4.80563e-16 0)
(3 1.08998e-15 0)
(3 1.5527e-15 0)
(3 1.55773e-15 0)
(3 1.19711e-15 0)
(3 8.02652e-16 0)
(3 5.39194e-16 0)
(3 7.03748e-16 0)
(3 1.19041e-15 0)
(3 1.71512e-15 0)
(3 1.46853e-15 0)
(3 4.64359e-16 0)
(3 -1.38788e-17 0)
(3 1.47458e-16 0)
(3 1.40144e-15 0)
(3 1.87008e-15 0)
(3 1.57456e-15 0)
(3 1.42651e-15 0)
(3 1.3535e-15 0)
(3 1.15769e-15 0)
(3 -4.57527e-16 0)
(3 -1.9867e-15 0)
(3 -2.27819e-15 0)
(3 -1.97224e-15 0)
(3 -1.56806e-15 0)
(3 -1.42413e-15 0)
(3 -1.62222e-15 0)
(3 -1.54788e-15 0)
(3 -1.171e-15 0)
(3 -3.82966e-16 0)
(3 6.10091e-16 0)
(3 8.54278e-16 0)
(3 6.8783e-16 0)
(3 6.60584e-16 0)
(3 4.05263e-17 0)
(3 -9.36246e-16 0)
(3 -1.52304e-15 0)
(3 -1.2282e-15 0)
(3 -7.30465e-16 0)
(3 -6.86255e-17 0)
(3 -3.15066e-17 0)
(3 -4.35628e-16 0)
(3 -3.23681e-16 0)
(3 -3.0735e-16 0)
(3 5.92049e-11 0)
(1.72808 0.18818 0)
(0.819023 0.179632 0)
(0.760364 0.169472 0)
(0.743475 0.167753 0)
(0.727571 0.168912 0)
(0.712817 0.172306 0)
(0.697729 0.177235 0)
(0.682035 0.182229 0)
(0.665587 0.184643 0)
(0.649658 0.183167 0)
(0.635086 0.180469 0)
(0.621636 0.180027 0)
(0.608513 0.181435 0)
(0.594474 0.184077 0)
(0.57974 0.189025 0)
(0.564743 0.194446 0)
(0.549655 0.196264 0)
(0.535369 0.194812 0)
(0.521349 0.194969 0)
(0.507786 0.198725 0)
(0.494175 0.204086 0)
(0.479868 0.208311 0)
(0.465281 0.210952 0)
(0.450824 0.213619 0)
(0.436447 0.217193 0)
(0.421742 0.221264 0)
(0.406359 0.22528 0)
(0.390206 0.229212 0)
(0.373361 0.233249 0)
(0.356008 0.237427 0)
(0.338328 0.241571 0)
(0.320402 0.245493 0)
(0.302192 0.24917 0)
(0.283564 0.252615 0)
(0.264376 0.255777 0)
(0.244562 0.258637 0)
(0.224144 0.261217 0)
(0.203203 0.263566 0)
(0.18184 0.265717 0)
(0.160176 0.267668 0)
(0.138355 0.269571 0)
(0.116533 0.271445 0)
(0.094916 0.273962 0)
(0.0734868 0.276561 0)
(0.0525509 0.280899 0)
(0.0313979 0.283469 0)
(0.0109085 0.287982 0)
(3 5.45855e-17 0)
(3 3.22965e-16 0)
(3 2.8022e-16 0)
(3 2.62443e-16 0)
(3 1.86174e-16 0)
(3 9.60218e-17 0)
(3 1.09438e-16 0)
(3 8.7697e-17 0)
(3 -1.17842e-15 0)
(3 -1.46914e-15 0)
(3 -1.30912e-15 0)
(3 -7.23114e-16 0)
(3 1.74599e-16 0)
(3 8.15118e-16 0)
(3 7.86479e-16 0)
(3 5.86084e-16 0)
(3 6.14257e-17 0)
(3 -1.01115e-16 0)
(3 1.65065e-17 0)
(3 -4.02494e-17 0)
(3 -9.81102e-17 0)
(3 -3.47882e-16 0)
(3 -4.34402e-16 0)
(3 -2.05571e-16 0)
(3 -6.60871e-16 0)
(3 -1.91325e-15 0)
(3 -2.22096e-15 0)
(3 -3.68982e-15 0)
(3 -3.61062e-15 0)
(3 -3.00192e-15 0)
(3 -2.54667e-15 0)
(3 -1.80588e-15 0)
(3 -1.46814e-15 0)
(3 -1.05673e-15 0)
(3 -1.00814e-15 0)
(3 -1.50891e-15 0)
(3 -1.20426e-15 0)
(3 -8.06538e-16 0)
(3 -5.74522e-16 0)
(3 5.99699e-17 0)
(3 1.3913e-16 0)
(3 -2.04626e-16 0)
(3 -4.05801e-16 0)
(3 -5.98319e-16 0)
(3 -8.98241e-16 0)
(3 -8.35258e-16 0)
(3 -3.08851e-16 0)
(3 -5.8787e-17 0)
(3 9.87336e-14 0)
(2.14016 0.197247 0)
(0.860314 0.217828 0)
(0.758876 0.206096 0)
(0.743147 0.196404 0)
(0.727132 0.194922 0)
(0.71334 0.198243 0)
(0.699777 0.204451 0)
(0.685805 0.211109 0)
(0.67064 0.214326 0)
(0.655434 0.212326 0)
(0.641005 0.207807 0)
(0.626942 0.205719 0)
(0.613237 0.207174 0)
(0.598974 0.211045 0)
(0.584174 0.217005 0)
(0.56901 0.222604 0)
(0.553679 0.224212 0)
(0.539039 0.222351 0)
(0.524649 0.221813 0)
(0.51085 0.225297 0)
(0.497466 0.23129 0)
(0.483429 0.236566 0)
(0.468884 0.239699 0)
(0.454407 0.242354 0)
(0.440174 0.246162 0)
(0.425895 0.250955 0)
(0.411141 0.255926 0)
(0.395782 0.260853 0)
(0.379872 0.265955 0)
(0.363509 0.271321 0)
(0.346766 0.276786 0)
(0.329643 0.282129 0)
(0.312072 0.287274 0)
(0.293924 0.29221 0)
(0.275059 0.296851 0)
(0.255391 0.301122 0)
(0.234908 0.304982 0)
(0.213658 0.308425 0)
(0.191728 0.311444 0)
(0.169241 0.313982 0)
(0.146382 0.316228 0)
(0.123349 0.318137 0)
(0.100436 0.320617 0)
(0.0776791 0.322883 0)
(0.0554957 0.327222 0)
(0.0331407 0.329806 0)
(0.0114775 0.334603 0)
(3 -6.60952e-17 0)
(3 -2.59503e-16 0)
(3 -3.41361e-16 0)
(3 -5.05281e-16 0)
(3 -6.37525e-16 0)
(3 -8.86341e-16 0)
(3 -1.32828e-15 0)
(3 -1.20002e-15 0)
(3 -8.54178e-16 0)
(3 -5.91003e-16 0)
(3 -7.1938e-17 0)
(3 1.8226e-16 0)
(3 3.83629e-16 0)
(3 4.15684e-16 0)
(3 5.79172e-16 0)
(3 1.04578e-15 0)
(3 1.27679e-15 0)
(3 7.91866e-16 0)
(3 -1.1317e-17 0)
(3 -5.80118e-17 0)
(3 1.06199e-16 0)
(3 5.29351e-17 0)
(3 -1.82686e-16 0)
(3 -3.14581e-16 0)
(3 -6.70918e-16 0)
(3 -7.86789e-16 0)
(3 -1.4599e-15 0)
(3 -1.9661e-15 0)
(3 -2.12405e-15 0)
(3 -1.78107e-15 0)
(3 -1.14195e-15 0)
(3 -3.47619e-17 0)
(3 -1.3503e-16 0)
(3 -6.89289e-16 0)
(3 -1.51731e-15 0)
(3 -2.31953e-15 0)
(3 -2.17861e-15 0)
(3 -1.7027e-15 0)
(3 -1.78447e-16 0)
(3 9.82146e-16 0)
(3 1.01539e-15 0)
(3 6.30171e-16 0)
(3 -1.06628e-17 0)
(3 -7.99451e-16 0)
(3 -9.28284e-16 0)
(3 -9.63071e-16 0)
(3 -6.95087e-16 0)
(3 2.28699e-16 0)
(3 -3.92159e-16 0)
(2.66813 0.177968 0)
(0.959943 0.261774 0)
(0.783671 0.236981 0)
(0.774412 0.221817 0)
(0.75495 0.217965 0)
(0.738784 0.219772 0)
(0.723576 0.226662 0)
(0.709014 0.235114 0)
(0.693639 0.24031 0)
(0.677951 0.239845 0)
(0.66285 0.235522 0)
(0.647759 0.232724 0)
(0.632931 0.234253 0)
(0.618027 0.239157 0)
(0.602831 0.246012 0)
(0.587285 0.252061 0)
(0.571392 0.25429 0)
(0.555778 0.252951 0)
(0.540295 0.252043 0)
(0.525295 0.254976 0)
(0.511118 0.261212 0)
(0.496613 0.267549 0)
(0.481319 0.271517 0)
(0.465825 0.274179 0)
(0.450576 0.277879 0)
(0.435576 0.283043 0)
(0.420392 0.288736 0)
(0.404803 0.294424 0)
(0.388869 0.300313 0)
(0.372678 0.306621 0)
(0.356258 0.313253 0)
(0.339557 0.319973 0)
(0.322484 0.326652 0)
(0.304912 0.333243 0)
(0.286682 0.33962 0)
(0.267647 0.345636 0)
(0.2477 0.351171 0)
(0.226776 0.356152 0)
(0.204855 0.360561 0)
(0.181957 0.364297 0)
(0.158245 0.367581 0)
(0.133922 0.370223 0)
(0.109393 0.373276 0)
(0.0847448 0.375574 0)
(0.060578 0.380018 0)
(0.0361987 0.382632 0)
(0.0125085 0.387747 0)
(3 -7.0013e-18 0)
(3 -7.8703e-17 0)
(3 -2.03679e-16 0)
(3 -4.79727e-16 0)
(3 -5.50387e-16 0)
(3 -3.17014e-16 0)
(3 -4.96741e-16 0)
(3 -4.98025e-16 0)
(3 3.27809e-16 0)
(3 6.66634e-16 0)
(3 4.58632e-16 0)
(3 -7.6395e-17 0)
(3 -9.6444e-16 0)
(3 -5.8024e-16 0)
(3 -8.24542e-18 0)
(3 4.63819e-16 0)
(3 1.54764e-15 0)
(3 1.68234e-16 0)
(3 -1.7606e-15 0)
(3 -2.02077e-15 0)
(3 -1.82827e-15 0)
(3 -1.29244e-15 0)
(3 -1.85393e-16 0)
(3 -1.98359e-16 0)
(3 -6.40442e-16 0)
(3 -7.84517e-16 0)
(3 -1.11414e-15 0)
(3 -4.15099e-16 0)
(3 -3.61475e-16 0)
(3 -4.41047e-16 0)
(3 -6.59096e-16 0)
(3 -6.65402e-16 0)
(3 -4.06035e-16 0)
(3 -4.19699e-16 0)
(3 -1.06545e-16 0)
(3 2.13148e-16 0)
(3 8.12236e-16 0)
(3 8.81878e-16 0)
(3 1.11676e-16 0)
(3 -8.53684e-17 0)
(3 1.38745e-16 0)
(3 7.94642e-16 0)
(3 8.39313e-16 0)
(3 6.91043e-16 0)
(3 1.04903e-15 0)
(3 1.04072e-15 0)
(3 8.67296e-16 0)
(3 7.21726e-16 0)
(3 1.68194e-16 0)
(3.02151 0.0109818 0)
(1.14576 0.28131 0)
(0.811494 0.234998 0)
(0.798519 0.245988 0)
(0.781316 0.248395 0)
(0.764353 0.250471 0)
(0.748149 0.255885 0)
(0.733454 0.262933 0)
(0.719122 0.267691 0)
(0.704581 0.268047 0)
(0.690122 0.26466 0)
(0.67534 0.261551 0)
(0.660453 0.262456 0)
(0.645727 0.267247 0)
(0.630857 0.274043 0)
(0.615695 0.280257 0)
(0.600101 0.283607 0)
(0.584278 0.283827 0)
(0.56832 0.283282 0)
(0.552486 0.28541 0)
(0.537447 0.291189 0)
(0.52256 0.298387 0)
(0.506733 0.303966 0)
(0.490224 0.307424 0)
(0.473715 0.311188 0)
(0.457554 0.316668 0)
(0.441461 0.32317 0)
(0.425076 0.329754 0)
(0.408416 0.336428 0)
(0.391602 0.343554 0)
(0.37468 0.351214 0)
(0.357578 0.359215 0)
(0.340174 0.367414 0)
(0.322314 0.375764 0)
(0.303791 0.384167 0)
(0.284383 0.39245 0)
(0.26389 0.40045 0)
(0.242162 0.407969 0)
(0.219176 0.414926 0)
(0.19498 0.421008 0)
(0.169875 0.426331 0)
(0.144117 0.430463 0)
(0.118131 0.43464 0)
(0.0917898 0.437363 0)
(0.0656134 0.441808 0)
(0.0392038 0.444204 0)
(0.013395 0.449326 0)
(3 4.64351e-18 0)
(3 1.4689e-16 0)
(3 1.11687e-16 0)
(3 2.41058e-16 0)
(3 1.51521e-16 0)
(3 2.56549e-16 0)
(3 3.43441e-16 0)
(3 3.32351e-16 0)
(3 -2.38929e-16 0)
(3 -8.53432e-16 0)
(3 -1.00548e-15 0)
(3 -1.68275e-15 0)
(3 -2.29867e-15 0)
(3 -2.19023e-15 0)
(3 -1.79048e-15 0)
(3 -1.59787e-15 0)
(3 -2.39452e-15 0)
(3 -2.57671e-15 0)
(3 -2.07129e-15 0)
(3 -2.14241e-15 0)
(3 -1.4449e-15 0)
(3 -1.6022e-15 0)
(3 -1.47807e-15 0)
(3 -1.50338e-15 0)
(3 -1.14541e-15 0)
(3 -9.89611e-16 0)
(3 -3.85304e-16 0)
(3 2.2467e-17 0)
(3 6.05908e-16 0)
(3 2.72567e-16 0)
(3 -5.44492e-17 0)
(3 1.86787e-16 0)
(3 7.05254e-16 0)
(3 1.09173e-15 0)
(3 1.28569e-15 0)
(3 1.19638e-15 0)
(3 9.40072e-16 0)
(3 6.79534e-16 0)
(3 4.19841e-16 0)
(3 1.41261e-15 0)
(3 1.85023e-15 0)
(3 2.04956e-15 0)
(3 2.18357e-15 0)
(3 1.46481e-15 0)
(3 1.78649e-15 0)
(3 2.34644e-15 0)
(3 2.25493e-15 0)
(3 1.92367e-15 0)
(3 1.05365e-15 0)
(3.00033 1.06901e-05 0)
(1.55502 0.3108 0)
(0.826208 0.275146 0)
(0.783205 0.28085 0)
(0.767195 0.285712 0)
(0.752162 0.286006 0)
(0.73869 0.288076 0)
(0.726613 0.292343 0)
(0.715026 0.296714 0)
(0.702841 0.298871 0)
(0.690056 0.297953 0)
(0.676713 0.296135 0)
(0.662974 0.2971 0)
(0.64945 0.30177 0)
(0.635943 0.30838 0)
(0.6223 0.314735 0)
(0.608426 0.319249 0)
(0.594233 0.321328 0)
(0.579744 0.321986 0)
(0.565071 0.323678 0)
(0.550765 0.32834 0)
(0.536977 0.335497 0)
(0.522551 0.342465 0)
(0.507003 0.347172 0)
(0.491014 0.351055 0)
(0.475225 0.356371 0)
(0.459655 0.363204 0)
(0.443805 0.370462 0)
(0.427503 0.377766 0)
(0.410888 0.385481 0)
(0.394125 0.393906 0)
(0.377226 0.402961 0)
(0.360106 0.412502 0)
(0.342628 0.422478 0)
(0.324604 0.432839 0)
(0.305762 0.443375 0)
(0.285956 0.453944 0)
(0.264926 0.464115 0)
(0.24253 0.473715 0)
(0.218738 0.482267 0)
(0.19362 0.489985 0)
(0.167039 0.496498 0)
(0.139237 0.503533 0)
(0.109551 0.509404 0)
(0.0786882 0.515794 0)
(0.0469253 0.518915 0)
(0.0158166 0.523778 0)
(3 -1.6959e-16 0)
(3 -2.01161e-16 0)
(3 -1.01629e-16 0)
(3 -9.78957e-17 0)
(3 -1.67357e-16 0)
(3 -2.52671e-16 0)
(3 -1.09636e-16 0)
(3 6.64564e-17 0)
(3 -7.14577e-16 0)
(3 -1.18995e-15 0)
(3 -1.16865e-15 0)
(3 -9.67941e-16 0)
(3 -8.55312e-16 0)
(3 -1.35571e-15 0)
(3 -2.36947e-15 0)
(3 -2.87459e-15 0)
(3 -2.73435e-15 0)
(3 -2.32478e-15 0)
(3 -2.27223e-15 0)
(3 -1.56253e-15 0)
(3 -1.67715e-15 0)
(3 -1.61657e-15 0)
(3 -1.46771e-15 0)
(3 -1.18939e-15 0)
(3 -3.82177e-17 0)
(3 8.99979e-16 0)
(3 7.37507e-16 0)
(3 4.81287e-16 0)
(3 6.53747e-16 0)
(3 7.49699e-16 0)
(3 1.46609e-15 0)
(3 1.78449e-15 0)
(3 1.76008e-15 0)
(3 1.72577e-15 0)
(3 1.98283e-15 0)
(3 1.71352e-15 0)
(3 1.0586e-15 0)
(3 1.43402e-15 0)
(3 1.81413e-15 0)
(3 2.49975e-15 0)
(3 3.45206e-15 0)
(3 3.14054e-15 0)
(3 1.97281e-15 0)
(3 1.55088e-15 0)
(3 9.4708e-16 0)
(3 1.37374e-15 0)
(3 1.62057e-15 0)
(3 1.89086e-15 0)
(3 1.79579e-15 0)
(3 1.87124e-08 0)
(2.38419 0.279503 0)
(0.920848 0.332624 0)
(0.793179 0.322342 0)
(0.780104 0.315596 0)
(0.765053 0.315336 0)
(0.752172 0.315161 0)
(0.740252 0.317844 0)
(0.728892 0.322122 0)
(0.717145 0.326057 0)
(0.704579 0.327875 0)
(0.691512 0.327861 0)
(0.678192 0.329095 0)
(0.665213 0.333315 0)
(0.652454 0.339217 0)
(0.639615 0.34503 0)
(0.626719 0.350003 0)
(0.613638 0.353794 0)
(0.600207 0.356422 0)
(0.586433 0.358791 0)
(0.572586 0.362742 0)
(0.55917 0.369465 0)
(0.545783 0.377679 0)
(0.531333 0.384663 0)
(0.516031 0.389886 0)
(0.5007 0.39561 0)
(0.485726 0.403014 0)
(0.470654 0.411379 0)
(0.454997 0.419894 0)
(0.438786 0.428723 0)
(0.422225 0.438273 0)
(0.405493 0.4487 0)
(0.388566 0.459847 0)
(0.371349 0.471671 0)
(0.353629 0.484199 0)
(0.334939 0.49734 0)
(0.315049 0.511018 0)
(0.293554 0.524936 0)
(0.270175 0.53896 0)
(0.244523 0.552667 0)
(0.216694 0.566196 0)
(0.186639 0.578917 0)
(0.155336 0.591863 0)
(0.123021 0.603615 0)
(0.0897181 0.61311 0)
(0.054901 0.617969 0)
(0.0177095 0.620921 0)
(3 3.94737e-17 0)
(3 7.17176e-17 0)
(3 -8.08972e-19 0)
(3 -1.82593e-16 0)
(3 -2.30031e-16 0)
(3 -3.55414e-16 0)
(3 -2.76333e-16 0)
(3 3.162e-16 0)
(3 6.29685e-16 0)
(3 7.22019e-16 0)
(3 7.59913e-16 0)
(3 9.60565e-16 0)
(3 1.13627e-15 0)
(3 3.59131e-16 0)
(3 -3.10014e-16 0)
(3 -2.59031e-16 0)
(3 3.1679e-16 0)
(3 5.74305e-16 0)
(3 5.32833e-16 0)
(3 4.85601e-16 0)
(3 2.74923e-16 0)
(3 1.08294e-16 0)
(3 -1.58798e-16 0)
(3 -3.22673e-16 0)
(3 -3.61458e-16 0)
(3 -7.5345e-17 0)
(3 2.9894e-16 0)
(3 9.72933e-16 0)
(3 1.20338e-15 0)
(3 1.81224e-15 0)
(3 1.84796e-15 0)
(3 1.62914e-15 0)
(3 1.83987e-15 0)
(3 2.31801e-15 0)
(3 2.74154e-15 0)
(3 3.45848e-15 0)
(3 4.24358e-15 0)
(3 4.19374e-15 0)
(3 2.95688e-15 0)
(3 2.21791e-15 0)
(3 1.9743e-15 0)
(3 1.79892e-15 0)
(3 1.80038e-15 0)
(3 1.90304e-15 0)
(3 1.71172e-15 0)
(3 1.56631e-15 0)
(3 1.81912e-15 0)
(3 2.12584e-15 0)
(3 3.06349e-15 0)
(3 -7.98818e-09 0)
(3.02715 0.0172 0)
(1.25575 0.372645 0)
(0.841429 0.331232 0)
(0.819159 0.339846 0)
(0.80423 0.337657 0)
(0.789622 0.336203 0)
(0.776059 0.33865 0)
(0.762991 0.343779 0)
(0.750019 0.349709 0)
(0.736583 0.354369 0)
(0.722703 0.356806 0)
(0.70877 0.358876 0)
(0.695293 0.362856 0)
(0.68225 0.368276 0)
(0.669212 0.373704 0)
(0.656172 0.378881 0)
(0.64318 0.384064 0)
(0.630065 0.389104 0)
(0.616588 0.39356 0)
(0.602824 0.39792 0)
(0.589189 0.404059 0)
(0.576034 0.412642 0)
(0.562572 0.42178 0)
(0.548148 0.429282 0)
(0.533454 0.435999 0)
(0.51917 0.443849 0)
(0.505207 0.453176 0)
(0.490633 0.463147 0)
(0.475506 0.473595 0)
(0.459635 0.484725 0)
(0.443415 0.496929 0)
(0.426958 0.510081 0)
(0.410404 0.524249 0)
(0.393463 0.539425 0)
(0.375864 0.555794 0)
(0.357192 0.573422 0)
(0.337149 0.592256 0)
(0.315532 0.612113 0)
(0.292134 0.632469 0)
(0.266909 0.65267 0)
(0.239743 0.671392 0)
(0.210289 0.687522 0)
(0.178768 0.703212 0)
(0.141724 0.721725 0)
(0.0958381 0.743818 0)
(0.036836 0.763093 0)
(3 4.97581e-17 0)
(3 5.60455e-17 0)
(3 3.07731e-16 0)
(3 6.79772e-16 0)
(3 6.16346e-16 0)
(3 1.99873e-16 0)
(3 3.43296e-17 0)