/*--------------------------------*- C++ -*----------------------------------*\
  =========                 |
  \\      /  F ield         | OpenFOAM: The Open Source CFD Toolbox
   \\    /   O peration     | Website:  https://openfoam.org
    \\  /    A nd           | Version:  7
     \\/     M anipulation  |
\*---------------------------------------------------------------------------*/
FoamFile
{
    version     2.0;
    format      ascii;
    class       volScalarField;
    location    "4.8";
    object      T;
}
// * * * * * * * * * * * * * * * * * * * * * * * * * * * * * * * * * * * * * //

dimensions      [0 0 0 1 0 0 0];

internalField   nonuniform List<scalar> 
1000
(
0
0
0
0
0
0
0
0
0
0
0
0
0
0
0
0
0
0
0
0
0
0
0
0
0
0
0
-2.96439e-323
1.16105e-321
-3.62397e-320
1.10207e-318
-3.28358e-317
9.5872e-316
-2.74382e-314
7.69928e-313
-2.11876e-311
5.7194e-310
-1.51481e-308
3.93731e-307
-1.00454e-305
2.51621e-304
-6.18912e-303
1.49518e-301
-3.54832e-300
8.27354e-299
-1.89573e-297
4.26924e-296
-9.4511e-295
2.05703e-293
-4.40242e-292
9.26609e-291
-1.91831e-289
3.90678e-288
-7.82802e-287
1.54339e-285
-2.99462e-284
5.71879e-283
-1.07501e-281
1.98939e-280
-3.62466e-279
6.50286e-278
-1.14888e-276
1.99905e-275
-3.426e-274
5.78377e-273
-9.61904e-272
1.57611e-270
-2.54456e-269
4.04805e-268
-6.34627e-267
9.80536e-266
-1.49318e-264
2.24128e-263
-3.31623e-262
4.83709e-261
-6.95574e-260
9.8616e-259
-1.37855e-257
1.90016e-256
-2.58271e-255
3.46178e-254
-4.57597e-253
5.9655e-252
-7.67025e-251
9.72721e-250
-1.21675e-248
1.50129e-247
-1.82722e-246
2.1938e-245
-2.59833e-244
3.03597e-243
-3.49957e-242
3.97978e-241
-4.46517e-240
4.94265e-239
-5.39801e-238
5.81654e-237
-6.18385e-236
6.48664e-235
-6.71355e-234
6.85579e-233
-6.90776e-232
6.8674e-231
-6.7363e-230
6.51963e-229
-6.22578e-228
5.86584e-227
-5.45289e-226
5.00122e-225
-4.52556e-224
4.04022e-223
-3.55847e-222
3.09199e-221
-2.65042e-220
2.24118e-219
-1.86944e-218
1.53816e-217
-1.24831e-216
9.99219e-216
-7.88839e-215
6.14161e-214
-4.71537e-213
3.56994e-212
-2.66493e-211
1.96136e-210
-1.42312e-209
1.01788e-208
-7.17607e-208
4.98613e-207
-3.41415e-206
2.30352e-205
-1.53122e-204
1.00267e-203
-6.46695e-203
4.1076e-202
-2.56894e-201
1.58168e-200
-9.58514e-200
5.71616e-199
-3.35381e-198
1.93551e-197
-1.0984e-196
6.12781e-196
-3.35968e-195
1.80962e-194
-9.57217e-194
4.97032e-193
-2.53227e-192
1.26521e-191
-6.19569e-191
2.97175e-190
-1.3951e-189
6.40477e-189
-2.87263e-188
1.25728e-187
-5.36255e-187
2.22526e-186
-8.96572e-186
3.49847e-185
-1.31775e-184
4.77021e-184
-1.64932e-183
5.39683e-183
-1.64652e-182
4.55784e-182
-1.07749e-181
1.7829e-181
6.23165e-182
-2.31677e-180
1.35253e-179
-5.73494e-179
2.01349e-178
-5.94984e-178
1.40267e-177
-2.0075e-177
-2.8958e-177
3.73705e-176
-1.83498e-175
6.5671e-175
-1.82159e-174
3.5058e-174
-1.06906e-174
-2.90453e-173
1.67652e-172
-6.13085e-172
1.61857e-171
-2.56583e-171
-2.24435e-171
3.62551e-170
-1.64475e-169
4.91731e-169
-9.24563e-169
1.2505e-171
8.6222e-168
-4.23085e-167
1.26162e-166
-2.19856e-166
-1.00759e-166
2.47164e-165
-1.06905e-164
2.75551e-164
-3.16711e-164
-9.97358e-164
7.31197e-163
-2.40761e-162
4.33277e-162
1.78535e-162
-4.52034e-161
1.80534e-160
-3.89345e-160
1.24114e-160
2.76499e-159
-1.2604e-158
2.91287e-158
-1.48824e-158
-1.80238e-157
8.49587e-157
-1.92288e-156
7.07369e-157
1.27862e-155
-5.54679e-155
1.11571e-154
1.54063e-155
-9.42776e-154
3.4187e-153
-5.32612e-153
-7.0395e-153
6.70817e-152
-1.88573e-151
1.61251e-151
8.68354e-151
-4.28706e-150
8.39977e-150
3.21486e-150
-7.39598e-149
2.27344e-148
-2.16847e-148
-9.54461e-148
4.74746e-147
-8.57459e-147
-6.69263e-147
8.35539e-146
-2.1798e-145
8.93992e-146
1.27434e-144
-4.58174e-144
5.06537e-144
1.67846e-143
-8.59613e-143
1.39712e-142
1.82167e-142
-1.49587e-141
3.08918e-141
1.33275e-141
-2.47697e-140
6.08016e-140
-3.12298e-141
-3.9837e-139
1.11162e-138
-3.73112e-139
-6.33394e-138
1.92972e-137
-9.41968e-138
-1.00992e-136
3.21848e-136
-1.7213e-136
-1.62908e-135
5.18403e-135
-2.51462e-135
-2.66194e-134
8.06153e-134
-2.73422e-134
-4.37839e-133
1.20359e-132
-1.05793e-133
-7.16316e-132
1.70514e-131
5.04035e-132
-1.14831e-130
2.24485e-130
1.97639e-130
-1.77429e-129
2.63943e-129
4.91173e-129
-2.59451e-128
2.51907e-128
9.9992e-128
-3.50908e-127
1.27961e-127
1.7723e-126
-4.23719e-126
-1.8723e-126
2.77817e-125
-4.24729e-125
-7.67507e-125
3.82516e-124
-2.77073e-124
-1.62754e-123
4.48064e-123
9.94504e-124
-2.64297e-122
4.07046e-122
7.40114e-122
-3.47541e-121
1.85567e-121
1.56357e-120
-3.57114e-120
-2.54154e-120
2.30861e-119
-2.32185e-119
-8.53304e-119
2.54275e-118
5.683e-119
-1.41029e-117
1.81236e-117
4.60926e-117
-1.60355e-116
-5.38325e-118
8.25404e-116
-1.12976e-115
-2.61094e-115
9.2553e-115
6.20751e-116
-4.70501e-114
5.86483e-114
1.57127e-113
-4.89934e-113
-1.54827e-113
2.58917e-112
-2.41686e-112
-9.64454e-112
2.3161e-111
1.92363e-111
-1.3326e-110
6.00568e-111
5.66098e-110
-9.10665e-110
-1.67717e-109
6.07725e-109
1.4225e-109
-2.97941e-108
2.39186e-108
1.13585e-107
-2.22793e-107
-3.03292e-107
1.30862e-106
1.43618e-107
-6.06184e-106
4.88631e-106
2.28599e-105
-4.20343e-105
-6.55136e-105
2.42453e-104
8.71949e-105
-1.13997e-103
5.35443e-104
4.56106e-103
-5.86855e-103
-1.53241e-102
3.67861e-102
3.90793e-102
-1.85722e-101
-3.66368e-102
8.15381e-101
-3.93007e-101
-3.18403e-100
3.70232e-100
1.10103e-99
-2.22251e-99
-3.24223e-99
1.11082e-98
7.0149e-99
-4.958e-98
-1.70653e-99
2.03161e-97
-9.81658e-98
-7.73077e-97
7.74712e-97
2.73731e-96
-4.36816e-96
-8.95371e-96
2.12588e-95
2.64577e-95
-9.46649e-95
-6.64556e-95
3.95993e-94
1.12734e-94
-1.57879e-93
1.06251e-94
6.05383e-93
-2.33259e-93
-2.24651e-92
1.54627e-92
8.10547e-92
-8.0179e-92
-2.85414e-91
3.70364e-91
9.84105e-91
-1.59534e-90
-3.33327e-90
6.55009e-90
1.11282e-89
-2.59545e-89
-3.67577e-89
1.00036e-88
1.2066e-88
-3.7704e-88
-3.95652e-88
1.39485e-87
1.3036e-87
-5.07845e-87
-4.34229e-87
1.82307e-86
1.47058e-86
-6.46042e-86
-5.0842e-86
2.26133e-85
1.79723e-85
-7.81874e-85
-6.48708e-85
2.66909e-84
2.38157e-84
-8.98624e-84
-8.84406e-84
2.97876e-83
3.30202e-83
-9.69726e-83
-1.23232e-82
3.08948e-82
4.5735e-82
-9.58445e-82
-1.68057e-81
2.87397e-81
6.09156e-81
-8.23359e-81
-2.17091e-80
2.20862e-80
7.58321e-80
-5.32371e-80
-2.58817e-79
1.03188e-79
8.60049e-79
-8.4889e-80
-2.77053e-78
-5.79041e-79
8.60232e-78
4.64551e-78
-2.55328e-77
-2.34709e-77
7.15097e-77
9.95698e-77
-1.84675e-76
-3.80431e-76
4.18832e-76
1.34294e-75
-7.2299e-76
-4.41975e-75
2.64692e-76
1.35578e-74
5.42055e-75
-3.84225e-74
-3.4721e-74
9.83977e-74
1.52962e-73
-2.1586e-73
-5.66764e-73
3.41033e-73
1.85858e-72
1.15416e-74
-5.45367e-72
-3.12134e-72
1.41267e-71
1.73532e-71
-3.0676e-71
-6.87417e-71
4.6303e-71
2.26538e-70
1.05108e-71
-6.40839e-70
-4.47219e-70
1.52567e-69
2.28879e-69
-2.75582e-69
-8.34286e-69
1.92123e-69
2.4718e-68
1.23255e-68
-5.98774e-68
-7.81536e-68
1.07667e-67
2.96652e-67
-7.05602e-68
-8.68378e-67
-4.83291e-67
1.98873e-66
2.89949e-66
-3.06021e-66
-1.03377e-65
-2.53956e-67
2.76051e-65
2.38946e-65
-5.35684e-65
-1.0975e-64
4.74014e-65
3.32812e-64
1.68892e-64
-7.2776e-64
-1.10093e-63
9.08776e-64
3.71832e-63
1.07494e-63
-8.68064e-63
-1.09922e-62
1.2021e-62
3.99716e-62
7.7765e-63
-9.51845e-62
-1.13871e-61
1.3022e-61
4.21291e-61
9.47738e-62
-9.73137e-61
-1.2409e-60
1.17246e-60
4.35307e-60
1.63667e-60
-9.18189e-60
-1.39169e-59
7.92095e-60
4.326e-59
2.76525e-59
-7.67444e-59
-1.53591e-58
1.75514e-59
3.97808e-58
4.08222e-58
-5.08236e-58
-1.58264e-57
-5.93969e-58
3.15848e-57
5.15166e-57
-1.56086e-57
-1.43114e-56
-1.33826e-56
1.83056e-56
5.43621e-56
2.25459e-56
-1.02284e-55
-1.80367e-55
1.90014e-56
4.52449e-55
5.2532e-55
-4.04529e-55
-1.757e-54
-1.30207e-54
2.45174e-54
6.24217e-54
2.41218e-54
-1.14276e-53
-2.07377e-53
-9.50568e-55
4.69485e-53
6.53391e-53
-2.03993e-53
-1.78815e-52
-1.97412e-52
1.40542e-52
6.48228e-52
5.78243e-52
-6.77448e-52
-2.27417e-51
-1.66421e-51
2.82173e-51
7.81284e-51
4.7942e-51
-1.08082e-50
-2.65131e-50
-1.41735e-50
3.90923e-50
8.94241e-50
4.42184e-50
-1.35174e-49
-3.00883e-49
-1.48531e-49
4.48854e-49
1.01107e-48
5.37463e-49
-1.42886e-48
-3.38817e-48
-2.05524e-48
4.3233e-48
1.12775e-47
8.08092e-48
-1.21929e-47
-3.70445e-47
-3.18733e-47
3.06806e-47
1.19007e-46
1.23834e-46
-6.08308e-47
-3.6927e-46
-4.67767e-46
4.13361e-47
1.08674e-45
1.70004e-45
4.50175e-46
-2.94238e-45
-5.88269e-45
-3.47803e-45
6.8778e-45
1.91244e-44
1.75652e-44
-1.13466e-44
-5.72123e-44
-7.36982e-44
-3.91105e-45
1.51474e-43
2.71174e-43
1.47672e-43
-3.22347e-43
-8.81438e-43
-8.6375e-43
3.54522e-43
2.47114e-42
3.64561e-42
1.25584e-42
-5.50111e-42
-1.25734e-41
-1.10389e-41
6.65744e-42
3.5516e-41
5.07604e-41
1.78598e-41
-7.45027e-41
-1.75231e-40
-1.67173e-40
5.91118e-41
4.62698e-40
7.41055e-40
4.16786e-40
-7.74289e-40
-2.33946e-39
-2.80827e-39
-4.28877e-40
5.07496e-39
1.06154e-38
9.75151e-39
-3.44689e-39
-2.70775e-38
-4.5294e-38
-3.14845e-38
3.32264e-38
1.30802e-37
1.87457e-37
9.6261e-38
-2.00789e-37
-5.98533e-37
-7.71264e-37
-2.91075e-37
1.02344e-36
2.65807e-36
3.21796e-36
9.65981e-37
-4.7323e-36
-1.16087e-35
-1.37979e-35
-4.06597e-36
2.03039e-35
5.01055e-35
6.10392e-35
2.2152e-35
-8.06015e-35
-2.13173e-34
-2.76819e-34
-1.36548e-34
2.86974e-34
8.84644e-34
1.26803e-33
8.46566e-34
-8.29692e-34
-3.50896e-33
-5.74876e-33
-5.01192e-33
1.15378e-33
1.28182e-32
2.51656e-32
2.77743e-32
8.08369e-33
-3.97749e-32
-1.03023e-31
-1.42235e-31
-9.80056e-32
7.87461e-32
3.74627e-31
6.61308e-31
6.85623e-31
1.52547e-31
-1.07414e-30
-2.69849e-30
-3.79304e-30
-2.9051e-30
1.31243e-30
8.9205e-30
1.73376e-29
2.06807e-29
1.09988e-29
-1.76701e-29
-6.26919e-29
-1.06117e-28
-1.1274e-28
-3.90885e-29
1.42458e-28
4.0708e-28
6.42597e-28
6.42942e-28
1.62665e-28
-9.45928e-28
-2.52785e-27
-3.92872e-27
-3.95055e-27
-1.14027e-27
5.45766e-27
1.51369e-26
2.43297e-26
2.61355e-26
1.16079e-26
-2.63174e-26
-8.62122e-26
-1.50496e-25
-1.80606e-25
-1.20856e-25
8.29201e-26
4.47078e-25
9.01456e-25
1.24607e-24
1.14502e-24
1.97935e-25
-1.87811e-24
-4.95612e-24
-8.16124e-24
-9.64123e-24
-6.68583e-24
3.53156e-24
2.24046e-23
4.76267e-23
7.07808e-23
7.59964e-23
4.14682e-23
-5.41938e-23
-2.19509e-22
-4.32324e-22
-6.20986e-22
-6.53513e-22
-3.48334e-22
4.77858e-22
1.9136e-21
3.80945e-21
5.6154e-21
6.26222e-21
4.1893e-21
-2.35103e-21
-1.45916e-20
-3.21041e-20
-5.13274e-20
-6.41589e-20
-5.73397e-20
-1.37037e-20
8.34662e-20
2.41944e-19
4.47767e-19
6.49745e-19
7.45606e-19
5.77557e-19
-5.15304e-20
-1.32818e-18
-3.33319e-18
-5.89785e-18
-8.42506e-18
-9.71618e-18
-7.88171e-18
-4.54583e-19
1.51413e-17
4.0609e-17
7.51738e-17
1.13381e-16
1.42581e-16
1.40761e-16
7.59202e-17
-9.12845e-17
-3.99405e-16
-8.70232e-16
-1.48322e-15
-2.1402e-15
-2.62372e-15
-2.55746e-15
-1.38498e-15
1.60802e-15
7.19291e-15
1.59764e-14
2.80144e-14
4.22295e-14
5.56323e-14
6.24083e-14
5.3034e-14
1.37311e-14
-7.32379e-14
-2.27702e-13
-4.67181e-13
-7.98807e-13
-1.2064e-12
-1.63177e-12
-1.95011e-12
-1.94072e-12
-1.25687e-12
5.97518e-13
4.27145e-12
1.05303e-11
2.01499e-11
3.37022e-11
5.11817e-11
7.14163e-11
9.11998e-11
1.04094e-10
9.88769e-11
5.76583e-11
-4.61883e-11
-2.49994e-10
-6.03096e-10
-1.16654e-09
-2.00966e-09
-3.20141e-09
-4.79299e-09
-6.78728e-09
-9.0887e-09
-1.14247e-08
-1.32273e-08
-1.34602e-08
-1.03713e-08
-1.14683e-09
1.85637e-08
5.52895e-08
1.18592e-07
2.2219e-07
3.85407e-07
6.35047e-07
1.00774e-06
1.55294e-06
2.33654e-06
3.44546e-06
4.99311e-06
7.12606e-06
1.0032e-05
1.39491e-05
1.91772e-05
2.60909e-05
3.51541e-05
4.69377e-05
6.21388e-05
8.16035e-05
0.000106351
0.000137601
0.000176805
0.00022568
0.000286243
0.00036085
0.00045224
0.000563574
0.000698486
0.000861125
0.00105621
0.00128906
0.00156568
0.00189276
0.00227776
0.00272893
0.00325535
0.00386699
0.0045747
0.00539023
0.0063263
0.00739651
0.00861543
0.00999851
0.0115621
0.0133233
0.0153001
0.0175111
0.0199755
0.0227132
0.0257442
0.0290891
0.0327684
0.0368026
0.0412123
0.0460174
0.0512375
0.0568914
0.0629971
0.0695713
0.0766297
0.0841865
0.0922539
0.100843
0.109962
0.119618
0.129814
0.140554
0.151836
0.163657
0.176012
0.188891
0.202285
0.216179
0.230556
0.245398
0.260684
0.276389
0.292487
0.30895
0.325748
0.342849
0.36022
0.377824
0.395628
0.413593
0.431682
0.449857
0.46808
0.486312
0.504517
0.522656
0.540693
0.558593
0.57632
0.593843
0.611128
0.628147
0.64487
0.661272
0.677328
0.693016
0.708316
0.723209
0.737679
0.751714
0.765302
0.778432
0.791099
0.803296
0.81502
0.82627
0.837046
0.847351
0.857187
0.86656
0.875475
0.883941
0.891965
0.899558
0.906729
0.913488
0.919847
0.925817
0.931409
0.936636
0.941508
0.946037
0.950234
0.954108
0.95767
0.960927
0.96389
0.966563
0.968954
0.971066
0.972905
0.974471
0.975767
0.976791
0.977542
0.978017
0.978211
0.978119
0.977732
0.977043
0.976041
0.974716
0.973054
0.971044
0.968672
0.965921
0.962778
0.959228
0.955252
0.950843
0.945952
0.940701
0.934533
0.929537
0.917626
)
;

boundaryField
{
    sides
    {
        type            zeroGradient;
    }
    empty
    {
        type            empty;
    }
}


// ************************************************************************* //
