/*--------------------------------*- C++ -*----------------------------------*\
  =========                 |
  \\      /  F ield         | OpenFOAM: The Open Source CFD Toolbox
   \\    /   O peration     | Website:  https://openfoam.org
    \\  /    A nd           | Version:  7
     \\/     M anipulation  |
\*---------------------------------------------------------------------------*/
FoamFile
{
    version     2.0;
    format      ascii;
    class       volScalarField;
    location    "1.41";
    object      T;
}
// * * * * * * * * * * * * * * * * * * * * * * * * * * * * * * * * * * * * * //

dimensions      [0 0 0 1 0 0 0];

internalField   nonuniform List<scalar> 
1000
(
0.000542101
0.000542235
0.000542506
0.000542913
0.000543459
0.000544145
0.000544973
0.000545944
0.000547059
0.000548321
0.000549731
0.00055129
0.000553
0.000554863
0.000556881
0.000559055
0.000561387
0.000563879
0.000566533
0.000569351
0.000572335
0.000575486
0.000578807
0.000582299
0.000585966
0.000589808
0.000593828
0.000598029
0.000602412
0.00060698
0.000611736
0.00061668
0.000621817
0.000627148
0.000632676
0.000638404
0.000644333
0.000650467
0.000656809
0.00066336
0.000670124
0.000677104
0.000684302
0.000691721
0.000699365
0.000707236
0.000715337
0.000723672
0.000732243
0.000741054
0.000750108
0.000759408
0.000768958
0.000778761
0.000788821
0.00079914
0.000809723
0.000820574
0.000831695
0.000843091
0.000854766
0.000866723
0.000878966
0.000891499
0.000904327
0.000917452
0.000930881
0.000944616
0.000958662
0.000973023
0.000987704
0.00100271
0.00101804
0.00103371
0.00104971
0.00106606
0.00108276
0.00109981
0.00111721
0.00113498
0.00115311
0.00117162
0.0011905
0.00120977
0.00122942
0.00124947
0.00126992
0.00129078
0.00131204
0.00133372
0.00135582
0.00137835
0.00140131
0.00142471
0.00144856
0.00147286
0.00149762
0.00152284
0.00154854
0.00157471
0.00160136
0.00162851
0.00165615
0.0016843
0.00171296
0.00174214
0.00177184
0.00180207
0.00183285
0.00186417
0.00189604
0.00192848
0.00196148
0.00199507
0.00202923
0.00206399
0.00209935
0.00213532
0.00217191
0.00220912
0.00224696
0.00228545
0.00232458
0.00236438
0.00240484
0.00244597
0.00248779
0.00253031
0.00257353
0.00261746
0.00266211
0.00270749
0.00275361
0.00280049
0.00284812
0.00289651
0.00294569
0.00299566
0.00304642
0.003098
0.00315039
0.00320361
0.00325767
0.00331258
0.00336835
0.00342499
0.00348251
0.00354093
0.00360025
0.00366049
0.00372165
0.00378375
0.0038468
0.0039108
0.00397578
0.00404175
0.00410871
0.00417667
0.00424566
0.00431567
0.00438673
0.00445885
0.00453204
0.0046063
0.00468166
0.00475812
0.00483571
0.00491442
0.00499428
0.0050753
0.00515749
0.00524086
0.00532543
0.00541121
0.00549822
0.00558646
0.00567596
0.00576672
0.00585876
0.0059521
0.00604675
0.00614271
0.00624002
0.00633867
0.0064387
0.0065401
0.00664289
0.0067471
0.00685273
0.00695981
0.00706833
0.00717833
0.00728981
0.0074028
0.0075173
0.00763333
0.00775091
0.00787005
0.00799077
0.00811309
0.00823702
0.00836257
0.00848977
0.00861862
0.00874915
0.00888137
0.0090153
0.00915096
0.00928835
0.0094275
0.00956843
0.00971115
0.00985567
0.010002
0.0101502
0.0103003
0.0104522
0.010606
0.0107617
0.0109194
0.011079
0.0112406
0.0114041
0.0115696
0.0117372
0.0119068
0.0120784
0.0122521
0.0124279
0.0126058
0.0127858
0.012968
0.0131523
0.0133387
0.0135274
0.0137183
0.0139114
0.0141068
0.0143044
0.0145043
0.0147065
0.014911
0.0151178
0.015327
0.0155386
0.0157526
0.0159689
0.0161877
0.016409
0.0166327
0.0168588
0.0170875
0.0173187
0.0175524
0.0177887
0.0180276
0.018269
0.0185131
0.0187597
0.019009
0.019261
0.0195156
0.019773
0.020033
0.0202958
0.0205613
0.0208296
0.0211007
0.0213745
0.0216512
0.0219307
0.0222131
0.0224983
0.0227865
0.0230775
0.0233714
0.0236683
0.0239681
0.0242709
0.0245767
0.0248855
0.0251973
0.0255121
0.02583
0.0261509
0.0264749
0.0268021
0.0271323
0.0274657
0.0278022
0.0281418
0.0284846
0.0288307
0.0291799
0.0295323
0.029888
0.0302469
0.0306091
0.0309745
0.0313432
0.0317153
0.0320906
0.0324693
0.0328513
0.0332366
0.0336253
0.0340174
0.0344129
0.0348118
0.0352141
0.0356198
0.0360289
0.0364415
0.0368575
0.037277
0.0377
0.0381265
0.0385564
0.0389899
0.0394269
0.0398674
0.0403114
0.040759
0.0412101
0.0416648
0.042123
0.0425848
0.0430502
0.0435191
0.0439917
0.0444678
0.0449476
0.0454309
0.0459179
0.0464084
0.0469026
0.0474005
0.0479019
0.048407
0.0489157
0.049428
0.049944
0.0504636
0.0509869
0.0515138
0.0520444
0.0525786
0.0531164
0.0536579
0.054203
0.0547518
0.0553042
0.0558603
0.0564199
0.0569833
0.0575502
0.0581208
0.058695
0.0592728
0.0598542
0.0604393
0.0610279
0.0616201
0.062216
0.0628154
0.0634184
0.0640249
0.064635
0.0652487
0.0658659
0.0664866
0.0671109
0.0677386
0.0683699
0.0690047
0.0696429
0.0702846
0.0709297
0.0715783
0.0722303
0.0728857
0.0735445
0.0742067
0.0748722
0.0755411
0.0762133
0.0768888
0.0775676
0.0782497
0.078935
0.0796236
0.0803154
0.0810104
0.0817085
0.0824098
0.0831143
0.0838218
0.0845324
0.0852461
0.0859629
0.0866826
0.0874053
0.088131
0.0888596
0.0895911
0.0903255
0.0910628
0.0918029
0.0925458
0.0932914
0.0940398
0.0947908
0.0955446
0.096301
0.09706
0.0978216
0.0985857
0.0993523
0.100121
0.100893
0.101667
0.102443
0.103222
0.104003
0.104786
0.105572
0.106359
0.107149
0.107941
0.108735
0.109531
0.110329
0.111129
0.11193
0.112734
0.113539
0.114347
0.115156
0.115966
0.116779
0.117592
0.118408
0.119225
0.120043
0.120863
0.121684
0.122506
0.12333
0.124155
0.124981
0.125808
0.126636
0.127466
0.128296
0.129127
0.129959
0.130792
0.131625
0.132459
0.133294
0.13413
0.134966
0.135802
0.136639
0.137476
0.138314
0.139151
0.139989
0.140828
0.141666
0.142504
0.143342
0.14418
0.145018
0.145856
0.146693
0.14753
0.148367
0.149203
0.150039
0.150874
0.151708
0.152542
0.153375
0.154207
0.155039
0.155869
0.156698
0.157527
0.158354
0.15918
0.160004
0.160827
0.161649
0.16247
0.163289
0.164106
0.164921
0.165735
0.166547
0.167358
0.168166
0.168972
0.169776
0.170579
0.171379
0.172176
0.172972
0.173765
0.174555
0.175343
0.176129
0.176912
0.177692
0.178469
0.179243
0.180015
0.180783
0.181549
0.182311
0.183071
0.183827
0.184579
0.185328
0.186074
0.186817
0.187555
0.18829
0.189022
0.189749
0.190473
0.191193
0.191909
0.192621
0.193329
0.194032
0.194732
0.195427
0.196117
0.196804
0.197486
0.198163
0.198836
0.199504
0.200167
0.200825
0.201479
0.202128
0.202772
0.20341
0.204044
0.204672
0.205296
0.205914
0.206526
0.207134
0.207735
0.208332
0.208922
0.209508
0.210087
0.210661
0.211229
0.211791
0.212347
0.212897
0.213442
0.21398
0.214512
0.215038
0.215557
0.216071
0.216578
0.217079
0.217573
0.218061
0.218542
0.219017
0.219486
0.219947
0.220402
0.22085
0.221292
0.221726
0.222154
0.222575
0.222988
0.223395
0.223795
0.224188
0.224573
0.224952
0.225323
0.225687
0.226044
0.226393
0.226735
0.22707
0.227397
0.227717
0.228029
0.228334
0.228632
0.228922
0.229204
0.229478
0.229745
0.230005
0.230256
0.2305
0.230736
0.230965
0.231185
0.231398
0.231603
0.2318
0.231989
0.23217
0.232344
0.232509
0.232666
0.232816
0.232957
0.233091
0.233216
0.233334
0.233443
0.233545
0.233638
0.233724
0.233801
0.23387
0.233931
0.233984
0.234029
0.234066
0.234094
0.234115
0.234128
0.234132
0.234128
0.234117
0.234097
0.234069
0.234033
0.233988
0.233936
0.233876
0.233807
0.233731
0.233647
0.233554
0.233453
0.233345
0.233228
0.233104
0.232971
0.23283
0.232682
0.232526
0.232361
0.232189
0.232009
0.231821
0.231625
0.231421
0.23121
0.230991
0.230764
0.230529
0.230287
0.230037
0.229779
0.229513
0.229241
0.22896
0.228672
0.228376
0.228073
0.227763
0.227445
0.22712
0.226787
0.226447
0.2261
0.225746
0.225384
0.225015
0.224639
0.224256
0.223866
0.223469
0.223065
0.222654
0.222237
0.221812
0.221381
0.220942
0.220498
0.220046
0.219588
0.219123
0.218652
0.218174
0.21769
0.217199
0.216703
0.2162
0.21569
0.215175
0.214653
0.214125
0.213592
0.213052
0.212506
0.211955
0.211397
0.210834
0.210266
0.209691
0.209111
0.208526
0.207935
0.207339
0.206737
0.20613
0.205518
0.2049
0.204278
0.20365
0.203018
0.20238
0.201738
0.20109
0.200438
0.199782
0.19912
0.198454
0.197784
0.197109
0.19643
0.195746
0.195058
0.194366
0.19367
0.19297
0.192266
0.191558
0.190846
0.19013
0.18941
0.188687
0.18796
0.18723
0.186496
0.185759
0.185018
0.184274
0.183527
0.182776
0.182023
0.181267
0.180507
0.179745
0.17898
0.178212
0.177441
0.176668
0.175892
0.175114
0.174334
0.17355
0.172765
0.171978
0.171188
0.170396
0.169602
0.168806
0.168009
0.167209
0.166408
0.165605
0.1648
0.163994
0.163186
0.162377
0.161566
0.160755
0.159941
0.159127
0.158312
0.157495
0.156678
0.155859
0.15504
0.15422
0.153399
0.152578
0.151755
0.150933
0.15011
0.149286
0.148462
0.147638
0.146813
0.145989
0.145164
0.144339
0.143514
0.142689
0.141864
0.14104
0.140216
0.139392
0.138568
0.137745
0.136922
0.1361
0.135278
0.134457
0.133637
0.132817
0.131998
0.13118
0.130363
0.129547
0.128732
0.127918
0.127106
0.126294
0.125484
0.124675
0.123867
0.123061
0.122256
0.121452
0.120651
0.11985
0.119052
0.118255
0.11746
0.116667
0.115875
0.115086
0.114298
0.113512
0.112729
0.111947
0.111168
0.110391
0.109616
0.108843
0.108073
0.107305
0.10654
0.105777
0.105016
0.104258
0.103503
0.10275
0.102
0.101252
0.100507
0.0997656
0.0990265
0.0982904
0.0975571
0.0968268
0.0960995
0.0953753
0.0946541
0.0939361
0.0932212
0.0925095
0.091801
0.0910958
0.0903939
0.0896954
0.0890002
0.0883085
0.0876202
0.0869354
0.0862542
0.0855765
0.0849024
0.084232
0.0835652
0.0829021
0.0822428
0.0815872
0.0809355
0.0802876
0.0796436
0.0790034
0.0783673
0.0777351
0.0771069
0.0764828
0.0758627
0.0752468
0.074635
0.0740274
0.073424
0.0728248
0.0722299
0.0716393
0.0710531
0.0704712
0.0698938
0.0693207
0.0687522
0.0681881
0.0676286
0.0670736
0.0665233
0.0659776
0.0654365
0.0649001
0.0643685
0.0638416
0.0633195
0.0628022
0.0622898
0.0617823
0.0612797
0.060782
0.0602894
0.0598017
0.0593192
0.0588417
0.0583693
0.0579021
0.0574401
0.0569834
0.0565319
0.0560857
0.0556448
0.0552093
0.0547792
0.0543545
0.0539354
0.0535217
0.0531136
0.0527111
0.0523142
0.051923
0.0515376
0.0511578
0.0507839
0.0504158
0.0500535
0.0496972
0.0493468
0.0490025
0.0486641
0.0483319
0.0480058
0.0476859
0.0473722
0.0470647
0.0467636
0.0464689
0.0461805
0.0458986
0.0456233
0.0453545
0.0450923
0.0448368
0.044588
0.0443459
0.0441107
0.0438824
0.043661
0.0434466
0.0432393
0.0430391
0.0428461
0.0426603
0.0424818
0.0423106
0.0421469
0.0419907
0.041842
0.041701
0.0415676
0.041442
0.0413243
0.0412144
0.0411125
0.0410187
0.040933
0.0408555
0.0407863
0.0407254
0.040673
0.0406291
0.0405938
0.0405672
0.0405493
0.0405404
)
;

boundaryField
{
    sides
    {
        type            zeroGradient;
    }
    empty
    {
        type            empty;
    }
}


// ************************************************************************* //
