/*--------------------------------*- C++ -*----------------------------------*\
  =========                 |
  \\      /  F ield         | OpenFOAM: The Open Source CFD Toolbox
   \\    /   O peration     | Website:  https://openfoam.org
    \\  /    A nd           | Version:  7
     \\/     M anipulation  |
\*---------------------------------------------------------------------------*/
FoamFile
{
    version     2.0;
    format      ascii;
    class       volScalarField;
    location    "34";
    object      p;
}
// * * * * * * * * * * * * * * * * * * * * * * * * * * * * * * * * * * * * * //

dimensions      [0 2 -2 0 0 0 0];

internalField   nonuniform List<scalar> 
8800
(
1.11893
1.07114
1.03245
1.00344
0.982568
0.967719
0.957096
0.949582
0.944716
0.942596
0.94378
0.947903
0.954492
0.963764
0.976512
0.994225
1.01899
1.05292
1.09546
1.15416
0.950192
0.957869
0.965332
0.968636
0.967125
0.962034
0.955529
0.949426
0.944661
0.941757
0.941399
0.943823
0.948243
0.954137
0.960867
0.967118
0.970738
0.969991
0.964556
0.955859
0.928615
0.934774
0.938896
0.94183
0.943867
0.944453
0.94332
0.94118
0.93911
0.938125
0.938999
0.941299
0.944033
0.946162
0.946729
0.9455
0.943135
0.939725
0.935159
0.931395
0.922845
0.925494
0.928239
0.930633
0.932254
0.933395
0.934106
0.934182
0.933826
0.933691
0.934344
0.935423
0.936185
0.936189
0.93553
0.9344
0.932555
0.929961
0.927545
0.92604
0.91752
0.918943
0.920717
0.922739
0.924509
0.925828
0.926784
0.927533
0.928077
0.928544
0.929079
0.929466
0.929473
0.92911
0.928351
0.927051
0.925314
0.923435
0.922111
0.92128
0.912515
0.913435
0.914672
0.91623
0.917848
0.91935
0.920601
0.921614
0.922498
0.923277
0.923828
0.924021
0.923865
0.923327
0.922365
0.921097
0.919714
0.918412
0.91757
0.917021
0.907702
0.908371
0.909331
0.910629
0.912025
0.913461
0.914865
0.91613
0.917238
0.91821
0.918863
0.919065
0.918832
0.918194
0.91728
0.916242
0.915153
0.914175
0.913567
0.913165
0.903039
0.903554
0.904338
0.905467
0.906736
0.90809
0.909502
0.910915
0.912243
0.913418
0.91422
0.91448
0.91426
0.913705
0.912959
0.912113
0.911238
0.910482
0.910023
0.909712
0.898461
0.898869
0.899527
0.900538
0.90174
0.903048
0.904453
0.905939
0.907443
0.908851
0.909844
0.910237
0.910158
0.909776
0.90921
0.908536
0.907833
0.907251
0.906899
0.90665
0.893899
0.894228
0.8948
0.895739
0.896897
0.89819
0.89962
0.901182
0.902842
0.904495
0.905744
0.906367
0.906509
0.906329
0.905943
0.905446
0.904894
0.904447
0.904177
0.903973
0.889276
0.889545
0.890057
0.890955
0.892099
0.893417
0.894913
0.89659
0.898429
0.900352
0.901934
0.902878
0.90329
0.903329
0.903129
0.902797
0.902391
0.902061
0.901857
0.901686
0.88453
0.88475
0.885224
0.886115
0.88729
0.888678
0.890287
0.892147
0.894256
0.896537
0.898525
0.899824
0.900523
0.900801
0.9008
0.900621
0.900349
0.900117
0.899967
0.899824
0.879598
0.879777
0.88023
0.881138
0.882381
0.883874
0.885635
0.887723
0.890159
0.892888
0.895378
0.897119
0.898173
0.898737
0.898965
0.898962
0.89882
0.898677
0.898573
0.898451
0.874404
0.874547
0.874992
0.875944
0.877285
0.878923
0.880888
0.883269
0.886123
0.889422
0.892522
0.894787
0.896273
0.897177
0.897671
0.897871
0.897869
0.897815
0.897754
0.897648
0.868879
0.868991
0.869438
0.870448
0.871922
0.873754
0.875998
0.87876
0.882115
0.886085
0.889958
0.892917
0.894932
0.896225
0.897
0.897428
0.897586
0.897632
0.897616
0.897526
0.862937
0.863004
0.863463
0.864556
0.866206
0.868288
0.870881
0.874141
0.878196
0.883067
0.887857
0.891566
0.894195
0.895978
0.897125
0.897794
0.898149
0.898301
0.898327
0.898247
0.856387
0.856455
0.85693
0.858097
0.859922
0.862285
0.865298
0.869137
0.873974
0.879884
0.885842
0.890577
0.893997
0.896392
0.898035
0.899076
0.899679
0.89996
0.900033
0.89996
0.849009
0.84905
0.849564
0.850838
0.852924
0.855687
0.859271
0.863915
0.869829
0.8771
0.884443
0.890317
0.894621
0.897718
0.899938
0.901426
0.902335
0.902777
0.902893
0.90282
0.840486
0.840513
0.841087
0.842512
0.844899
0.84815
0.852435
0.858047
0.865254
0.874171
0.883241
0.890564
0.896009
0.899984
0.902892
0.904903
0.9062
0.906825
0.90698
0.906895
0.830272
0.830299
0.830964
0.832628
0.83545
0.839373
0.844609
0.851524
0.860418
0.871397
0.882542
0.89154
0.898271
0.903257
0.906967
0.909586
0.911298
0.91211
0.912301
0.9122
0.817709
0.817738
0.818554
0.820598
0.824074
0.828953
0.835489
0.844116
0.85516
0.868694
0.882324
0.893308
0.901539
0.907679
0.912277
0.915584
0.917726
0.918723
0.918948
0.918825
0.802018
0.802055
0.803104
0.805725
0.81016
0.816393
0.824709
0.835607
0.849393
0.866056
0.882654
0.895941
0.9059
0.913351
0.918968
0.923006
0.925602
0.926787
0.927045
0.9269
0.782102
0.782155
0.783569
0.787087
0.792966
0.801153
0.811966
0.825905
0.843196
0.863671
0.883722
0.899628
0.911536
0.920461
0.927202
0.93207
0.935157
0.936528
0.93681
0.936638
0.756241
0.756339
0.758385
0.76335
0.771493
0.782552
0.796906
0.814907
0.836606
0.861635
0.88565
0.904491
0.918548
0.929125
0.937115
0.942936
0.946544
0.948083
0.948376
0.948172
0.721414
0.721652
0.72498
0.732594
0.744513
0.760025
0.779407
0.80277
0.829908
0.860245
0.888683
0.910702
0.927079
0.939433
0.94885
0.955689
0.959807
0.96148
0.961758
0.961515
0.671804
0.672923
0.679585
0.692645
0.711105
0.733474
0.759801
0.789956
0.823535
0.859811
0.892996
0.918358
0.937159
0.951406
0.962341
0.970227
0.974825
0.976592
0.976819
0.976526
0.59849
0.606028
0.621387
0.64456
0.672733
0.70426
0.739112
0.777121
0.817886
0.86069
0.899091
0.928208
0.949824
0.966333
0.979085
0.98822
0.993489
0.995513
0.995795
0.99556
0.519954
0.537293
0.562056
0.595781
0.634058
0.67493
0.718428
0.76453
0.81295
0.863096
0.90784
0.941863
0.967307
0.986871
1.00204
1.01303
1.01925
1.02153
1.02193
1.02188
0.455153
0.475337
0.507939
0.550374
0.597443
0.647065
0.698888
0.752884
0.808766
0.865987
0.916741
0.955289
0.984142
1.00629
1.02328
1.03532
1.04234
1.04531
1.04571
1.04573
0.402386
0.424326
0.46214
0.510752
0.564691
0.621561
0.680697
0.741912
0.804783
0.868703
0.925041
0.967631
0.999328
1.02344
1.0418
1.05504
1.06319
1.06611
1.06663
1.06672
0.358778
0.381769
0.423113
0.476498
0.5359
0.5987
0.664084
0.731684
0.800906
0.870988
0.932437
0.978572
1.01267
1.03845
1.05806
1.07221
1.08093
1.08426
1.08497
1.08509
0.321707
0.345326
0.389332
0.446411
0.51025
0.578054
0.64885
0.722102
0.797069
0.872787
0.938864
0.988137
1.02427
1.05139
1.07191
1.08666
1.0958
1.09957
1.10047
1.10061
0.289128
0.313178
0.359236
0.419336
0.486894
0.559001
0.634559
0.712895
0.793104
0.874015
0.944345
0.996432
1.03431
1.0625
1.08367
1.09888
1.10827
1.11238
1.11341
1.11354
0.259523
0.283983
0.331711
0.394366
0.465123
0.540978
0.620788
0.703738
0.78879
0.874567
0.948906
1.00361
1.04307
1.07218
1.09384
1.10937
1.11897
1.12324
1.1243
1.12438
0.231958
0.256796
0.306034
0.370868
0.444415
0.523581
0.607199
0.694368
0.783939
0.874345
0.952565
1.00983
1.0508
1.08077
1.10288
1.11858
1.12825
1.1326
1.13372
1.13378
0.205676
0.230946
0.28158
0.348364
0.424397
0.50651
0.593563
0.684602
0.778406
0.873266
0.955333
1.01519
1.05774
1.08858
1.11115
1.12705
1.13674
1.14107
1.14225
1.14234
0.180398
0.206103
0.257831
0.326534
0.404797
0.489564
0.579723
0.674317
0.772095
0.871271
0.957212
1.0198
1.06404
1.09589
1.11898
1.1351
1.14482
1.14909
1.15021
1.15025
0.15575
0.182051
0.234794
0.305182
0.385449
0.472605
0.565584
0.66344
0.764941
0.868302
0.958193
1.0237
1.06985
1.10285
1.12657
1.14297
1.15274
1.15694
1.15792
1.15789
0.131647
0.158421
0.212314
0.284194
0.366266
0.455572
0.551096
0.651937
0.756912
0.864327
0.95825
1.02691
1.07522
1.10955
1.13403
1.15075
1.16052
1.1646
1.16546
1.16534
0.108011
0.135356
0.190249
0.263513
0.347225
0.438453
0.536259
0.639804
0.748001
0.859306
0.957314
1.02938
1.08014
1.11605
1.1414
1.15845
1.16816
1.17202
1.17272
1.17254
0.0847653
0.112731
0.168578
0.243131
0.328314
0.421266
0.521108
0.627082
0.738222
0.853206
0.955293
1.03101
1.08461
1.12239
1.14874
1.1661
1.17565
1.17919
1.17971
1.17948
0.0619251
0.0905698
0.147353
0.223078
0.309583
0.404052
0.505698
0.613823
0.727612
0.846007
0.952115
1.03171
1.08852
1.12859
1.15614
1.17373
1.1829
1.186
1.18633
1.18605
0.0396636
0.068945
0.126618
0.203399
0.291081
0.386889
0.490099
0.600111
0.716239
0.837744
0.947717
1.03132
1.09174
1.13463
1.16378
1.18153
1.18996
1.19237
1.19246
1.19215
0.0180173
0.0479015
0.106404
0.184154
0.272875
0.369844
0.47441
0.586033
0.704195
0.828459
0.942049
1.02969
1.09406
1.1404
1.17183
1.18993
1.19711
1.19828
1.198
1.19773
-0.00307119
0.0274864
0.0867577
0.165385
0.255031
0.353003
0.458722
0.571699
0.691581
0.818228
0.935078
1.02667
1.0952
1.1456
1.18037
1.19968
1.20535
1.20422
1.20297
1.20293
-0.0234213
0.00772891
0.0677419
0.147164
0.237615
0.336452
0.443134
0.557226
0.678522
0.80716
0.926821
1.02213
1.09486
1.14971
1.18899
1.21139
1.21681
1.2127
1.20876
1.20785
-0.0431213
-0.0113586
0.0493414
0.129467
0.220595
0.320144
0.427586
0.542551
0.664945
0.795181
0.917149
1.01581
1.0927
1.15199
1.19659
1.22461
1.2334
1.22942
1.21912
1.20254
-0.0620937
-0.0297649
0.0314357
0.112101
0.203677
0.303739
0.411655
0.527179
0.650296
0.781631
0.905379
1.00686
1.08805
1.15132
1.20063
1.23554
1.24871
1.23878
1.22094
1.20454
-0.0801602
-0.0476188
0.0142142
0.0953064
0.187164
0.287588
0.39557
0.511444
0.6349
0.766801
0.891664
0.994926
1.08038
1.14667
1.19603
1.23083
1.2474
1.22826
1.1583
1.12565
-0.096662
-0.0660999
-0.00199307
0.079676
0.171778
0.272189
0.37963
0.495574
0.618978
0.750831
0.87599
0.979821
1.06856
1.13795
1.17868
1.20548
1.20602
1.15575
1.0849
1.04081
-0.153039
-0.0823582
-0.0169033
0.0640992
0.156053
0.256128
0.363773
0.479295
0.602176
0.733298
0.857823
0.961154
1.04923
1.12582
1.13064
1.14399
1.1071
1.04196
0.96537
0.9223
-0.114521
-0.0984397
-0.0386864
0.0420394
0.133178
0.232995
0.339649
0.454363
0.576021
0.705327
0.827234
0.928119
1.00764
1.085
1.08086
0.975974
0.873437
0.802079
0.728889
0.763126
-0.146029
-0.116586
-0.0559283
0.0241938
0.115394
0.214883
0.321718
0.435726
0.556213
0.683543
0.802359
0.899141
0.971101
1.01181
0.967632
0.82447
0.697576
0.606865
0.507074
0.560823
-0.170373
-0.137973
-0.076062
0.00435434
0.0956432
0.194991
0.301681
0.414785
0.533783
0.658602
0.773585
0.864771
0.927165
0.936532
0.834204
0.661167
0.506867
0.386498
0.253803
0.288958
-0.194211
-0.160255
-0.0971321
-0.0158575
0.0756201
0.174839
0.280993
0.39308
0.510418
0.632411
0.742791
0.827737
0.875154
0.852944
0.697424
0.498865
0.304769
0.129719
-0.0660625
-0.0783693
-0.217389
-0.183037
-0.119017
-0.0369893
0.0547148
0.153755
0.259267
0.370235
0.485687
0.604525
0.709762
0.787597
0.817963
0.76097
0.56747
0.353158
0.129773
-0.0683271
-0.321537
-0.640025
-0.240863
-0.206527
-0.141988
-0.0594461
0.0324984
0.131418
0.236364
0.346202
0.459692
0.575176
0.675109
0.744748
0.757581
0.649959
0.454801
0.240846
0.0303762
-0.148475
-0.21607
-0.308136
-0.265531
-0.231183
-0.166376
-0.0835719
0.00848174
0.107196
0.21149
0.320038
0.431274
0.542932
0.637153
0.696865
0.684767
0.542609
0.355423
0.161206
-0.00531666
-0.0998446
-0.123735
-0.140897
-0.29172
-0.257328
-0.192349
-0.109447
-0.01746
0.0808905
0.184304
0.291273
0.399861
0.507086
0.595114
0.642492
0.611064
0.4428
0.265479
0.0975165
-0.0322949
-0.0706444
-0.0851473
-0.0869106
-0.31964
-0.285124
-0.219966
-0.137055
-0.0452647
0.0525107
0.154806
0.259874
0.365394
0.467638
0.548729
0.582774
0.534248
0.3494
0.181554
0.0318557
-0.0499585
-0.0656926
-0.0671335
-0.0671258
-0.349328
-0.314571
-0.249239
-0.166374
-0.0749283
0.0220878
0.123013
0.22585
0.327892
0.424688
0.497893
0.521082
0.438113
0.263194
0.103409
-0.0200793
-0.054767
-0.0574277
-0.0577204
-0.0571837
-0.380487
-0.34553
-0.280044
-0.197299
-0.10634
-0.0102961
0.0889869
0.189257
0.287398
0.37833
0.443234
0.450704
0.343908
0.182435
0.0396907
-0.0406508
-0.0497878
-0.0514877
-0.0521211
-0.051839
-0.41254
-0.3775
-0.312109
-0.229588
-0.139284
-0.0444485
0.0529178
0.15027
0.244119
0.328793
0.385724
0.37638
0.2587
0.109789
-0.0125667
-0.0343111
-0.0472634
-0.0490591
-0.0479028
-0.0473513
-0.445037
-0.409998
-0.344933
-0.26283
-0.173385
-0.0800075
0.0151321
0.109221
0.198399
0.276677
0.325129
0.304309
0.178469
0.0428782
-0.0517847
-0.0820785
-0.0598772
-0.0468675
-0.0433899
-0.0424135
-0.477131
-0.442333
-0.377708
-0.296375
-0.208068
-0.116446
-0.0238548
0.0666489
0.150783
0.222674
0.261753
0.235633
0.106627
-0.0136767
-0.0883567
-0.0684554
-0.059698
-0.0525617
-0.04652
-0.0436176
-0.507256
-0.473339
-0.409548
-0.329322
-0.242517
-0.152991
-0.0632958
0.0233246
0.102109
0.167333
0.200881
0.161929
0.0444504
-0.0579745
-0.12912
-0.111135
-0.0844626
-0.0655975
-0.0586069
-0.0557579
-0.534011
-0.501057
-0.439326
-0.360525
-0.275663
-0.188608
-0.10219
-0.0197525
0.0536243
0.11145
0.145194
0.0836473
-0.0125089
-0.0475639
-0.0570087
-0.0951242
-0.107738
-0.110572
-0.110622
-0.10888
-0.5554
-0.524286
-0.464944
-0.388552
-0.306187
-0.222059
-0.139234
-0.0612941
0.00670011
0.0564325
0.0900246
0.00688349
-0.0900693
-0.0452256
-0.0379149
-0.153452
-0.240652
-0.274104
-0.271349
-0.264333
-0.569444
-0.540966
-0.484851
-0.411603
-0.332456
-0.251835
-0.172928
-0.0996246
-0.0372209
0.00481661
0.0321278
-0.0800174
-0.256612
-0.413449
-0.42068
-0.437804
-0.483526
-0.489514
-0.47349
-0.467981
-0.573703
-0.549103
-0.497228
-0.427962
-0.352737
-0.276191
-0.201464
-0.132711
-0.0761179
-0.0408856
-0.0277624
-0.186575
-0.414705
-0.68109
-0.649956
-0.560299
-0.558173
-0.542065
-0.539053
-0.539653
-0.566566
-0.546458
-0.500083
-0.436066
-0.365474
-0.293398
-0.22287
-0.158256
-0.106658
-0.0783669
-0.0871669
-0.242957
-0.341069
-0.222719
-0.0697683
-0.294331
-0.517098
-0.556108
-0.562646
-0.562389
-0.546127
-0.530392
-0.491892
-0.434737
-0.369581
-0.302084
-0.235379
-0.173685
-0.124629
-0.101285
-0.121931
-0.259682
-0.465071
-0.645467
-0.884112
-1.27274
-1.22358
-0.943111
-0.764537
-0.755917
-0.513848
-0.503223
-0.472978
-0.424106
-0.364804
-0.30166
-0.23775
-0.177047
-0.126547
-0.100225
-0.126054
-0.31455
-0.806864
-1.57905
-2.14878
-2.44736
-2.35506
-2.01678
-1.67733
-1.4932
-0.474471
-0.468291
-0.446999
-0.406211
-0.352585
-0.292805
-0.229861
-0.1674
-0.110808
-0.0717103
-0.0782127
-0.210655
-0.517805
-0.8768
-1.21347
-1.33857
-1.20304
-0.956388
-0.737104
-0.6039
-0.434752
-0.431312
-0.418756
-0.385524
-0.335979
-0.277772
-0.213723
-0.145529
-0.0775849
-0.00954756
0.0420922
0.111089
0.220171
0.460406
0.76605
1.09361
1.37846
1.57486
1.69011
1.73674
-0.400999
-0.398966
-0.39237
-0.366479
-0.319882
-0.260296
-0.192728
-0.116971
-0.0323346
0.0613416
0.180953
0.333285
0.684521
1.22578
1.82329
2.36932
2.78521
3.03373
3.14177
3.17172
-0.369926
-0.369369
-0.367453
-0.349788
-0.306193
-0.244573
-0.172319
-0.0904352
0.00338046
0.112505
0.236019
0.371225
0.630048
1.15513
1.71481
2.22092
2.5931
2.81125
2.91259
2.94231
-0.342915
-0.342496
-0.342178
-0.331924
-0.293368
-0.230589
-0.154688
-0.0692037
0.0252494
0.133886
0.248581
0.374291
0.538844
0.93838
1.40798
1.80496
2.10832
2.28743
2.36899
2.39173
-0.320796
-0.319407
-0.319044
-0.314157
-0.280103
-0.215946
-0.137442
-0.0515162
0.0407401
0.145337
0.252957
0.363165
0.479361
0.726498
1.07416
1.36978
1.59276
1.7215
1.7783
1.792
-0.309662
-0.309661
-0.311908
-0.307259
-0.268314
-0.197337
-0.115853
-0.031579
0.0561353
0.151716
0.244216
0.329662
0.412706
0.570886
0.80356
1.00561
1.15659
1.24511
1.28511
1.29288
-0.287935
-0.292366
-0.297063
-0.288343
-0.24309
-0.165895
-0.0853516
-0.00672326
0.0718172
0.154007
0.230774
0.295617
0.359492
0.45377
0.608141
0.741599
0.837898
0.893383
0.915965
0.919553
-0.206177
-0.212311
-0.217974
-0.208391
-0.167576
-0.104829
-0.0384848
0.0264584
0.0910576
0.157764
0.218033
0.263918
0.305775
0.365658
0.465567
0.552433
0.612868
0.646105
0.660006
0.661149
-0.0630207
-0.0669236
-0.0708323
-0.0666533
-0.0458994
-0.0129856
0.0260651
0.0687063
0.114599
0.164124
0.207137
0.236494
0.260787
0.298778
0.362484
0.420021
0.458592
0.479429
0.487554
0.487238
0.081696
0.0800038
0.0766725
0.0727641
0.072972
0.0787387
0.0921035
0.112592
0.140166
0.172942
0.202227
0.219838
0.231415
0.255144
0.297383
0.334948
0.35976
0.372339
0.376695
0.375905
0.179864
0.179187
0.175925
0.167745
0.156111
0.147346
0.145175
0.150845
0.16459
0.184858
0.203614
0.213362
0.216466
0.235878
0.266862
0.290395
0.304041
0.31
0.311594
0.310631
0.228302
0.227811
0.22478
0.216419
0.203314
0.190551
0.181981
0.179795
0.185022
0.19707
0.210437
0.217887
0.220441
0.235404
0.257665
0.272082
0.279329
0.281856
0.282093
0.281075
0.245454
0.24501
0.242637
0.236193
0.225576
0.214048
0.204678
0.199763
0.200799
0.208566
0.22042
0.230893
0.239416
0.252293
0.264595
0.271396
0.274576
0.275947
0.276245
0.275332
0.247413
0.247005
0.24529
0.240947
0.233605
0.224994
0.21716
0.212145
0.211605
0.217577
0.23031
0.246356
0.262313
0.274049
0.279549
0.281576
0.283428
0.284372
0.284697
0.283598
0.243705
0.243346
0.24213
0.239341
0.23461
0.228661
0.222773
0.218514
0.217518
0.222567
0.236465
0.258516
0.281994
0.292089
0.290677
0.291141
0.293533
0.297137
0.298162
0.296642
0.238833
0.238522
0.237616
0.235717
0.232676
0.228609
0.22421
0.220494
0.218885
0.222068
0.234717
0.258341
0.285209
0.292504
0.288423
0.290822
0.295651
0.301208
0.30328
0.301591
0.23447
0.234204
0.233485
0.231974
0.229675
0.226768
0.223178
0.219457
0.216366
0.21558
0.221395
0.23779
0.258374
0.260508
0.256707
0.262954
0.275243
0.285311
0.288048
0.285935
0.230905
0.230696
0.230146
0.228891
0.226937
0.224271
0.221095
0.216977
0.211725
0.204873
0.197763
0.194702
0.195521
0.190956
0.196817
0.213464
0.229978
0.240802
0.242474
0.240207
0.227746
0.22761
0.227259
0.226309
0.22461
0.222316
0.218972
0.214646
0.207352
0.194132
0.170391
0.138541
0.10546
0.101776
0.121684
0.145262
0.161636
0.169369
0.170827
0.169998
0.22425
0.224186
0.224054
0.223584
0.222182
0.220581
0.218074
0.214067
0.206584
0.189697
0.153013
0.0900614
0.0319425
0.0306878
0.0618447
0.0870349
0.0974456
0.100895
0.102018
0.101869
0.219631
0.219679
0.219885
0.220047
0.219907
0.219006
0.218173
0.216265
0.210868
0.195159
0.15701
0.0873827
0.0242055
0.028822
0.0492716
0.057585
0.0585407
0.0565227
0.0565431
0.0565334
0.212888
0.213027
0.213433
0.214028
0.215031
0.216633
0.218608
0.220688
0.220681
0.21222
0.187837
0.133766
0.0918431
0.0850698
0.0814659
0.0634597
0.0474641
0.0386621
0.0382104
0.0391468
0.202698
0.203039
0.20408
0.206002
0.208702
0.212762
0.218176
0.225511
0.233381
0.23789
0.234443
0.209846
0.187101
0.164485
0.130292
0.0933233
0.0656393
0.0529513
0.0508122
0.0512576
0.186089
0.186631
0.188379
0.1917
0.196826
0.204245
0.214555
0.227742
0.243545
0.261817
0.273149
0.277461
0.273517
0.229084
0.176899
0.133109
0.104091
0.0878838
0.0836498
0.0847188
0.1601
0.160869
0.163396
0.168364
0.17624
0.187284
0.201948
0.220846
0.244361
0.270701
0.292731
0.300998
0.296692
0.246369
0.198172
0.169947
0.152662
0.140432
0.134948
0.13552
0.122217
0.123076
0.126019
0.132562
0.142756
0.156906
0.175467
0.198315
0.223671
0.249932
0.268949
0.272733
0.257284
0.216383
0.191951
0.180781
0.178849
0.168865
0.163163
0.162474
0.0721266
0.0729454
0.0762388
0.0823296
0.0916813
0.10463
0.121819
0.141998
0.158672
0.17097
0.190291
0.189519
0.16786
0.132262
0.129166
0.13702
0.141552
0.131605
0.126917
0.126409
0.0162773
0.0158937
0.0157116
0.0158405
0.0173363
0.0199743
0.0234022
0.026015
0.02281
0.0232117
0.0362328
0.0527937
0.0529316
0.0466368
0.0377117
0.0337628
0.0192843
0.0272927
0.0303718
0.0316593
0.171655
0.348582
0.555315
0.733154
0.876244
0.990154
1.08504
1.16519
1.201
1.1779
0.493875
0.620916
0.756968
0.874782
0.974502
1.0574
1.1245
1.17199
1.19595
1.20786
0.723996
0.810809
0.903543
0.985768
1.05658
1.11584
1.16289
1.19723
1.22192
1.23972
0.891623
0.952976
1.018
1.07748
1.12926
1.1732
1.20922
1.23787
1.26125
1.27944
1.02165
1.06666
1.11409
1.1594
1.19947
1.23438
1.26421
1.28896
1.30972
1.32749
1.12862
1.16256
1.20172
1.2383
1.2718
1.30176
1.3279
1.34981
1.36792
1.38524
1.22283
1.25216
1.28689
1.31965
1.35015
1.37779
1.40191
1.42191
1.43759
1.45467
1.31249
1.3421
1.37657
1.40901
1.43896
1.46585
1.48897
1.50764
1.52114
1.53818
1.4085
1.44188
1.47884
1.51269
1.54296
1.56935
1.59146
1.60886
1.62082
1.63823
1.52398
1.56181
1.60066
1.63511
1.6646
1.68947
1.70994
1.72591
1.73744
1.75552
1.66924
1.7079
1.74403
1.77479
1.80056
1.82273
1.84184
1.85742
1.86988
1.88789
1.84429
1.87612
1.90234
1.9248
1.94482
1.96359
1.98133
1.99784
2.01321
2.03129
2.03299
2.05026
2.06538
2.08165
2.09758
2.11213
2.12536
2.1393
2.15686
2.17702
2.21489
2.22437
2.23593
2.24676
2.25606
2.26566
2.27647
2.28785
2.29923
2.31459
2.42206
2.42575
2.41082
2.39601
2.38976
2.39545
2.41394
2.44426
2.47645
2.50311
2.72839
2.59353
2.51691
2.47457
2.45716
2.46113
2.48854
2.54495
2.64758
2.87195
1.00953
1.0074
1.00291
0.994278
0.982045
0.969903
0.959655
0.95173
0.946066
0.942749
0.942313
0.944961
0.949992
0.957159
0.966507
0.978016
0.990646
1.00167
1.00777
1.01082
0.933995
0.93984
0.946175
0.95066
0.953118
0.952779
0.950022
0.946181
0.942624
0.940294
0.940057
0.942163
0.945747
0.949976
0.953737
0.955587
0.954627
0.951126
0.945948
0.939322
0.925604
0.927899
0.931298
0.934286
0.936351
0.937831
0.938561
0.938208
0.93713
0.936173
0.936248
0.937574
0.939304
0.94054
0.940665
0.939734
0.938154
0.935793
0.932513
0.929586
0.920136
0.921222
0.92305
0.925421
0.927433
0.928843
0.929837
0.930547
0.93089
0.931028
0.931407
0.932096
0.932592
0.932575
0.932096
0.931195
0.929685
0.927568
0.925458
0.924068
0.914989
0.915652
0.916756
0.918454
0.920224
0.921838
0.923105
0.924076
0.92489
0.925583
0.92618
0.926591
0.926662
0.926393
0.925742
0.924618
0.923136
0.921548
0.920201
0.919414
0.910088
0.910548
0.911332
0.912625
0.914103
0.915604
0.917041
0.91829
0.91935
0.920292
0.921052
0.921448
0.921441
0.921037
0.920229
0.919148
0.917948
0.916756
0.915803
0.915279
0.905356
0.9057
0.90631
0.907376
0.908663
0.910023
0.911433
0.91283
0.914122
0.91527
0.916193
0.916675
0.916659
0.916213
0.915469
0.914572
0.913623
0.912679
0.911961
0.911576
0.900745
0.901011
0.901504
0.902415
0.903583
0.904868
0.906234
0.90767
0.909122
0.910494
0.911619
0.912226
0.91228
0.911941
0.911363
0.910647
0.909869
0.909126
0.908579
0.908284
0.896186
0.896396
0.896806
0.897612
0.898707
0.899945
0.901296
0.902765
0.904325
0.905898
0.907262
0.908074
0.908314
0.908167
0.907775
0.907235
0.90662
0.90604
0.905622
0.905391
0.891603
0.891769
0.892121
0.892858
0.893911
0.895129
0.896504
0.898041
0.899726
0.901512
0.90316
0.904258
0.904758
0.90484
0.904641
0.904276
0.903829
0.903388
0.903074
0.902891
0.886925
0.887056
0.887364
0.888062
0.889109
0.890357
0.891798
0.89345
0.895317
0.89736
0.899353
0.900823
0.901634
0.901967
0.90198
0.901784
0.901483
0.901165
0.900937
0.900793
0.882095
0.882196
0.882474
0.883156
0.884228
0.885547
0.887094
0.888916
0.891037
0.893431
0.895863
0.897765
0.898927
0.899546
0.899792
0.899786
0.899632
0.899428
0.899272
0.89916
0.877043
0.877117
0.877375
0.878064
0.87919
0.880613
0.882304
0.884339
0.886776
0.88961
0.89259
0.89502
0.896617
0.897587
0.89811
0.898321
0.89832
0.89823
0.89814
0.898055
0.871695
0.871744
0.871987
0.872695
0.873903
0.875464
0.877356
0.879672
0.882483
0.88584
0.88949
0.892592
0.894739
0.896139
0.896977
0.89743
0.897611
0.897649
0.897629
0.89757
0.865963
0.86598
0.866219
0.86697
0.868299
0.870054
0.872215
0.874911
0.878254
0.882309
0.886792
0.890692
0.893466
0.89534
0.896549
0.897261
0.897666
0.89784
0.897887
0.897851
0.859757
0.859767
0.859988
0.860776
0.862223
0.864189
0.866663
0.869803
0.873765
0.878666
0.884181
0.889062
0.892638
0.895156
0.896837
0.897914
0.8986
0.898938
0.899061
0.899047
0.852812
0.852785
0.85304
0.853891
0.855498
0.857719
0.860606
0.864332
0.869095
0.875045
0.881827
0.887927
0.892444
0.895687
0.897965
0.899534
0.900556
0.901104
0.901318
0.901322
0.844914
0.844867
0.845136
0.846076
0.847883
0.850462
0.853879
0.858356
0.864152
0.871453
0.879799
0.887332
0.892992
0.897126
0.900103
0.902237
0.903662
0.90447
0.904779
0.904794
0.835607
0.835544
0.83586
0.836939
0.839003
0.842031
0.846124
0.851552
0.85863
0.867576
0.877848
0.887168
0.894211
0.899414
0.903237
0.906039
0.907967
0.909069
0.909476
0.909494
0.82428
0.824199
0.824598
0.825898
0.828368
0.83206
0.837104
0.843838
0.852627
0.863695
0.876312
0.887714
0.896331
0.90276
0.907529
0.911062
0.913539
0.914942
0.915444
0.915462
0.810222
0.810121
0.810652
0.812299
0.815378
0.820016
0.826371
0.834842
0.845825
0.859529
0.875001
0.888881
0.899365
0.907197
0.913065
0.917432
0.920486
0.922195
0.922791
0.922808
0.792511
0.79239
0.793132
0.795309
0.799302
0.805329
0.813539
0.824385
0.83825
0.855258
0.874141
0.890894
0.903501
0.912919
0.920017
0.925291
0.928983
0.931013
0.931699
0.931713
0.769779
0.769648
0.770749
0.773762
0.77916
0.787242
0.798114
0.812215
0.829828
0.850916
0.873832
0.893869
0.90885
0.920062
0.928523
0.934832
0.939232
0.941592
0.942357
0.94236
0.739751
0.739655
0.74141
0.745854
0.753569
0.764851
0.77965
0.798228
0.820675
0.846719
0.87429
0.897985
0.915575
0.928728
0.9387
0.946196
0.951349
0.954018
0.954845
0.954825
0.698262
0.698347
0.701526
0.708912
0.720875
0.737414
0.758021
0.782649
0.811135
0.843002
0.875775
0.90342
0.923773
0.939007
0.950619
0.959417
0.965316
0.968232
0.969083
0.969029
0.637585
0.638838
0.646561
0.660438
0.680164
0.70505
0.733801
0.766148
0.801801
0.840184
0.878516
0.910266
0.933472
0.950854
0.964161
0.974178
0.98077
0.983914
0.984699
0.9846
0.565204
0.5672
0.581795
0.605688
0.63629
0.670963
0.708664
0.749312
0.792718
0.838386
0.883313
0.920353
0.947547
0.968083
0.983822
0.995461
1.00314
1.00676
1.00774
1.00773
0.490853
0.497458
0.518858
0.552792
0.593517
0.637738
0.684354
0.733317
0.784543
0.837603
0.889309
0.931849
0.963184
0.986984
1.00536
1.01909
1.0279
1.0313
1.03223
1.03241
0.430907
0.439427
0.465558
0.506333
0.554772
0.606992
0.661562
0.718272
0.776926
0.83706
0.895214
0.942835
0.977822
1.00429
1.02452
1.0395
1.04889
1.05326
1.05489
1.05517
0.382305
0.391381
0.420957
0.46664
0.520959
0.579559
0.640784
0.704297
0.769704
0.836415
0.90055
0.952779
0.990902
1.01952
1.04131
1.0575
1.06807
1.07312
1.07506
1.07538
0.341783
0.351072
0.382943
0.432354
0.491335
0.555133
0.62199
0.691427
0.762867
0.835569
0.905185
0.961526
1.00237
1.03282
1.05588
1.073
1.08441
1.09008
1.09223
1.09257
0.306746
0.316121
0.349705
0.402104
0.464839
0.532997
0.604722
0.679385
0.756267
0.834439
0.909072
0.969126
1.01232
1.04426
1.06828
1.08611
1.09801
1.10416
1.10647
1.10685
0.275506
0.284923
0.319813
0.374695
0.440573
0.512459
0.588455
0.667801
0.749642
0.832868
0.912172
0.97566
1.02097
1.05419
1.07897
1.09726
1.10949
1.11601
1.11841
1.1188
0.246796
0.256274
0.292283
0.349277
0.41784
0.492977
0.572756
0.656331
0.742732
0.830699
0.914446
0.981213
1.02852
1.06291
1.08835
1.10696
1.11943
1.12608
1.12847
1.12889
0.219792
0.229328
0.266357
0.325193
0.396158
0.474161
0.557311
0.644724
0.735348
0.827797
0.915852
0.985862
1.03517
1.07071
1.09677
1.1157
1.12827
1.13502
1.13741
1.1377
0.193955
0.203613
0.241578
0.301998
0.375159
0.455725
0.541907
0.632814
0.72735
0.824063
0.916351
0.989661
1.04106
1.07785
1.10459
1.12386
1.13657
1.14328
1.14566
1.14591
0.168886
0.178749
0.217526
0.279499
0.354601
0.437476
0.5264
0.620487
0.718656
0.819426
0.915906
0.992647
1.04631
1.08451
1.11205
1.13171
1.14458
1.15127
1.15355
1.15381
0.144392
0.154493
0.194067
0.257521
0.334358
0.419304
0.510702
0.607688
0.709211
0.813844
0.914488
0.994826
1.051
1.09079
1.11928
1.13943
1.15247
1.15912
1.16127
1.16148
0.120419
0.130758
0.171174
0.235938
0.314358
0.401173
0.494787
0.594394
0.699001
0.80728
0.912048
0.996165
1.05511
1.09676
1.12635
1.14706
1.16025
1.16678
1.16877
1.1689
0.0968691
0.107538
0.148695
0.21471
0.294579
0.383071
0.478666
0.580625
0.688042
0.799731
0.908524
0.996573
1.05861
1.10242
1.13332
1.15464
1.16792
1.17427
1.17602
1.17605
0.0737941
0.0847615
0.126698
0.193851
0.275035
0.365025
0.462383
0.566431
0.676371
0.791194
0.903859
0.995949
1.06142
1.10778
1.14024
1.16222
1.17547
1.18146
1.18293
1.18287
0.0511734
0.0624672
0.105211
0.173405
0.255772
0.347085
0.445995
0.551885
0.664053
0.781702
0.898022
0.994196
1.06339
1.11277
1.1472
1.16993
1.18292
1.18831
1.1894
1.18926
0.0292062
0.0407519
0.0842667
0.153422
0.236851
0.329336
0.429579
0.537066
0.651174
0.771326
0.891008
0.991206
1.06436
1.11725
1.15427
1.17805
1.19052
1.19482
1.19535
1.19511
0.00776329
0.0196667
0.063906
0.133938
0.218314
0.311823
0.413233
0.522065
0.637831
0.760164
0.882835
0.986872
1.06411
1.12098
1.16138
1.187
1.19891
1.20136
1.20075
1.20035
-0.0129811
-0.000752811
0.0441707
0.115014
0.200248
0.294638
0.397042
0.507008
0.624145
0.74829
0.873559
0.981122
1.06244
1.12358
1.16821
1.19705
1.20937
1.20946
1.20624
1.20475
-0.0330783
-0.0205431
0.025119
0.0967086
0.182698
0.277852
0.381093
0.491979
0.610232
0.735854
0.863277
0.973899
1.05915
1.12458
1.17397
1.2077
1.22302
1.22265
1.21537
1.20549
-0.0524425
-0.0396587
0.00665309
0.0788702
0.165453
0.261177
0.36504
0.476561
0.59562
0.722322
0.851416
0.96457
1.05366
1.12337
1.17745
1.21742
1.23913
1.24192
1.23239
1.2237
-0.0710167
-0.0580112
-0.0112233
0.061544
0.148526
0.244612
0.348907
0.460739
0.580275
0.707592
0.837815
0.95281
1.04531
1.11921
1.17619
1.22061
1.24536
1.25335
1.21674
1.16324
-0.0885191
-0.0748226
-0.0284006
0.0447961
0.131815
0.228023
0.332648
0.444635
0.564263
0.69174
0.822434
0.938485
1.03312
1.11181
1.16824
1.20604
1.23187
1.22107
1.16406
1.09913
-0.105273
-0.0906854
-0.0446882
0.029257
0.115654
0.211891
0.316043
0.428312
0.547732
0.674942
0.805309
0.921474
1.01603
1.10232
1.15213
1.20441
1.17609
1.13549
1.06591
0.997224
-0.0914383
-0.0733106
-0.0244414
0.053848
0.145232
0.245325
0.354889
0.470151
0.592658
0.723256
0.847192
0.950108
1.03629
1.12803
1.17645
1.09672
1.05222
0.989966
0.917021
0.868584
-0.115965
-0.0996242
-0.0637847
0.00466262
0.0906061
0.186305
0.290602
0.402238
0.52084
0.646742
0.77511
0.889345
0.980566
1.06067
1.13225
1.13349
1.01317
0.929968
0.867368
0.783814
-0.136358
-0.120635
-0.079103
-0.0092297
0.0769966
0.172318
0.275426
0.386133
0.50372
0.628131
0.754647
0.866548
0.95479
1.02225
1.04931
0.979154
0.839552
0.743459
0.667899
0.57855
-0.157185
-0.144566
-0.0985613
-0.0273782
0.0590485
0.154571
0.257625
0.367982
0.484624
0.607457
0.731038
0.83834
0.919331
0.97141
0.949938
0.821974
0.669332
0.550675
0.451724
0.313067
-0.181261
-0.168123
-0.120027
-0.0476865
0.0390921
0.134651
0.237586
0.347326
0.462819