/*--------------------------------*- C++ -*----------------------------------*\
  =========                 |
  \\      /  F ield         | OpenFOAM: The Open Source CFD Toolbox
   \\    /   O peration     | Website:  https://openfoam.org
    \\  /    A nd           | Version:  7
     \\/     M anipulation  |
\*---------------------------------------------------------------------------*/
FoamFile
{
    version     2.0;
    format      ascii;
    class       volScalarField;
    location    "47";
    object      p;
}
// * * * * * * * * * * * * * * * * * * * * * * * * * * * * * * * * * * * * * //

dimensions      [0 2 -2 0 0 0 0];

internalField   nonuniform List<scalar> 
16000
(
8.130905e-06
-0.00013232688
-0.00044385448
-0.00084622161
-0.0012644391
-0.0016531135
-0.0019813733
-0.0022303782
-0.0023894911
-0.0024530074
-0.0024179874
-0.0022829739
-0.0020473965
-0.0017114986
-0.0012766382
-0.00074582464
-0.00012436956
0.00057945991
0.0013538867
0.0021832576
0.0030479457
0.0039245917
0.0047867132
0.0056057194
0.0063522857
0.0069980324
0.0075174033
0.007889604
0.0081004371
0.0081438634
0.0080231241
0.0077513229
0.0073514518
0.0068559421
0.0063056472
0.0057480955
0.0052383468
0.0048326946
0.0045928263
0.0045540683
0.00015256944
7.6344305e-06
-0.0002424605
-0.0005513465
-0.00087354666
-0.0011747507
-0.0014307142
-0.0016252573
-0.0017480193
-0.0017925579
-0.0017549331
-0.0016327817
-0.0014248496
-0.0011309051
-0.00075193914
-0.00029055702
0.00024853227
0.00085801782
0.0015275645
0.0022435374
0.0029889356
0.0037437324
0.0044852229
0.0051890525
0.0058303683
0.0063852714
0.0068324365
0.0071547638
0.0073409184
0.0073866163
0.007295522
0.0070796552
0.0067592453
0.0063620606
0.005922295
0.0054789307
0.0050731262
0.0047483367
0.0045497746
0.0045144018
0.00047119434
0.00025331107
-2.5277424e-06
-0.00028157844
-0.00056182592
-0.00081876594
-0.0010346101
-0.0011973007
-0.0012986313
-0.0013330817
-0.0012969332
-0.0011876535
-0.0010036027
-0.00074402599
-0.00040926998
-1.151313e-06
0.00047659349
0.0010178488
0.0016137227
0.0022522829
0.002918525
0.0035944948
0.0042598323
0.0048925412
0.0054700819
0.0059707213
0.0063750494
0.006667533
0.0068379537
0.0068825789
0.0068049362
0.0066161006
0.0063344334
0.0059847651
0.0055970937
0.005204849
0.0048425984
0.0045445791
0.0043471523
0.004279897
0.00089280542
0.00056154768
0.00026085446
-2.4932199e-05
-0.00029553676
-0.00053468753
-0.0007308197
-0.00087671922
-0.00096731476
-0.00099891108
-0.00096869486
-0.00087437944
-0.00071409299
-0.0004864971
-0.00019108365
0.00017140492
0.00059848954
0.0010854617
0.001624947
0.0022065974
0.0028169822
0.0034396516
0.0040556433
0.0046441704
0.0051836728
0.0056531327
0.0060335764
0.0063096368
0.0064710153
0.0065136611
0.0064405139
0.0062617105
0.0059942179
0.0056609013
0.0052890689
0.0049086319
0.0045502447
0.0042437971
0.0040158355
0.0038802554
0.0013436003
0.00088393381
0.00052077977
0.00021046508
-6.7244199e-05
-0.00030330377
-0.00049203741
-0.00063118281
-0.00071908343
-0.0007541742
-0.00073479269
-0.00065903739
-0.00052482493
-0.00033014464
-7.3463148e-05
0.00024576673
0.00062654142
0.0010657387
0.0015576029
0.0020933491
0.0026609526
0.0032451817
0.0038279571
0.0043890343
0.0049070316
0.0053607525
0.0057307209
0.0060008046
0.0061597628
0.0062025181
0.0061309598
0.0059541388
0.0056878151
0.0053533976
0.0049763371
0.0045842069
0.0042052982
0.0038667592
0.0035840747
0.0033604447
0.0017704465
0.0011773194
0.0007426578
0.00039661065
0.00010004957
-0.00014424091
-0.00033595262
-0.00047753752
-0.00057068578
-0.0006159731
-0.00061291025
-0.00055997197
-0.00045480244
-0.00029460237
-7.6651064e-05
0.00020107589
0.00053923582
0.00093644436
0.0013886527
0.0018886395
0.0024256864
0.0029855198
0.0035505598
0.0041005659
0.0046136509
0.0050676446
0.0054417091
0.0057180725
0.0058837075
0.0059317532
0.0058624633
0.0056834944
0.0054094495
0.0050607128
0.0046616606
0.0042386479
0.0038191252
0.003429616
0.0030770653
0.0027497597
0.0021281384
0.0014031621
0.00089357569
0.00050534594
0.00018207704
-7.8901138e-05
-0.00028210535
-0.00043431628
-0.00054031616
-0.00060264898
-0.00062186507
-0.00059669048
-0.00052436182
-0.00040113705
-0.00022293449
1.3934096e-05
0.00031197302
0.0006717012
0.0010908972
0.0015639562
0.0020814338
0.0026298721
0.0031919302
0.0037469694
0.0042720412
0.0047432943
0.0051377047
0.0054349734
0.0056193971
0.0056814961
0.0056191714
0.0054381843
0.0051518198
0.0047797092
0.0043458689
0.0038765325
0.0033997672
0.0029432685
0.0025070402
0.0020654937
0.0023781115
0.0015267078
0.00094263476
0.00050946036
0.0001548758
-0.00012867828
-0.00035007157
-0.0005199908
-0.00064596806
-0.00073223865
-0.00078015917
-0.00078850029
-0.00075389648
-0.00067147
-0.00053558084
-0.00034067246
-8.218354e-05
0.00024251641
0.00063322447
0.0010861042
0.0015930715
0.0021414875
0.0027141378
0.0032897416
0.0038438801
0.0043504261
0.0047833868
0.0051190046
0.0053378982
0.0054269848
0.0053809295
0.0052028999
0.0049044626
0.0045045278
0.0040272953
0.0034999067
0.0029524646
0.0024155443
0.0018841368
0.0013216158
0.0024865583
0.0015162638
0.00086053364
0.00038207336
-6.2301828e-06
-0.00031645267
-0.00056143284
-0.00075535845
-0.00090814793
-0.0010254102
-0.0011090293
-0.0011575723
-0.0011668424
-0.001130604
-0.0010414334
-0.00089166995
-0.00067444344
-0.00038474191
-2.0467173e-05
0.00041658959
0.00091994553
0.0014779599
0.0020736029
0.0026848705
0.0032856075
0.0038469244
0.0043391247
0.0047340148
0.0050073753
0.0051412963
0.0051260566
0.0049612755
0.0046561515
0.0042286475
0.0037034599
0.0031095218
0.002480352
0.0018510988
0.0012131727
0.00051968454
0.002423007
0.0013427502
0.00061970761
9.7139156e-05
-0.00032589574
-0.00066574281
-0.0009389034
-0.0011627019
-0.0013490965
-0.0015047545
-0.0016318038
-0.0017283513
-0.0017891308
-0.0018063138
-0.0017704453
-0.0016714882
-0.0014999562
-0.0012481087
-0.00091115801
-0.00048843424
1.5595787e-05
0.00059070735
0.0012203
0.0018817686
0.0025471193
0.0031843262
0.0037593066
0.0042384195
0.0045912955
0.0047936904
0.004829972
0.0046948706
0.0043942256
0.003944536
0.0033710487
0.0027051747
0.0019851544
0.001252418
0.00049591803
-0.00034122479
0.0021596812
0.00097953301
0.00019455862
-0.00036999388
-0.00082793851
-0.0011997147
-0.0015052371
-0.0017646479
-0.0019916366
-0.0021936442
-0.0023727819
-0.0025264591
-0.0026481145
-0.0027280963
-0.0027546625
-0.0027150965
-0.0025969324
-0.0023892658
-0.0020841131
-0.0016777726
-0.001172091
-0.00057518616
9.7233382e-05
0.00082235664
0.0015704763
0.002306215
0.0029904945
0.0035831922
0.004046338
0.0043475613
0.0044633611
0.0043817136
0.0041035998
0.0036431204
0.0030258121
0.0022860222
0.0014679207
0.00062095407
-0.00026754505
-0.0012647166
0.0016713845
0.00040249496
-0.0004382649
-0.0010420999
-0.0015346813
-0.0019403909
-0.0022823427
-0.0025832193
-0.0028581806
-0.0031152055
-0.0033561751
-0.0035776035
-0.0037714407
-0.0039260039
-0.0040270159
-0.0040587654
-0.0040053971
-0.0038523252
-0.0035877383
-0.0032041314
-0.0026997933
-0.0020803323
-0.0013592705
-0.0005590251
0.0002893946
0.0011473011
0.0019701631
0.0027103617
0.0033207502
0.003758754
0.0039905818
0.0039949685
0.0037658439
0.0033133497
0.0026625854
0.0018510039
0.00092980975
-4.174175e-05
-0.001077345
-0.0022551871
0.00093571702
-0.00040970048
-0.0012994948
-0.0019395646
-0.0024663014
-0.0029078727
-0.0032903947
-0.0036388486
-0.0039696553
-0.0042911569
-0.0046048537
-0.0049062277
-0.0051855994
-0.0054290871
-0.0056196569
-0.0057382941
-0.0057653249
-0.0056819032
-0.0054716455
-0.0051223584
-0.0046278027
-0.0039896159
-0.0032182868
-0.0023346897
-0.0013702762
-0.00036661628
0.00062614552
0.0015520209
0.0023530503
0.0029741038
0.0033681851
0.0035015948
0.0033581623
0.0029416408
0.0022752526
0.0013992798
0.0003729268
-0.00073284505
-0.001932323
-0.0033159482
-6.6497724e-05
-0.0014752109
-0.0024067945
-0.0030798392
-0.0036401637
-0.0041195412
-0.0045469008
-0.0049493119
-0.0053443012
-0.0057404674
-0.0061388562
-0.0065338573
-0.0069140936
-0.0072633796
-0.0075617509
-0.0077866116
-0.0079140484
-0.0079203507
-0.0077837457
-0.0074863218
-0.007016094
-0.0063691867
-0.0055516553
-0.0045813067
-0.0034887068
-0.0023173718
-0.0011227455
3.0280721e-05
0.0010714082
0.0019304146
0.0025436882
0.0028611169
0.0028523616
0.0025112349
0.0018566217
0.00093064434
-0.00019879828
-0.0014470201
-0.0028285216
-0.004447499
-0.0013506766
-0.0028085518
-0.0037742823
-0.0044768918
-0.0050701651
-0.0055892674
-0.0060657579
-0.0065286179
-0.0069963835
-0.0074778786
-0.0079737047
-0.0084771899
-0.0089752819
-0.009449472
-0.0098767666
-0.01023077
-0.010482951
-0.010604147
-0.010566361
-0.010344844
-0.0099204452
-0.0092821738
-0.0084297172
-0.0073758744
-0.006148458
-0.0047913663
-0.0033643756
-0.0019412296
-0.00060571472
0.00055435381
0.0014549497
0.0020247491
0.0022139936
0.0020016057
0.0013982909
0.00044594458
-0.00077867047
-0.0021750714
-0.0037575587
-0.0056457354
-0.002927913
-0.0044201372
-0.0054120819
-0.0061407021
-0.0067661276
-0.0073266674
-0.0078563378
-0.0083858983
-0.0089348661
-0.0095123433
-0.010118591
-0.010746004
-0.011379982
-0.011999776
-0.012579367
-0.013088436
-0.013493535
-0.01375953
-0.013851406
-0.013736458
-0.013386886
-0.012782767
-0.011915232
-0.010789677
-0.009428694
-0.0078742673
-0.0061887095
-0.0044537222
-0.0027670126
-0.0012360956
3.0678207e-05
0.0009352613
0.0014019413
0.00138811
0.00089064409
-5.240808e-05
-0.0013561667
-0.0029024193
-0.0047047914
-0.0068999453
-0.0048044639
-0.0063158963
-0.0073259647
-0.0080768557
-0.0087332926
-0.0093364502
-0.0099226512
-0.010524357
-0.01116212
-0.011845469
-0.01257453
-0.013341003
-0.014128969
-0.014915642
-0.015672101
-0.016364104
-0.016953114
-0.017397625
-0.017654917
-0.017683294
-0.017444869
-0.016908898
-0.016055608
-0.014880228
-0.013397089
-0.011643182
-0.009680579
-0.00759694
-0.0055032345
-0.003527924
-0.0018072364
-0.00047183715
0.00036886114
0.00064216052
0.00032316984
-0.00055968764
-0.00191564
-0.0036073037
-0.005647162
-0.0081904583
-0.0069813644
-0.0084970334
-0.0095171514
-0.010286305
-0.010971979
-0.011617923
-0.012262659
-0.012940356
-0.013672755
-0.014470073
-0.015332623
-0.016251752
-0.017210573
-0.018184574
-0.019142182
-0.020045379
-0.020850522
-0.021509506
-0.0219714
-0.022184658
-0.022100023
-0.021674151
-0.020873972
-0.019681626
-0.018099704
-0.016156381
-0.013909666
-0.011449853
-0.008899041
-0.0064064827
-0.0041388421
-0.0022650864
-0.00093692893
-0.0002676647
-0.00031462566
-0.0010676793
-0.0024346432
-0.0042585859
-0.0065505992
-0.0094858053
-0.0094542438
-0.010960006
-0.011982341
-0.012765364
-0.013477475
-0.014164723
-0.014867801
-0.01562271
-0.016452671
-0.017368976
-0.018372571
-0.019454914
-0.020598599
-0.021777815
-0.022958702
-0.024099748
-0.025152363
-0.026061822
-0.026768712
-0.027211053
-0.027327213
-0.027059711
-0.026360004
-0.025194274
-0.023549681
-0.021441245
-0.018918114
-0.016068484
-0.013021657
-0.0099455621
-0.007038091
-0.0045111289
-0.0025674276
-0.0013730182
-0.0010313278
-0.0015628359
-0.0028816982
-0.0048129961
-0.0073668255
-0.010739237
-0.012213416
-0.01369679
-0.014714041
-0.015506
-0.016240222
-0.016964831
-0.017722802
-0.018552275
-0.019478415
-0.020514145
-0.021661618
-0.02291298
-0.024250858
-0.02564865
-0.027070676
-0.028472326
-0.029800377
-0.030993666
-0.031984306
-0.032699625
-0.033064995
-0.03300767
-0.032461813
-0.031375333
-0.029716212
-0.027481799
-0.024706938
-0.02147171
-0.017906784
-0.014194225
-0.01056137
-0.0072654902
-0.0045681398
-0.0027010587
-0.0018302579
-0.002023441
-0.0032133005
-0.0052116636
-0.0080294176
-0.01188445
-0.015244304
-0.016695515
-0.017701261
-0.01849649
-0.019246345
-0.020000924
-0.020805819
-0.021701879
-0.02271693
-0.023866282
-0.025154025
-0.026573673
-0.028108512
-0.02973172
-0.03140631
-0.033085045
-0.03471049
-0.036215406
-0.037523689
-0.038552062
-0.039212724
-0.039417067
-0.039080697
-0.038131846
-0.036515732
-0.034207873
-0.03122319
-0.027626778
-0.023543107
-0.019161239
-0.014732916
-0.010559957
-0.0069680339
-0.004267036
-0.0027041303
-0.0024153943
-0.0033699061
-0.00537575
-0.0084489649
-0.012830369
-0.018528262
-0.019941521
-0.02093065
-0.021722484
-0.022478559
-0.023251071
-0.024088916
-0.025036614
-0.026125714
-0.027374926
-0.028791189
-0.03037016
-0.032096446
-0.033943577
-0.035873773
-0.037837646
-0.039774011
-0.041610013
-0.04326178
-0.044635826
-0.045631438
-0.046144366
-0.046071991
-0.045318553
-0.043807476
-0.041488227
-0.03835041
-0.034437041
-0.029857691
-0.024798931
-0.019528333
-0.014387109
-0.0097662748
-0.0060638452
-0.0036272613
-0.0026862171
-0.0032706204
-0.005200987
-0.0085071672
-0.013454873
-0.022043855
-0.023418949
-0.024388145
-0.025168539
-0.025917469
-0.026689762
-0.027538851
-0.028514458
-0.029653378
-0.030979075
-0.032502436
-0.034222121
-0.036124712
-0.038184599
-0.040363634
-0.042610672
-0.044861185
-0.04703716
-0.04904749
-0.050789083
-0.052148946
-0.053007541
-0.0532436
-0.052740261
-0.051395145
-0.049129961
-0.045905033
-0.041734886
-0.036705275
-0.03098926
-0.024858454
-0.018683521
-0.012916462
-0.0080486499
-0.004545081
-0.0027569387
-0.0028063092
-0.0045509106
-0.0080497009
-0.01359733
-0.025768669
-0.027112954
-0.028061224
-0.028820139
-0.029543243
-0.030289214
-0.031118095
-0.032087142
-0.033240541
-0.034608261
-0.036206446
-0.038037666
-0.040091058
-0.042342233
-0.044752909
-0.047270386
-0.049827032
-0.052340018
-0.054711486
-0.056829399
-0.058569315
-0.059797363
-0.060374646
-0.060163333
-0.059036149
-0.056885859
-0.05364096
-0.049282565
-0.043864634
-0.037535436
-0.030556704
-0.023314174
-0.016310057
-0.010127374
-0.0053610759
-0.0025116866
-0.0018308959
-0.0032485736
-0.0068776558
-0.013049811
-0.029681807
-0.031012748
-0.031941911
-0.032666279
-0.03333762
-0.034020847
-0.034785935
-0.035701119
-0.036820905
-0.038183974
-0.039813219
-0.041715996
-0.043884411
-0.046295399
-0.04891048
-0.051675288
-0.054519042
-0.057354184
-0.060076402
-0.062565257
-0.064685683
-0.066290585
-0.067224819
-0.067330866
-0.066457593
-0.064469682
-0.061263044
-0.056782562
-0.051044475
-0.044162264
-0.036373459
-0.028061437
-0.019761689
-0.012138761
-0.005921914
-0.0017850795
-0.00015067715
-0.0010665008
-0.0047372732
-0.011546802
-0.033767307
-0.035115774
-0.036030739
-0.036702647
-0.037286188
-0.037856781
-0.038499501
-0.039298472
-0.04032239
-0.041621307
-0.043226442
-0.04515065
-0.047389107
-0.049919782
-0.05270351
-0.055683724
-0.058786038
-0.06191789
-0.064968486
-0.067809257
-0.070295145
-0.072266847
-0.073554445
-0.073982697
-0.073377387
-0.071577946
-0.068448547
-0.063897365
-0.057899789
-0.050527255
-0.041980434
-0.032622146
-0.022999728
-0.013840639
-0.0060022838
-0.00034798227
0.0024883757
0.0022854026
-0.0013075561
-0.0087530212
-0.038019025
-0.039433597
-0.040342079
-0.04093556
-0.041380834
-0.041771169
-0.04221449
-0.042817575
-0.043668175
-0.044830701
-0.046346145
-0.048233186
-0.050489645
-0.053093671
-0.056004367
-0.0591619
-0.062487332
-0.065882367
-0.069229283
-0.072391262
-0.075213534
-0.077525298
-0.079142924
-0.079874683
-0.0795271
-0.077915053
-0.074873735
-0.070276389
-0.064057429
-0.056242636
-0.046986716
-0.03661569
-0.025665693
-0.014901738
-0.005291837
0.0021072596
0.0064151398
0.0071743839
0.0038150079
-0.0042485742
-0.042447954
-0.044000524
-0.044911449
-0.045386814
-0.045622298
-0.045741142
-0.045885387
-0.04619335
-0.04677755
-0.047719721
-0.049071563
-0.05085715
-0.05307572
-0.055703972
-0.05869754
-0.061991643
-0.065501307
-0.06912127
-0.072726002
-0.076169853
-0.079288191
-0.081898961
-0.083805541
-0.084800998
-0.084674084
-0.0832179
-0.080241481
-0.075586138
-0.069147623
-0.060906169
-0.050966037
-0.039604566
-0.027325517
-0.014902761
-0.0033874735
0.0059801782
0.012049279
0.014062446
0.011135999
0.0024902765
-0.047094021
-0.048886729
-0.049805857
-0.050099783
-0.0500227
-0.049747166
-0.049465013
-0.049357063
-0.049566611
-0.050194944
-0.05130424
-0.052922297
-0.055047371
-0.057652087
-0.060686067
-0.064077239
-0.067732554
-0.071538067
-0.075359452
-0.07904071
-0.082407049
-0.085264859
-0.087404627
-0.088604825
-0.088637609
-0.087275983
-0.084305517
-0.079538916
-0.072836873
-0.064136932
-0.053492868
-0.041127047
-0.027494564
-0.013350352
0.00020495077
0.011771161
0.019917665
0.023527999
0.021289436
0.01211839
-0.052046223
-0.054219053
-0.055138783
-0.055147145
-0.054607897
-0.053772561
-0.052903304
-0.052235717
-0.051948917
-0.052164049
-0.052951422
-0.054338977
-0.056320023
-0.058859261
-0.061897079
-0.065350803
-0.069116966
-0.07307072
-0.077068834
-0.080941102
-0.084503144
-0.087548909
-0.089855474
-0.091186559
-0.091298723
-0.089944558
-0.086888154
-0.081916282
-0.074857925
-0.065611751
-0.054183825
-0.040740207
-0.025677183
-0.0097073881
0.0060543966
0.020081371
0.030669199
0.036292853
0.035075423
0.025464789
-0.057478896
-0.060214898
-0.06109213
-0.060640527
-0.059419261
-0.057801819
-0.056145195
-0.054751095
-0.053836263
-0.053538224
-0.05392969
-0.055032502
-0.056829113
-0.059271002
-0.06228603
-0.06577586
-0.069625031
-0.073695832
-0.077830486
-0.081849622
-0.085554336
-0.088725614
-0.091126632
-0.092505835
-0.092601801
-0.091149379
-0.087890189
-0.082585468
-0.075034335
-0.065099247
-0.05274134
-0.03807129
-0.021421017
-0.0034429336
0.014767649
0.031596489
0.045083724
0.053255609
0.053515979
0.04360675
-0.063719727
-0.067238476
-0.067948092
-0.066741748
-0.064513733
-0.061816796
-0.05912705
-0.05681814
-0.055139238
-0.054234449
-0.054168284
-0.054946881
-0.056533864
-0.058861348
-0.061837235
-0.065347744
-0.06926009
-0.073421775
-0.077660606
-0.081784094
-0.085579342
-0.088813345
-0.091234407
-0.092574734
-0.092554682
-0.090889017
-0.087296027
-0.081510388
-0.0733002
-0.062490907
-0.048998453
-0.032876646
-0.014387223
0.0058940466
0.02692363
0.047044043
0.064066766
0.075530458
0.077938664
0.068004555
-0.071381901
-0.075894601
-0.076133475
-0.073673332
-0.069959224
-0.065788388
-0.061769804
-0.058341065
-0.055766043
-0.054176121
-0.053610587
-0.054046488
-0.055417699
-0.057629796
-0.060566306
-0.064092588
-0.068056979
-0.072290362
-0.076605266
-0.080794732
-0.084631622
-0.087868408
-0.090237955
-0.091455531
-0.091222454
-0.089231692
-0.085176009
-0.078760626
-0.069718389
-0.057832331
-0.042966252
-0.025108809
-0.0044398338
0.018569434
0.042964143
0.067104327
0.088610092
0.10448259
0.11010415
0.10076003
-0.081632518
-0.087182739
-0.086271264
-0.08171731
-0.075815622
-0.069655775
-0.063962185
-0.059201474
-0.055614548
-0.053287718
-0.052210378
-0.052311876
-0.053485161
-0.055600442
-0.058512043
-0.062061031
-0.066075286
-0.070368122
-0.074736433
-0.078958804
-0.082794063
-0.085980418
-0.088235529
-0.089257789
-0.088729187
-0.086319866
-0.081694677
-0.074525667
-0.0645038
-0.051359639
-0.034890331
-0.014998476
0.0082480255
0.034514709
0.063012852
0.092225367
0.11965936
0.14172195
0.15240389
0.14512411
-0.096760869
-0.10273918
-0.099198955
-0.091156269
-0.082063523
-0.073262474
-0.065508826
-0.059218007
-0.054541193
-0.051470403
-0.049911202
-0.049724005
-0.050746846
-0.052807018
-0.055725522
-0.059317312
-0.063389382
-0.067737844
-0.072144826
-0.076375613
-0.080176329
-0.083272332
-0.085367502
-0.086144668
-0.085267578
-0.08238377
-0.077129245
-0.069139526
-0.058056591
-0.043545698
-0.02531614
-0.0031516616
0.023040659
0.053141089
0.086633154
0.1222828
0.15778065
0.18895146
0.20809768
0.20632751
-0.12134042
-0.12518806
-0.11587383
-0.10208194
-0.08841805
-0.076199021
-0.066006481
-0.058052952
-0.052292044
-0.048550976
-0.046609136
-0.046233775
-0.04719556
-0.049273486
-0.05225381
-0.055926113
-0.060078341
-0.064491754
-0.068936304
-0.073166661
-0.076919029
-0.079908776
-0.081828939
-0.082349738
-0.081119672
-0.077765374
-0.071896784
-0.063111231
-0.050997045
-0.035142631
-0.015146215
0.0093687645
0.038725211
0.073129486
0.11251959
0.1562624
0.20263068
0.24752295
0.28130075
0.29235635
-0.16445786
-0.15843359
-0.13714909
-0.11415817
-0.094108019
-0.077631915
-0.06473859
-0.055162507
-0.048490635
-0.044292303
-0.042173624
-0.041788211
-0.042833266
-0.045040523
-0.048165628
-0.05197796
-0.056251693
-0.060758246
-0.065260065
-0.069505612
-0.073225446
-0.076129239
-0.077903675
-0.078211427
-0.076691414
-0.072948674
-0.06657858
-0.057141484
-0.044173185
-0.027181169
-0.0056368285
0.021034531
0.053463874
0.092331381
0.13829603
0.19182668
0.25266779
0.3175112
0.37626835
0.41537052
-0.24629472
-0.20631877
-0.16213107
-0.12552971
-0.097144472
-0.075878987
-0.060488369
-0.049753163
-0.042661074
-0.038437042
-0.036491184
-0.036366237
-0.037698213
-0.040186029
-0.043568136
-0.047605123
-0.05206682
-0.056722615
-0.061334063
-0.065649214
-0.069398243
-0.072290178
-0.074010547
-0.074220767
-0.072559435
-0.068606456
-0.061962555
-0.052156731
-0.038683735
-0.020981921
0.0015954589
0.029825046
0.06468624
0.10746478
0.15987103
0.22417781
0.30290547
0.3955322
0.49624343
0.60321232
-0.42543949
-0.26573087
-0.17722209
-0.1246367
-0.089117328
-0.065103457
-0.049324665
-0.039186142
-0.032984536
-0.02967493
-0.028571576
-0.029187628
-0.031157706
-0.034190787
-0.038038507
-0.04247423
-0.047279073
-0.052232102
-0.057103159
-0.061647462
-0.065601503
-0.068679879
-0.070572558
-0.07094144
-0.069408727
-0.065630601
-0.05913315
-0.049453598
-0.036075511
-0.018403929
0.0042711714
0.032847144
0.068542626
0.11314209
0.16943669
0.24201725
0.33806615
0.4659159
0.64305472
0.92086229
-0.79331345
-0.32444267
-0.14899792
-0.087725883
-0.055346283
-0.035999978
-0.02509201
-0.01920146
-0.016355991
-0.01561957
-0.016494809
-0.018654628
-0.021853752
-0.025889123
-0.030576143
-0.035734542
-0.041179762
-0.046717012
-0.052136721
-0.057210907
-0.061690229
-0.065301624
-0.067746626
-0.068701657
-0.067825252
-0.06470869
-0.058942503
-0.050073152
-0.037594077
-0.020927826
0.0006100462
0.027880763
0.062058479
0.1049131
0.15945107
0.23152774
0.3338512
0.49409196
0.79001612
1.3837781
1.1442576e-05
-0.00013141991
-0.00044361195
-0.00084617132
-0.0012645766
-0.001653379
-0.0019817229
-0.0022307875
-0.0023899427
-0.002453487
-0.0024184826
-0.0022834734
-0.0020478899
-0.0017119758
-0.0012770887
-0.00074623704
-0.00012473185
0.00057915991
0.0013536605
0.002183115
0.0030478945
0.0039246381
0.0047868614
0.0056059702
0.0063526334
0.0069984643
0.0075179011
0.0078901475
0.0081010061
0.0081444356
0.0080236706
0.0077518094
0.0073518459
0.0068562232
0.0063058118
0.0057481616
0.0052382962
0.0048324888
0.0045924506
0.0045539171
0.00015337997
8.1118616e-06
-0.00024204186
-0.00055089996
-0.00087305885
-0.0011742094
-0.0014301231
-0.0016246301
-0.0017473719
-0.0017919059
-0.0017542909
-0.0016321628
-0.0014242668
-0.0011303709
-0.00075146632
-0.00029015849
0.000248844
0.00085823141
0.0015276709
0.0022435297
0.0029888086
0.0037434814
0.0044848485
0.0051885617
0.0058297746
0.0063845924
0.0068316908
0.00715397
0.0073400988
0.0073858009
0.0072947463
0.0070789502
0.006758628
0.006361537
0.0059218728
0.0054786301
0.0050729777
0.0047482612
0.004549652
0.0045144899
0.00047164832
0.00025355265
-2.2396622e-06
-0.00028133775
-0.00056165233
-0.00081862914
-0.0010344971
-0.0011972071
-0.0012985538
-0.0013330186
-0.001296884
-0.0011876184
-0.0010035817
-0.00074401901
-0.00040927677
-1.1717574e-06
0.00047655923
0.0010178007
0.0016136617
0.0022522115
0.002918446
0.0035944102
0.0042597425
0.0048924463
0.0054699836
0.0059706241
0.0063749578
0.0066674474
0.0068378686
0.0068824879
0.0068048398
0.0066160068
0.0063343472
0.0059846783
0.0055969893
0.0052047224
0.0048424726
0.0045444527
0.0043469809
0.0042798656
0.00089327132
0.00056158567
0.00026108072
-2.4727185e-05
-0.00029542109
-0.00053461741
-0.00073077989
-0.00087670658
-0.00096732414
-0.00099893789
-0.00096873616
-0.00087443323
-0.00071415764
-0.00048657087
-0.00019116433
0.00017132
0.00059840302
0.0010853756
0.0016248631
0.0022065181
0.0028169105
0.0034395925
0.0040555999
0.0046441425
0.0051836577
0.0056531284
0.006033584
0.0063096586
0.0064710484
0.0065136941
0.0064405325
0.0062617086
0.0059942009
0.0056608748
0.0052890252
0.0049085529
0.0045501212
0.004243646
0.0040156799
0.0038801181
0.0013441247
0.00088376752
0.00052097753
0.00021070112
-6.7089574e-05
-0.00030317349
-0.00049191837
-0.0006310797
-0.00071899601
-0.00075410096
-0.00073473302
-0.00065899128
-0.00052479279
-0.00033012716
-7.346086e-05
0.00024575406
0.0006265149
0.0010656995
0.0015575514
0.0020932851
0.0026608765
0.0032450963
0.0038278671
0.0043889438
0.0049069413
0.0053606596
0.0057306235
0.0060007065
0.006159671
0.0062024352
0.0061308778
0.0059540449
0.0056877056
0.0053532838
0.0049762328
0.0045841042
0.0042051646
0.003866624
0.0035840485
0.0033602228
0.0017710643
0.0011769678
0.00074282389
0.00039685147
0.00010019679
-0.00014411256
-0.00033582775
-0.00047742463
-0.00057058655
-0.00061588708
-0.00061283753
-0.00055991277
-0.000454757
-0.00029457132
-7.6635491e-05
0.00020107501
0.00053921855
0.00093641199
0.0013886069
0.0018885809
0.0024256147
0.0029854347
0.0035504639
0.0041004645
0.0046135496
0.0050675444
0.0054416061
0.005717963
0.0058835946
0.0059316458
0.0058623661
0.0056833996
0.0054093425
0.0050605903
0.0046615384
0.0042385318
0.0038189792
0.0034294884
0.0030771254
0.0027494437
0.0021288594
0.0014026456
0.00089371687
0.00050558971
0.00018220987
-7.8786467e-05
-0.00028198991
-0.00043421088
-0.00054022305
-0.000602568
-0.00062179685
-0.00059663561
-0.00052432044
-0.00040110911
-0.0002229204
1.3933322e-05
0.00031195634
0.00067166872
0.0010908507
0.0015638983
0.002081366
0.0026297939
0.0031918408
0.0037468708
0.0042719393
0.0047431956
0.0051376109
0.0054348789
0.0056192956
0.005681389
0.0056190682
0.0054380908
0.0051517275
0.0047796043
0.0043457535
0.00387641
0.0033996007
0.0029431425
0.002507199
0.0020651033
0.0023789361
0.001526044
0.00094275954
0.0005097137
0.00015500251
-0.00012856823
-0.00034995635
-0.00051988358
-0.00064587152
-0.00073215258
-0.00078008456
-0.00078843844
-0.00075384831
-0.0006714358
-0.00053556046
-0.00034066611
-8.2192294e-05
0.00024249119
0.00063318257
0.0010860476
0.0015930039
0.0021414109
0.0027140522
0.0032896455
0.0038437745
0.004350317
0.0047832821
0.0051189069
0.0053378014
0.0054268805
0.005380818
0.0052027907
0.0049043614
0.0045044278
0.0040271907
0.0034997853
0.0029522769
0.0024154168
0.001884398
0.0013211364
0.002487484
0.0015154683
0.00086064773
0.00038233911
-6.106215e-06
-0.00031634387
-0.00056131466
-0.00075524656
-0.00090804562
-0.0010253171
-0.0011089463
-0.0011575007
-0.0011667839
-0.0011305598
-0.0010414042
-0.00089165537
-0.00067444344
-0.0003847575
-2.0500116e-05
0.00041653872
0.00091987911
0.0014778816
0.0020735167
0.0026847766
0.0032855038
0.0038468107
0.004339007
0.004733902
0.0050072711
0.0051411945
0.0051259478
0.0049611592
0.004656036
0.0042285394
0.0037033605
0.0031094069
0.002480148
0.0018509683
0.0012135357
0.00051911098
0.0024240286
0.0013418374
0.00061981558
9.7419107e-05
-0.00032577247
-0.00066563399
-0.00093878138
-0.0011625845
-0.0013489878
-0.0015046544
-0.0016317129
-0.0017282707
-0.0017890618
-0.0018062583
-0.0017704052
-0.0016714641
-0.0014999478
-0.0012481156
-0.00091118094
-0.0004884749
1.5537047e-05
0.00059063056
0.0012202108
0.0018816724
0.0025470171
0.0031842154
0.0037591862
0.0042382947
0.004591176
0.0047935806
0.0048298657
0.0046947582
0.0043941057
0.0039444181
0.0033709467
0.0027050636
0.0019849364
0.001252287
0.00049638971
-0.00034189902
0.0021607922
0.00097851641
0.00019466416
-0.00036969803
-0.00082781353
-0.0011996041
-0.0015051101
-0.0017645238
-0.00199152
-0.0021935353
-0.0023726819
-0.002526369
-0.002648035
-0.0027280286
-0.002754609
-0.0027150595
-0.002596913
-0.0023892635
-0.002084127
-0.0016778023
-0.0011721368
-0.00057525434
9.7146023e-05
0.00082225638
0.0015703696
0.002306104
0.0029903767
0.0035830656
0.0040462077
0.0043474368
0.0044632468
0.0043816031
0.0041034834
0.003643
0.0030257064
0.0022859096
0.0014676848
0.00062082415
-0.00026695167
-0.0012655029
0.0016725769
0.00040138826
-0.00043815919
-0.0010417872
-0.0015345519
-0.0019402764
-0.0022822096
-0.0025830878
-0.0028580552
-0.0031150865
-0.0033560641
-0.0035775021
-0.0037713498
-0.0039259241
-0.0040269485
-0.0040587129
-0.0040053624
-0.0038523099
-0.0035877417
-0.0032041524
-0.0026998328
-0.0020803893
-0.0013593482
-0.00055912272
0.00028928324
0.0011471837
0.0019700428
0.0027102366
0.0033206181
0.0037586197
0.0039904545
0.0039948512
0.003765729
0.0033132327
0.0026624817
0.0018508892
0.00092954994
-4.1872539e-05
-0.0010766134
-0.0022561008
0.00093698205
-0.00041088271
-0.001299387
-0.0019392353
-0.0024661656
-0.002907752
-0.0032902538
-0.0036387086
-0.0039695206
-0.004291027
-0.0046047305
-0.0049061131
-0.0051854953
-0.0054289942
-0.0056195758
-0.0057382261
-0.0057652728
-0.0056818703
-0.0054716338
-0.0051223679
-0.0046278329
-0.0039896621
-0.003218352
-0.0023347767
-0.0013703841
-0.00036673854
0.0006260174
0.0015518914
0.0023529181
0.0029739676
0.0033680496
0.0035014672
0.0033580425
0.002941526
0.0022751556
0.0013991668
0.00037263912
-0.00073297946
-0.0019314338
-0.0033170093
-6.5170879e-05
-0.0014764529
-0.0024066828
-0.0030794943
-0.0036400205
-0.0041194128
-0.0045467504
-0.004949162
-0.0053441563
-0.0057403267
-0.0061387205
-0.0065337287
-0.0069139743
-0.0072632716
-0.0075616554
-0.007786529
-0.0079139799
-0.0079202989
-0.0077837145
-0.007486314
-0.0070161098
-0.0063692225
-0.0055517099
-0.0045813814
-0.0034888039
-0.0023174902
-0.0011228784
3.0142549e-05
0.0010712703
0.0019302769
0.0025435508
0.0028609835
0.0028522349
0.0025111182
0.0018565317
0.0009305365
-0.0001991159
-0.0014471593
-0.0028274509
-0.0044487327
-0.0013493005
-0.0028098372
-0.0037741648
-0.0044765324
-0.005070014
-0.0055891306
-0.0060655973
-0.006528457
-0.0069962272
-0.0074777263
-0.0079735569
-0.0084770478
-0.0089751474
-0.0094493476
-0.0098766547
-0.010230672
-0.010482867
-0.010604078
-0.01056631
-0.010344815
-0.009920442
-0.0092821957
-0.0084297618
-0.0073759394
-0.0061485439
-0.0047914749
-0.0033645052
-0.0019413729
-0.0006058616
0.00055420981
0.0014548104
0.0020246146
0.0022138638
0.0020014868
0.0013982067
0.00044584243
-0.00077902146
-0.0021752152
-0.003756277
-0.0056471715
-0.0029265015
-0.0044214497
-0.0054119572
-0.0061403294
-0.0067659678
-0.0073265217
-0.0078561668
-0.0083857259
-0.0089346974
-0.0095121782