/*--------------------------------*- C++ -*----------------------------------*\
  =========                 |
  \\      /  F ield         | OpenFOAM: The Open Source CFD Toolbox
   \\    /   O peration     | Website:  https://openfoam.org
    \\  /    A nd           | Version:  7
     \\/     M anipulation  |
\*---------------------------------------------------------------------------*/
FoamFile
{
    version     2.0;
    format      ascii;
    class       surfaceScalarField;
    location    "47";
    object      phi;
}
// * * * * * * * * * * * * * * * * * * * * * * * * * * * * * * * * * * * * * //

dimensions      [0 3 -1 0 0 0 0];

internalField   nonuniform List<scalar> 
45600
(
2.7523605e-07
-2.8217338e-07
-7.7853587e-11
4.0336858e-07
-1.2810734e-07
-2.4486374e-11
1.3258192e-07
2.7079388e-07
-6.5478777e-12
-5.6229448e-07
6.9487875e-07
-1.3578839e-12
-1.6393004e-06
1.0770032e-06
3.7121704e-12
-3.0276141e-06
1.3883059e-06
7.1666722e-12
-4.6524598e-06
1.6248342e-06
9.439313e-12
-6.4450951e-06
1.7926225e-06
1.104795e-11
-8.3454234e-06
1.9003162e-06
1.2191922e-11
-1.0301444e-05
1.956008e-06
1.2948865e-11
-1.2267404e-05
1.9659464e-06
1.3367468e-11
-1.4201584e-05
1.9341654e-06
1.348433e-11
-1.6064242e-05
1.8626438e-06
1.3321766e-11
-1.7816031e-05
1.7517764e-06
1.2884555e-11
-1.9417058e-05
1.6010174e-06
1.2161983e-11
-2.0826661e-05
1.4095964e-06
1.1133991e-11
-2.2003909e-05
1.1772411e-06
9.7810919e-12
-2.290877e-05
9.0485283e-07
8.0994038e-12
-2.3503869e-05
5.9509084e-07
6.1076513e-12
-2.3756703e-05
2.5282975e-07
3.8502245e-12
-2.3642142e-05
-1.1455712e-07
1.3824364e-12
-2.314501e-05
-4.9712282e-07
-1.2508578e-12
-2.2262574e-05
-8.8242705e-07
-4.0012879e-12
-2.1006619e-05
-1.2559554e-06
-6.7702343e-12
-1.9404869e-05
-1.6017535e-06
-9.3871372e-12
-1.7501567e-05
-1.9032973e-06
-1.1659943e-11
-1.535698e-05
-2.144561e-06
-1.3439767e-11
-1.3045757e-05
-2.3111845e-06
-1.4673633e-11
-1.065409e-05
-2.3916392e-06
-1.536211e-11
-8.275805e-06
-2.3782881e-06
-1.5445727e-11
-6.0075704e-06
-2.2682544e-06
-1.4755406e-11
-3.9435493e-06
-2.0640167e-06
-1.313422e-11
-2.1697959e-06
-1.7737018e-06
-1.0640827e-11
-7.5852306e-07
-1.4112097e-06
-7.5872028e-12
2.3824488e-07
-9.9676103e-07
-4.4421692e-12
7.9656115e-07
-5.5838064e-07
-1.782301e-12
9.2924315e-07
-1.3274779e-07
1.3660206e-12
7.0551871e-07
2.2375881e-07
5.5576106e-12
2.9042327e-07
4.1521647e-07
1.0143926e-11
2.9050729e-07
3.8184023e-12
1.3292345e-07
-4.1507384e-07
-2.188277e-11
-3.0164606e-07
3.0647761e-07
-1.3846682e-11
-1.6153705e-06
1.5845309e-06
-1.2141502e-11
-3.8746844e-06
2.9542052e-06
-1.2950721e-11
-7.0073245e-06
4.209658e-06
-1.4147489e-11
-1.0879738e-05
5.2607363e-06
-1.5700758e-11
-1.5335155e-05
6.080268e-06
-1.7144968e-11
-2.0215996e-05
6.6734797e-06
-1.819018e-11
-2.5374059e-05
7.0583936e-06
-1.8776254e-11
-3.0673274e-05
7.2552408e-06
-1.8910883e-11
-3.5988542e-05
7.2812348e-06
-1.8623999e-11
-4.120283e-05
7.1484741e-06
-1.7948153e-11
-4.6203974e-05
6.8638058e-06
-1.6903076e-11
-5.0882103e-05
6.4299204e-06
-1.5493188e-11
-5.5128236e-05
5.8471632e-06
-1.3713136e-11
-5.8834323e-05
5.1156966e-06
-1.155827e-11
-6.1894806e-05
4.2377388e-06
-9.0408206e-12
-6.4209609e-05
3.2196709e-06
-6.1948503e-12
-6.5688356e-05
2.0738463e-06
-3.0850829e-12
-6.6255466e-05
8.1993647e-07
2.2358097e-13
-6.5855985e-05
-5.1405191e-07
3.6832185e-12
-6.4460814e-05
-1.8923068e-06
7.2807659e-12
-6.2072481e-05
-3.2707622e-06
1.0857935e-11
-5.8729086e-05
-4.5993466e-06
1.4234091e-11
-5.4507069e-05
-5.8237791e-06
1.7220342e-11
-4.9521902e-05
-6.8884985e-06
1.9692544e-11
-4.3926407e-05
-7.7401085e-06
2.1626945e-11
-3.7906468e-05
-8.3311582e-06
2.3022025e-11
-3.1674152e-05
-8.6239484e-06
2.377128e-11
-2.5458386e-05
-8.594024e-06
2.3649522e-11
-1.9493584e-05
-8.2330596e-06
2.2497096e-11
-1.4006711e-05
-7.5509605e-06
2.0447774e-11
-9.2033147e-06
-6.577186e-06
1.7902631e-11
-5.252934e-06
-5.3616013e-06
1.5187341e-11
-2.2739733e-06
-3.975635e-06
1.2244045e-11
-3.1721623e-07
-2.5150574e-06
8.7177506e-12
6.5710481e-07
-1.1071325e-06
4.3065416e-12
8.036472e-07
7.7018101e-08
2.1914566e-12
4.1775837e-07
8.0093457e-07
3.5547332e-12
7.0834052e-07
-2.3780507e-12
-2.7356838e-07
-1.4149241e-07
-1.2256331e-11
-1.6274551e-06
1.6603736e-06
-7.0064427e-12
-4.2893749e-06
4.2464603e-06
-8.3550372e-12
-8.2746515e-06
6.9394878e-06
-6.9806784e-12
-1.3474397e-05
9.4094065e-06
-5.0345394e-12
-1.9708704e-05
1.1495048e-05
-3.9673396e-12
-2.6765737e-05
1.3137305e-05
-3.2785901e-12
-3.4426606e-05
1.4334351e-05
-2.7143503e-12
-4.2478623e-05
1.5110412e-05
-2.247187e-12
-5.0720446e-05
1.5497063e-05
-1.8308502e-12
-5.8962293e-05
1.5523082e-05
-1.4253675e-12
-6.702369e-05
1.5209874e-05
-1.0174318e-12
-7.4730531e-05
1.4570652e-05
-6.0819182e-13
-8.1912719e-05
1.3612112e-05
-2.022659e-13
-8.8403148e-05
1.2337593e-05
1.9674239e-13
-9.4038478e-05
1.0751024e-05
5.9293956e-13
-9.8661799e-05
8.8610577e-06
9.936948e-13
-0.0001021271
6.6849722e-06
1.3965098e-12
-0.00010430523
4.2519821e-06
1.7697386e-12
-0.000105091
1.6057166e-06
2.0710281e-12
-0.00010441064
-1.1944185e-06
2.2919447e-12
-0.00010222946
-4.0735009e-06
2.4557382e-12
-9.8558527e-05
-6.9417071e-06
2.6041127e-12
-9.3460011e-05
-9.6978599e-06
2.7528138e-12
-8.7050394e-05
-1.2233377e-05
2.8514271e-12
-7.950099e-05
-1.4437885e-05
2.8207087e-12
-7.1035277e-05
-1.6205835e-05
2.6553991e-12
-6.1922735e-05
-1.7443741e-05
2.4819298e-12
-5.246917e-05
-1.8077543e-05
2.4685991e-12
-4.3003693e-05
-1.8059477e-05
2.6381961e-12
-3.386281e-05
-1.7373879e-05
2.7940742e-12
-2.5372198e-05
-1.604154e-05
2.7213014e-12
-1.7826874e-05
-1.4122565e-05
2.5001224e-12
-1.1470436e-05
-1.1718134e-05
2.5173209e-12
-6.4739065e-06
-8.9721821e-06
3.0274041e-12
-2.9140434e-06
-6.0748063e-06
3.6716189e-12
-7.5117615e-07
-3.2698581e-06
3.647611e-12
1.9439523e-07
-8.6854696e-07
3.6664278e-12
2.6545978e-07
7.2973825e-07
4.969954e-12
9.738057e-07
8.486696e-13
-7.4583893e-07
6.0435927e-07
-1.2578339e-11
-3.1796211e-06
4.0941586e-06
-1.1018901e-12
-7.3460877e-06
8.4129359e-06
-6.5620829e-12
-1.3163042e-05
1.2756449e-05
-5.9459007e-12
-2.0455809e-05
1.6702175e-05
-3.3547186e-12
-2.8992631e-05
2.003187e-05
-2.0338261e-12
-3.8513876e-05
2.2658552e-05
-1.1546437e-12
-4.8752678e-05
2.4573155e-05
-3.6662087e-13
-5.9446986e-05
2.580472e-05
2.7193451e-13
-7.034484e-05
2.6394915e-05
7.7747801e-13
-8.1205137e-05
2.6383376e-05
1.1976709e-12
-9.1795992e-05
2.5800726e-05
1.5600406e-12
-0.00010189242
2.4667083e-05
1.8748441e-12
-0.00011127464
2.2994331e-05
2.1394966e-12
-0.00011972779
2.0790745e-05
2.3399867e-12
-0.00012704362
1.8066849e-05
2.4628972e-12
-0.00013302417
1.4841603e-05
2.5092981e-12
-0.00013748743
1.1148223e-05
2.4964554e-12
-0.00014027453
7.0390786e-06
2.4320716e-12
-0.00014125806
2.5892591e-06
2.3005416e-12
-0.00014035078
-2.1016936e-06
2.0777326e-12
-0.00013751439
-6.9098923e-06
1.7148931e-12
-0.00013276703
-1.168908e-05
1.2597549e-12
-0.00012618932
-1.6275588e-05
8.0881699e-13
-0.0001179279
-2.0494798e-05
4.3690868e-13
-0.00010819592
-2.4169843e-05
1.2444811e-13
-9.7269865e-05
-2.7131855e-05
-2.2154474e-13
-8.5482401e-05
-2.9231206e-05
-6.3221374e-13
-7.3210955e-05
-3.0349034e-05
-9.5982763e-13
-6.0862295e-05
-3.0408184e-05
-9.5692874e-13
-4.8853478e-05
-2.938268e-05
-5.3953749e-13
-3.7589895e-05
-2.7305043e-05
5.5396951e-14
-2.7441275e-05
-2.4271127e-05
4.9348354e-13
-1.8716665e-05
-2.0442794e-05
7.6838384e-13
-1.1639483e-05
-1.6049493e-05
1.2672394e-12
-6.3236227e-06
-1.1390732e-05
2.2903812e-12
-2.7515442e-06
-6.8418631e-06
3.5805172e-12
-7.5710923e-07
-2.8628824e-06
4.382111e-12
-9.5129386e-09
-1.7877852e-08
4.5146449e-12
9.6425748e-07
3.7082573e-12
-1.227964e-06
1.8323378e-06
-1.4157103e-11
-4.7881042e-06
7.6542937e-06
4.822722e-12
-1.0521535e-05
1.4146374e-05
-5.7355074e-12
-1.8214324e-05
2.0449248e-05
-6.8456419e-12
-2.7603929e-05
2.6091785e-05
-4.4845061e-12
-3.839629e-05
3.0824234e-05
-3.7784827e-12
-5.028305e-05
3.4545313e-05
-3.4525172e-12
-6.2954779e-05
3.7244888e-05
-2.9904525e-12
-7.6109034e-05
3.895898e-05
-2.5354869e-12
-8.9453771e-05
3.9739656e-05
-2.1242711e-12
-0.00010270747
3.9637078e-05
-1.7305168e-12
-0.00011559753
3.8690786e-05
-1.3370894e-12
-0.00012785835
3.6927897e-05
-9.3229881e-13
-0.0001392302
3.4366187e-05
-5.070134e-13
-0.00014945975
3.1020298e-05
-6.6360314e-14
-0.00015830247
2.6909579e-05
3.672575e-13
-0.00016552724
2.2066367e-05
7.6908467e-13
-0.00017092275
1.6543726e-05
1.1367688e-12
-0.0001743056
1.0421918e-05
1.4921411e-12
-0.00017552936
3.8130179e-06
1.8547619e-12
-0.00017449413
-3.1369157e-06
2.2070438e-12
-0.00017115588
-1.0248128e-05
2.4769386e-12
-0.00016553479
-1.7310162e-05
2.6093164e-12
-0.0001577219
-2.4088501e-05
2.6226082e-12
-0.00014788321
-3.0333524e-05
2.6190726e-12
-0.00013626062
-3.5792449e-05
2.6951951e-12
-0.00012316897
-4.0223475e-05
2.8227672e-12
-0.00010898871
-4.3411425e-05
2.8469707e-12
-9.4153781e-05
-4.5183952e-05
2.6625275e-12
-7.9134853e-05
-4.5427168e-05
2.4037768e-12
-6.4418095e-05
-4.4099511e-05
2.3777301e-12
-5.0480402e-05
-4.1242737e-05
2.7241379e-12
-3.7762136e-05
-3.6989303e-05
3.1770928e-12
-2.6638779e-05
-3.1566063e-05
3.2999082e-12
-1.7393141e-05
-2.5295157e-05
3.0263228e-12
-1.0189941e-05
-1.8594047e-05
2.9797049e-12
-5.0547784e-06
-1.1977081e-05
3.8753253e-12
-1.8598287e-06
-6.057772e-06
3.9209283e-12
-3.2221507e-07
-1.5554562e-06
7.608726e-13
6.420183e-07
5.9920611e-12
-1.693167e-06
3.5255229e-06
-1.6680668e-11
-6.3714076e-06
1.2332523e-05
1.0197156e-11
-1.367145e-05
2.1446419e-05
-4.8167886e-12
-2.3234055e-05
3.0011861e-05
-6.9843158e-12
-3.4695236e-05
3.7552974e-05
-4.2698469e-12
-4.7689814e-05
4.3818817e-05
-3.7224794e-12
-6.1857516e-05
4.8713018e-05
-3.6215294e-12
-7.6848061e-05
5.2235435e-05
-3.274085e-12
-9.2323865e-05
5.4434787e-05
-2.8779865e-12
-0.00010796027
5.5376063e-05
-2.495018e-12
-0.00012344396
5.5120779e-05
-2.1090453e-12
-0.00013847069
5.3717516e-05
-1.7170334e-12
-0.00015274322
5.120043e-05
-1.3178722e-12
-0.00016597054
4.7593499e-05
-9.0070561e-13
-0.00017786874
4.2918498e-05
-4.5165121e-13
-0.00018816405
3.7204894e-05
2.548059e-14
-0.00019659789
3.0500211e-05
5.0092976e-13
-0.00020293384
2.2879674e-05
9.387285e-13
-0.00020696614
1.4454216e-05
1.3288953e-12
-0.0002085293
5.3761615e-06
1.6984093e-12
-0.00020750813
-4.1580993e-06
2.0804539e-12
-0.00020384769
-1.3908564e-05
2.4679762e-12
-0.00019756247
-2.3595362e-05
2.7826879e-12
-0.00018874396
-3.2906998e-05
2.9384938e-12
-0.00017756588
-4.1511616e-05
2.9377122e-12
-0.00016428627
-4.9072106e-05
2.906002e-12
-0.00014924553
-5.5264237e-05
2.9878386e-12
-0.00013285992
-5.9797019e-05
3.1761213e-12
-0.00011560966
-6.2434149e-05
3.2760163e-12
-9.802173e-05
-6.3015074e-05
3.1166124e-12
-8.0647217e-05
-6.1474084e-05
2.8187898e-12
-6.4034209e-05
-5.7855841e-05
2.7498343e-12
-4.8697487e-05
-5.232605e-05
3.1024842e-12
-3.5086902e-05
-4.5176569e-05
3.5522076e-12
-2.3556633e-05
-3.6825339e-05
3.5448194e-12
-1.4337845e-05
-2.7812858e-05
3.3648311e-12
-7.5175104e-06
-1.8797502e-05
4.2364117e-12
-3.0267421e-06
-1.0548552e-05
3.7002939e-12
-6.4248865e-07
-3.9396728e-06
-1.742354e-12
-4.7681128e-10
8.5306057e-12
-2.132937e-06
5.6584809e-06
-1.9464671e-11
-7.8910751e-06
1.8090647e-05
1.4979479e-11
-1.6717404e-05
3.0272751e-05
-4.0944204e-12
-2.8105741e-05
4.1400203e-05
-7.0701255e-12
-4.1585088e-05
5.1032327e-05
-3.8524798e-12
-5.6714133e-05
5.8947869e-05
-3.3257273e-12
-7.3078276e-05
6.5077168e-05
-3.3479378e-12
-9.0287086e-05
6.9444248e-05
-3.0570785e-12
-0.00010797132
7.2119024e-05
-2.7003875e-12
-0.00012577927
7.3184011e-05
-2.3485005e-12
-0.00014337274
7.2714255e-05
-1.9785232e-12
-0.00016042341
7.0768195e-05
-1.5914597e-12
-0.00017661018
6.7387203e-05
-1.2002142e-12
-0.00019161814
6.2601449e-05
-8.1013073e-13
-0.00020513951
5.643987e-05
-4.0884535e-13
-0.00021687684
4.8942218e-05
2.2431508e-14
-0.00022654815
4.0171518e-05
4.8381404e-13
-0.00023389407
3.0225599e-05
9.4199662e-13
-0.0002386865
1.9246653e-05
1.3484749e-12
-0.00024073842
7.4280749e-06
1.6805551e-12
-0.00023991437
-4.9821669e-06
1.9662483e-12
-0.00023614103
-1.768192e-05
2.2686913e-12
-0.00022941748
-3.0318912e-05
2.5922393e-12
-0.00021982415
-4.2500297e-05
2.8589442e-12
-0.0002075299
-5.3805843e-05
2.9550467e-12
-0.00019279608
-6.3805941e-05
2.8605994e-12
-0.00017597671
-7.2083666e-05
2.7220078e-12
-0.00015751366
-7.8260106e-05
2.7399198e-12
-0.00013792615
-8.2021649e-05
2.9425949e-12
-0.00011779371
-8.3147435e-05
3.10483e-12
-9.7732919e-05
-8.1534833e-05
2.9919865e-12
-7.8368111e-05
-7.7220698e-05
2.7118012e-12
-6.0297893e-05
-7.0396367e-05
2.6768471e-12
-4.405956e-05
-6.1414936e-05
3.0427363e-12
-3.0094425e-05
-5.0790408e-05
3.3483042e-12
-1.871723e-05
-3.9189992e-05
3.5545704e-12
-1.0093043e-05
-2.7421721e-05
4.8284516e-12
-4.2253242e-06
-1.6416318e-05
3.6522239e-12
-9.5849315e-07
-7.2064997e-06
-4.6038768e-12
-9.5896542e-07
1.0539413e-11
-2.5450556e-06
8.2035585e-06
-2.2264605e-11
-9.3288461e-06
2.4874421e-05
1.9250309e-11
-1.9615363e-05
4.0559271e-05
-3.6188035e-12
-3.2756849e-05
5.4541695e-05
-7.3476169e-12
-4.8175887e-05
6.6451367e-05
-3.6747281e-12
-6.535409e-05
7.6126078e-05
-3.1914818e-12
-8.3822137e-05
8.3545223e-05
-3.3415681e-12
-0.00010315062
8.8772738e-05
-3.109719e-12
-0.00012294162
9.1910026e-05
-2.8000884e-12
-0.00014282095
9.3063347e-05
-2.4962742e-12
-0.00016243134
9.2324644e-05
-2.163897e-12
-0.00018142688
8.9763732e-05
-1.793936e-12
-0.00019946925
8.5429577e-05
-1.3969729e-12
-0.00021622604
7.9358248e-05
-9.9210333e-13
-0.0002313713
7.158513e-05
-5.9123891e-13
-0.00024458832
6.2159232e-05
-1.8417343e-13
-0.0002555746
5.1157786e-05
2.5387075e-13
-0.00026404868
3.8699679e-05
7.314735e-13
-0.00026975868
2.4956659e-05
1.2151763e-12
-0.00027249209
1.01615e-05
1.6402716e-12
-0.00027208668
-5.3875857e-06
1.961918e-12
-0.00026844173
-2.1326893e-05
2.2208211e-12
-0.00026152976
-3.7230904e-05
2.4827996e-12
-0.0002514074
-5.2622658e-05
2.7882511e-12
-0.00023822498
-6.6988239e-05
3.0638582e-12
-0.00022223362
-7.9797265e-05
3.164108e-12
-0.00020378862
-9.0528673e-05
3.0353488e-12
-0.00018334763
-9.8701153e-05
2.8326374e-12
-0.00016146244
-0.0001039069
2.8071465e-12
-0.00013876329
-0.00010584657
3.0229051e-12
-0.00011593534
-0.00010436272
3.2329565e-12
-9.3687513e-05
-9.9468469e-05
3.1657839e-12
-7.2715421e-05
-9.1368499e-05
2.9368376e-12
-5.3660772e-05
-8.0469673e-05
2.9004996e-12
-3.7071113e-05
-6.7380092e-05
3.0346925e-12
-2.336394e-05
-5.2897112e-05
3.5208765e-12
-1.2799298e-05
-3.7986336e-05
5.4435765e-12
-5.4648763e-06
-2.3750763e-05
3.6974696e-12
-1.2772624e-06
-1.1394128e-05
-7.574558e-12
-2.236236e-06
1.2944234e-11
-2.9284836e-06
1.1132065e-05
-2.4991723e-11
-1.0673673e-05
3.2619589e-05
2.3069989e-11
-2.2336175e-05
5.2221778e-05
-3.3087225e-12
-3.7135975e-05
6.9341504e-05
-7.7075504e-12
-5.4394109e-05
8.3709505e-05
-3.5953716e-12
-7.3517627e-05
9.5249598e-05
-3.1554317e-12
-9.3984297e-05
0.0001040119
-3.4276279e-12
-0.00011532795
0.0001101164
-3.2449708e-12
-0.00013712517
0.00011370725
-2.9670871e-12
-0.00015898352
0.00011492171
-2.6998523e-12
-0.00018053177
0.00011387289
-2.408348e-12
-0.00020141214
0.0001106441
-2.0760077e-12
-0.00022127503
0.00010529246
-1.6971374e-12
-0.00023977618
9.7859403e-05
-1.2792322e-12
-0.00025657638
8.8385329e-05
-8.4727526e-13
-0.00027134346
7.6926319e-05
-4.227289e-13
-0.00028375659
6.3570907e-05
-1.7436855e-16
-0.00029351244
4.8455517e-05
4.521281e-13
-0.00030033323
3.1777444e-05
9.5544804e-13
-0.00030397637
1.3804643e-05
1.4754836e-12
-0.00030424557
-5.1183631e-06
1.9262448e-12
-0.00030100297
-2.4569492e-05
2.2700716e-12
-0.00029418252
-4.4051375e-05
2.502274e-12
-0.00028380326
-6.3001946e-05
2.7233084e-12
-0.00026998223
-8.080929e-05
3.0091619e-12
-0.0002529455
-9.6833969e-05
3.2972676e-12
-0.00023303598
-0.00011043814
3.4150762e-12
-0.00021071598
-0.00012102114
3.2717292e-12
-0.00018656267
-0.00012806026
3.0218357e-12
-0.00016125486
-0.00013115445
2.9535234e-12
-0.00013555
-0.00013006758
3.1545032e-12
-0.00011025147
-0.00012476694
3.3741425e-12
-8.6167356e-05
-0.00011545256
3.3512335e-12
-6.4063727e-05
-0.00010257334
3.1355621e-12
-4.4616693e-05
-8.6827193e-05
2.8826452e-12
-2.8368548e-05
-6.9145267e-05
3.3316465e-12
-1.5693149e-05
-5.0661704e-05
5.9180219e-12
-6.7752125e-06
-3.2668687e-05
3.7861196e-12
-1.6070327e-06
-1.6562307e-05
-1.0527669e-11
-3.8432894e-06
1.5484874e-11
-3.2817007e-06
1.4413792e-05
-2.7582359e-11
-1.1915872e-05
4.1253732e-05
2.6473973e-11
-2.4855513e-05
6.5161423e-05
-3.1313163e-12
-4.1199919e-05
8.568592e-05
-8.1192745e-12
-6.0176309e-05
0.0001026859
-3.5751001e-12
-8.1122248e-05
0.00011619554
-3.1561863e-12
-0.0001034663
0.00012635596
-3.5391381e-12
-0.00012670888
0.00013335898
-3.4046309e-12
-0.00015040464
0.00013740302
-3.1518348e-12
-0.00017414713
0.0001386642
-2.9048562e-12
-0.00019755593
0.0001372817
-2.6365816e-12
-0.00022026668
0.00013335484
-2.339271e-12
-0.00024192388
0.00012694967
-2.0022524e-12
-0.00026217668
0.0001181122
-1.6092507e-12
-0.00028067717
0.00010688582
-1.1638599e-12
-0.00029708131
9.3330457e-05
-6.9677898e-13
-0.00031105196
7.7541564e-05
-2.4190349e-13
-0.00032226415
5.96677e-05
1.9951485e-13
-0.00033041221
3.9925494e-05
6.6508437e-13
-0.00033521899
1.8611407e-05
1.1793757e-12
-0.00033644714
-3.8902019e-06
1.7036165e-12
-0.00033391173
-2.7104878e-05
2.227108e-12
-0.00032749596
-5.0467135e-05
2.5861784e-12
-0.00031716687
-7.3331044e-05
2.7913973e-12
-0.00030299231
-9.4983895e-05
2.9635333e-12
-0.00028515685
-0.00011466946
3.2118447e-12
-0.00026397519
-0.00013161978
3.4934311e-12
-0.0002399006
-0.00014509567
3.6182048e-12
-0.00021352581
-0.00015443503
3.465099e-12
-0.00018557378
-0.00015910653
3.1849908e-12
-0.00015687661
-0.00015876482
3.082832e-12
-0.00012834166
-0.00015330189
3.2587152e-12
-0.00010090606
-0.00014288811
3.479907e-12
-7.5482453e-05
-0.0001279969
3.4201538e-12
-5.2901145e-05
-0.00010940853
2.9588047e-12
-3.385513e-05
-8.8191325e-05
3.2218843e-12
-1.8854794e-05
-6.5662047e-05
6.3226808e-12
-8.1982613e-06
-4.3325202e-05
3.7977513e-12
-1.9611587e-06
-2.2799386e-05
-1.367997e-11
-5.8044707e-06
1.8202751e-11
-3.6023027e-06
1.8016125e-05
-2.9992928e-11
-1.3044874e-05
5.069627e-05
2.9483816e-11
-2.7149292e-05
7.9265842e-05
-3.060911e-12
-4.4907171e-05
0.00010344381
-8.580246e-12
-6.5461504e-05
0.00012324024
-3.6247622e-12
-8.808723e-05
0.00013882127
-3.2062809e-12
-0.0001121688
0.00015043753
-3.6814186e-12
-0.00013717742
0.00015836761
-3.5970671e-12
-0.00016264988
0.00016287548
-3.3791757e-12
-0.00018816993
0.00016418426
-3.1559047e-12
-0.00021335263
0.00016246442
-2.8990662e-12
-0.00023783202
0.00015783423
-2.6143779e-12
-0.0002612519
0.00015036955
-2.3083255e-12
-0.00028325983
0.00014012012
-1.9625573e-12
-0.00030350383
0.00012712982
-1.5509645e-12
-0.00032163167
0.0001114583
-1.0721492e-12
-0.00033729245
9.3202354e-05
-5.6146925e-13
-0.00035014038
7.2515642e-05
-6.6140158e-14
-0.00035984079
4.9625899e-05
4.0057375e-13
-0.00036607843
2.4849032e-05
8.6108127e-13
-0.00036856897
-1.3996724e-06
1.3287784e-12
-0.00036707135
-2.8602497e-05
1.9775416e-12
-0.00036140636
-5.6132096e-05
2.5336153e-12
-0.00035147456
-8.3262821e-05
2.907697e-12
-0.00033727781
-0.00010918066
3.0952114e-12
-0.00031894091
-0.0001330064
3.218404e-12
-0.00029673177
-0.00015382896
3.4173454e-12
-0.00027107728
-0.00017075015
3.6702154e-12
-0.00024257161
-0.00018294064
3.7800082e-12
-0.00021197325
-0.00018970486
3.6113483e-12
-0.00018018759
-0.00019055052
3.3145191e-12
-0.00014823334
-0.00018525621
3.2022415e-12
-0.00011719278
-0.00017392867
3.3761106e-12
-8.8148946e-05
-0.0001570407
3.4927127e-12
-6.2115369e-05
-0.00013544208
3.0667748e-12
-3.9966489e-05
-0.00011034022
3.2676078e-12
-2.2377619e-05
-8.3250945e-05
6.8399387e-12
-9.7826949e-06
-5.5920128e-05
3.767929e-12
-2.3546947e-06
-3.0227357e-05
-1.7209433e-11
-8.1591845e-06
2.1228941e-11
-3.8870502e-06
2.1903208e-05
-3.2194363e-11
-1.404866e-05
6.0857847e-05
3.2097226e-11
-2.9192055e-05
9.4409236e-05
-3.0659773e-12
-4.8215267e-05
0.00012246703
-9.0694092e-12
-7.0187843e-05
0.00014521282
-3.7531092e-12
-9.4330059e-05
0.00016296349
-3.3212175e-12
-0.00011998821
0.00017609569
-3.8612458e-12
-0.00014660907
0.00018498848
-3.81474e-12
-0.00017371587
0.00018998229
-3.6361121e-12
-0.00020088685
0.00019135523
-3.4521199e-12
-0.00022773707
0.00018931465
-3.2193307e-12
-0.0002539038
0.00018400096
-2.9397295e-12
-0.00027903518
0.00017550094
-2.6364937e-12
-0.00030278231
0.00016386724
-2.3163283e-12
-0.00032479396
0.00014914146
-1.9565425e-12
-0.00034471404
0.00013137837
-1.5223448e-12
-0.00036218126
0.00011066957
-1.0049171e-12
-0.00037683114
8.7165529e-05
-4.4354757e-13
-0.00038830041
6.1095189e-05
9.9811125e-14
-0.00039623427
3.2782888e-05
6.0938336e-13
-0.00040029638
2.6624261e-06
1.1433093e-12
-0.00040018389
-2.8715014e-05
1.6508825e-12
-0.00039564406
-6.0671921e-05
2.2543232e-12
-0.00038649735
-9.2409502e-05
2.8313711e-12
-0.00037266261
-0.00012301537
3.2297709e-12
-0.00035418495
-0.00015148406
3.407551e-12
-0.0003312638
-0.00017675016
3.4877141e-12
-0.00030427785
-0.00019773614
3.6307706e-12
-0.000273803
-0.00021341549
3.8302107e-12
-0.00024061829
-0.00022288953
3.8928895e-12
-0.00020569517
-0.00022547361
3.6921667e-12
-0.00017016638
-0.00022078503
3.4011772e-12
-0.00013527319
-0.00020882191
3.3312498e-12
-0.00010229334
-0.00019002056
3.3925051e-12
-7.2455928e-05
-0.00016527946
3.0095249e-12
-4.6853284e-05
-0.00013594285
3.3286055e-12
-2.6361362e-05
-0.00010374288
7.5350422e-12
-1.1580445e-05
-7.0701059e-05
3.7932071e-12
-2.8033163e-06
-3.9004464e-05
-2.1217605e-11
-1.0962521e-05
2.4668206e-11
-4.1321179e-06
2.6035358e-05
-3.4153138e-11
-1.4914098e-05
7.1639793e-05
3.4287356e-11
-3.0957132e-05
0.00011045227
-3.1257098e-12
-5.1080656e-05
0.00014259056
-9.5510851e-12
-7.4292275e-05
0.00016842444
-3.9381818e-12
-9.9766125e-05
0.00018843735
-3.5001911e-12
-0.00012681669
0.00020314626
-4.0880505e-12
-0.0001548713
0.0002130431
-4.0603249e-12
-0.00018344393
0.00021855492
-3.9074382e-12
-0.00021211149
0.0002200228
-3.7646277e-12
-0.00024049344
0.0002176966
-3.5757327e-12
-0.00026823493
0.00021174246
-3.3231441e-12
-0.00029499351
0.00020225954
-3.0207355e-12
-0.00032042904
0.00018930278
-2.6930029e-12
-0.0003441964
0.00017290882
-2.3508072e-12
-0.00036594074
0.0001531227
-1.9709888e-12
-0.00038529506
0.00013002388
-1.51104e-12
-0.00040188002
0.00010375049
-9.5422582e-13
-0.00041530644
7.4521627e-05
-3.3992296e-13
-0.00042518076
4.2657231e-05
2.7587356e-13
-0.00043111396
8.5956241e-06
8.749713e-13
-0.00043273622
-2.709277e-05
1.3398582e-12
-0.00042971417
-6.3693994e-05
1.8893663e-12
-0.00042177619
-0.00010034749
2.522885e-12
-0.00040874171
-0.00013604982
3.1282105e-12
-0.00039055536
-0.00016967038
3.5458985e-12
-0.00036732348
-0.00019998203
3.7158594e-12
-0.0003393498
-0.00022570986
3.7565436e-12
-0.00030716539
-0.00024559994
3.8346982e-12
-0.00027154684
-0.00025850807
3.9499821e-12
-0.000233516
-0.00026350442
3.9276903e-12
-0.00019431496
-0.00025998604
3.6979182e-12
-0.00015535291
-0.00024778399
3.4752898e-12
-0.00011812528
-0.00022724822
3.32935e-12
-8.4111837e-05
-0.0001992929
2.8124596e-12
-5.4665476e-05
-0.0001653892
3.2757024e-12
-3.0907334e-05
-0.00012750102
8.343194e-12
-1.3644695e-05
-8.7963706e-05
3.8982808e-12
-3.3229929e-06
-4.9326146e-05
-2.5789061e-11
-1.4285542e-05
2.8648112e-11
-4.3334561e-06
3.0368847e-05
-3.5822104e-11
-1.5627796e-05
8.2934097e-05
3.6020715e-11
-3.2417912e-05
0.00012724239
-3.2392195e-12
-5.3460308e-05
0.00016363296
-1.0003356e-11
-7.7712461e-05
0.0001926766
-4.1518513e-12
-0.000104311
0.0002150359
-3.7235955e-12
-0.00013254491
0.00023138017
-4.3604045e-12
-0.00016182693
0.00024232512
-4.3458077e-12
-0.00019166587
0.00024839387
-4.2019706e-12
-0.00022164124
0.00024999817
-4.0815565e-12
-0.00025138096
0.00024743632
-3.9334797e-12
-0.00028054264
0.00024090414
-3.7301244e-12
-0.00030879822
0.00023051511
-3.4597576e-12
-0.00033582178
0.00021632635
-3.1300267e-12
-0.00036128017
0.00019836722
-2.7691218e-12
-0.00038482595
0.00017666848
-2.395628e-12
-0.00040609256
0.00015129048
-1.989134e-12
-0.00042469179
0.00012234972
-1.5018622e-12
-0.00044021386
9.0043692e-05
-9.0579712e-13
-0.00045223065
5.4674041e-05
-2.2770501e-13
-0.00046030303
1.6668022e-05
4.5853494e-13
-0.00046399356
-2.3402224e-05
1.0396025e-12
-0.00046288448
-6.4803091e-05
1.5841158e-12
-0.00045660341
-0.00010662858
2.1664573e-12
-0.0004448561
-0.00014779715
2.8153718e-12
-0.00042746613
-0.00018706033
3.4346527e-12
-0.0004044202
-0.00022302792
3.8558583e-12
-0.00037591559
-0.00025421446
4.0073281e-12
-0.00034240458
-0.00027911099
4.000232e-12
-0.00030462864
-0.00029628405
3.9919113e-12
-0.00026363339
-0.00030449966
3.9839035e-12
-0.00022075512
-0.00030286428
3.868475e-12
-0.00017757162
-0.00029096747
3.6747312e-12
-0.00013581501
-0.00026900485
3.3839082e-12
-9.7251938e-05
-0.00023785599
2.6116699e-12
-6.3544842e-05
-0.0001990963
3.1274084e-12
-3.6114688e-05
-0.00015493117
9.2118361e-12
-1.6028554e-05
-0.00010804984
4.0350079e-12
-3.9298342e-06
-6.1424836e-05
-3.1053858e-11
-1.8215411e-05
3.3308328e-11
-4.487225e-06
3.4856107e-05
-3.7151035e-11
-1.6177327e-05
9.4624159e-05
3.7279818e-11
-3.3549903e-05
0.00014461497
-3.4074722e-12
-5.5314557e-05
0.00018539763
-1.0422878e-11
-8.0390369e-05
0.00021775241
-4.3814474e-12
-0.0001078848
0.00024253033
-3.9677914e-12
-0.00013706725
0.00026056263
-4.6577951e-12
-0.00016734027
0.00027259815
-4.6673607e-12
-0.0001982112
0.0002792648
-4.5333471e-12
-0.00022926561
0.00028105259
-4.41823e-12
-0.00026014367
0.00027831439
-4.2847618e-12
-0.00029051966
0.00027128013
-4.1192636e-12
-0.00032008483
0.00026008027
-3.9024361e-12
-0.00034853318
0.0002447747
-3.6103338e-12
-0.00037554994
0.00022538399
-3.2460067e-12
-0.00040080218
0.00020192074
-2.8427643e-12
-0.0004239316
0.0001744199
-2.428411e-12
-0.0004445493
0.00014296742
-1.9881221e-12
-0.00046223322
0.0001077276
-1.4687378e-12
-0.00047652863
6.8969447e-05
-8.2834055e-13
-0.00048695288
2.7092284e-05
-9.2615212e-14
-0.00049300563
-1.7349448e-05
6.3600527e-13
-0.00049418562
-6.3623086e-05
1.2919421e-12
-0.00049001582
-0.0001107984
1.8852217e-12
-0.00048007775
-0.00015773524
2.4925997e-12
-0.00046405568
-0.00020308242
3.1496229e-12
-0.00044178975
-0.00024529383
3.7600737e-12
-0.00041333574
-0.00028266845
4.1543416e-12
-0.00037902595
-0.00031342078
4.2599248e-12
-0.00033952334
-0.00033578668
4.1762259e-12
-0.00029585753
-0.0003481655
4.0415283e-12
-0.0002494298
-0.000349292
3.9011517e-12
-0.00020197496
-0.00033842229
3.7651073e-12
-0.00015547283
-0.00031550697
3.4474511e-12
-0.00011201159
-0.00028131724
2.4414943e-12
-7.3617498e-05
-0.0002374904
2.9626819e-12
-4.2077004e-05
-0.00018647168
1.0179634e-11
-1.8784001e-05
-0.00013134284
4.1702138e-12
-4.6400083e-06
-7.5568789e-05
-3.7174768e-11
-2.2855459e-05
3.8770937e-11
-4.5902834e-06
3.9446428e-05
-3.8107586e-11
-1.6552692e-05
0.00010658653
3.8063325e-11
-3.4333353e-05
0.00016239564
-3.6168286e-12
-5.6610891e-05
0.00020767518
-1.0808747e-11
-8.2277188e-05
0.00024341872
-4.6337528e-12
-0.00011041819
0.00027067134
-4.2266371e-12
-0.00014028892
0.00029043336
-4.9585839e-12
-0.00017128552
0.00030359475
-5.0015896e-12
-0.00020291689
0.00031089618
-4.8929744e-12
-0.00023477769
0.0003129134
-4.7885729e-12
-0.00026652358
0.00031006029
-4.6517264e-12
-0.00029784946
0.00030260601
-4.4884144e-12
-0.00032847061
0.00029070143
-4.3018127e-12
-0.00035810672
0.00027441082
-4.0639355e-12
-0.00038646826
0.00025374552
-3.741719e-12
-0.00041324486
0.00022869736
-3.3348404e-12
-0.00043809568
0.00019927073
-2.88083e-12
-0.00046064152
0.00016551327
-2.4164455e-12
-0.00048045932
0.0001275454
-1.9328921e-12
-0.00049707946
8.5589582e-05
-1.3732845e-12
-0.0005099872
4.0000014e-05
-6.8888923e-13
-0.00051862939
-8.7072535e-06
9.7593798e-14
-0.00052242833
-5.9824117e-05
8.9068331e-13
-0.00052080461
-0.0001124221
1.6116418e-12
-0.00051321089
-0.00016532898
2.2560022e-12
-0.00049917823
-0.00021711511
2.8890537e-12
-0.00047837551
-0.00026609657
3.5369598e-12
-0.0004506806
-0.00031036335
4.1012368e-12
-0.0004162589
-0.00034784245
4.4209734e-12
-0.00037564085
-0.00037640473
4.4297429e-12
-0.00032978533
-0.00039402105
4.2147012e-12
-0.00028011191
-0.00039896544
3.9405139e-12
-0.00022848373
-0.00039005047
3.7499296e-12
-0.00017712616
-0.00036686453
3.4040202e-12
-0.00012847765
-0.00032996575
2.2088951e-12
-8.498558e-05
-0.00028098247
2.7826865e-12
-4.8878639e-05
-0.00022257864
1.1310256e-11
-2.1960824e-05
-0.00015826066
4.3219842e-12
-5.4696767e-06
-9.2059889e-05
-4.4295087e-11
-2.8325181e-05
4.5147239e-11
-4.6407192e-06
4.4087188e-05
-3.8684944e-11
-1.6747989e-05
0.00011869376
3.8370807e-11
-3.4756315e-05
0.00018040396
-3.8442963e-12
-5.7328468e-05
0.00023024734
-1.1147174e-11
-8.333927e-05
0.00026942953
-4.9149492e-12
-0.00011185972
0.0002991918
-4.5120651e-12
-0.00014213476
0.0003207084
-5.2627701e-12
-0.00017355703
0.00033501702
-5.3296549e-12
-0.00020563945
0.0003429786
-5.2531963e-12
-0.00023798811
0.00034526207
-5.1764713e-12
-0.00027027702
0.00034234921
-5.0461435e-12
-0.0003022252
0.00033455421
-4.86619e-12
-0.00033357653
0.00032205277
-4.6639382e-12
-0.00036408207
0.00030491636
-4.4423946e-12
-0.0003934846
0.00028314805
-4.1693939e-12
-0.00042150502
0.00025671777
-3.8059102e-12
-0.00044783033
0.00022559605
-3.3481343e-12
-0.00047210323
0.00018978619
-2.8357773e-12
-0.00049391353
0.00014935571
-2.3123694e-12
-0.00051279208
0.00010446813
-1.7742694e-12
-0.00052820808
5.5416007e-05
-1.1648033e-12
-0.0005395714
2.6560574e-06
-4.2788828e-13
-0.00054624184
-5.315368e-05
4.0202068e-13
-0.00054754741
-0.00011111652
1.2554485e-12
-0.00054281499
-0.00017006138
2.0385299e-12
-0.0005314158
-0.00022851431
2.7300902e-12
-0.00051282805
-0.00028468435
3.3735557e-12
-0.00048671739
-0.00033647404
3.975835e-12
-0.00045303247
-0.00038152736
4.4356866e-12
-0.00041210823
-0.00041732895
4.6071241e-12
-0.00036476274
-0.00044136654
4.4388195e-12
-0.00031236682
-0.00045136138
4.065448e-12
-0.00025686081
-0.0004455565
3.7378162e-12
-0.00020069381
-0.00042303154
3.2632681e-12
-0.00014667113
-0.00038398841
1.8290725e-12
-9.7717401e-05
-0.0003299362
2.5106685e-12
-5.6590329e-05
-0.00026370572
1.2612004e-11
-2.5605326e-05
-0.00018924567
4.515088e-12