/*--------------------------------*- C++ -*----------------------------------*\
  =========                 |
  \\      /  F ield         | OpenFOAM: The Open Source CFD Toolbox
   \\    /   O peration     | Website:  https://openfoam.org
    \\  /    A nd           | Version:  7
     \\/     M anipulation  |
\*---------------------------------------------------------------------------*/
FoamFile
{
    version     2.0;
    format      ascii;
    class       volVectorField;
    location    "47";
    object      U;
}
// * * * * * * * * * * * * * * * * * * * * * * * * * * * * * * * * * * * * * //

dimensions      [0 1 -1 0 0 0 0];

internalField   nonuniform List<vector> 
16000
(
(6.6069235e-05 -6.7308052e-05 -3.9622441e-07)
(0.00016279237 -5.6340566e-05 5.708805e-06)
(0.00014194345 4.7017769e-07 1.920923e-05)
(-5.0606333e-05 6.1894669e-05 3.6631882e-05)
(-0.00040996316 0.00011563293 5.4740598e-05)
(-0.00090901949 0.00015774453 7.1569102e-05)
(-0.0015177072 0.00018850497 8.5781304e-05)
(-0.0022068837 0.00020960926 9.6562028e-05)
(-0.0029506002 0.00022287706 0.00010345095)
(-0.0037264643 0.00022981132 0.00010620118)
(-0.0045150503 0.00023147707 0.0001046855)
(-0.0052990133 0.00022850372 9.8840852e-05)
(-0.0060621936 0.00022114721 8.8642562e-05)
(-0.0067888649 0.00020938317 7.4101177e-05)
(-0.007463217 0.00019301418 5.5275473e-05)
(-0.0080691179 0.00017178115 3.2295707e-05)
(-0.00859017 0.00014547188 5.3918052e-06)
(-0.0090100498 0.0001140216 -2.5078351e-05)
(-0.0093131025 7.7601011e-05 -5.8604918e-05)
(-0.009485149 3.6687732e-05 -9.4510229e-05)
(-0.0095144491 -7.8850377e-06 -0.00013194459)
(-0.00939273 -5.4922472e-05 -0.00016989675)
(-0.0091162232 -0.00010284315 -0.00020722023)
(-0.008686601 -0.00014975098 -0.00024267726)
(-0.0081116919 -0.00019351417 -0.00027499825)
(-0.0074058981 -0.00023188612 -0.00030295447)
(-0.0065902246 -0.00026265739 -0.00032543949)
(-0.0056918563 -0.00028382293 -0.00034155306)
(-0.0047432584 -0.00029374793 -0.00035068059)
(-0.0037808136 -0.0002913169 -0.00035256058)
(-0.0028430627 -0.00027605213 -0.00034733322)
(-0.0019686582 -0.0002481872 -0.00033556563)
(-0.0011941519 -0.00020868848 -0.0003182532)
(-0.000551666 -0.00015925424 -0.00029680011)
(-6.6495212e-05 -0.00010241134 -0.0002729753)
(0.00024493252 -4.1767604e-05 -0.00024883673)
(0.00037893717 1.7844754e-05 -0.00022676716)
(0.00034976361 6.7088345e-05 -0.0002092031)
(0.00020616468 8.9882325e-05 -0.00019881552)
(5.7457206e-05 5.7423894e-05 -0.00018437217)
(5.8018182e-05 -0.0001669909 -6.6222816e-06)
(4.0912657e-05 -3.9928058e-05 -3.6619284e-07)
(-0.00029494956 0.00024858356 1.1267497e-05)
(-0.0010110065 0.00056213536 2.5633638e-05)
(-0.0020992163 0.0008475038 4.0618733e-05)
(-0.0035140804 0.001083125 5.4626978e-05)
(-0.0051946817 0.0012643039 6.6531101e-05)
(-0.0070766279 0.0013940696 7.5578778e-05)
(-0.0090981509 0.0014779623 8.1288169e-05)
(-0.011202308 0.0015215286 8.3359624e-05)
(-0.013337038 0.0015292121 8.1609861e-05)
(-0.015454181 0.0015039763 7.5928943e-05)
(-0.017508154 0.0014473579 6.6258521e-05)
(-0.01945472 0.0013597789 5.2587813e-05)
(-0.02125016 0.0012410036 3.4962918e-05)
(-0.02285098 0.0010906607 1.3505012e-05)
(-0.02421423 0.00090877706 -1.156689e-05)
(-0.025298435 0.00069627687 -3.9912773e-05)
(-0.026065057 0.00045541462 -7.1051986e-05)
(-0.026480398 0.00019010712 -0.0001043504)
(-0.026517815 -9.3863619e-05 -0.00013901731)
(-0.026159989 -0.0003887726 -0.00017412125)
(-0.025401171 -0.00068508818 -0.00020860631)
(-0.02424917 -0.00097175936 -0.00024133986)
(-0.022726748 -0.001236697 -0.00027116611)
(-0.020872347 -0.0014674308 -0.00029697358)
(-0.018739915 -0.0016519035 -0.0003177704)
(-0.016397724 -0.0017793437 -0.00033276125)
(-0.013926133 -0.0018411402 -0.00034141901)
(-0.011414316 -0.0018316379 -0.00034354459)
(-0.0089560889 -0.001748786 -0.00033930856)
(-0.0066449967 -0.0015945922 -0.00032926989)
(-0.004568901 -0.001375381 -0.00031436915)
(-0.002804238 -0.0011019502 -0.00029589762)
(-0.0014100267 -0.00078991707 -0.00027544576)
(-0.00042161915 -0.0004606037 -0.00025482699)
(0.00015579611 -0.00014257704 -0.0002359559)
(0.00035673644 0.00012232099 -0.00022085111)
(0.00027523816 0.00027116182 -0.00021161457)
(9.0102047e-05 0.0002051193 -0.00019543056)
(1.9252606e-06 -0.00014893874 -2.040785e-05)
(-0.00025603183 0.00029704748 -1.1787528e-05)
(-0.0010504329 0.0010236454 1.1086987e-07)
(-0.0023878104 0.0017975543 1.3091074e-05)
(-0.0042394309 0.0025099139 2.6127401e-05)
(-0.0065455534 0.0031100643 3.8078955e-05)
(-0.0092251181 0.0035809303 4.8118772e-05)
(-0.012189996 0.0039234362 5.5686228e-05)
(-0.015352987 0.0041461877 6.0399654e-05)
(-0.018631056 0.0042595933 6.2002332e-05)
(-0.021946081 0.0042728175 6.0321329e-05)
(-0.025224259 0.0041924779 5.5238882e-05)
(-0.028394925 0.0040224719 4.6678708e-05)
(-0.031389393 0.0037645258 3.4605698e-05)
(-0.034140223 0.0034191722 1.9035971e-05)
(-0.036581146 0.002986942 5.4024893e-08)
(-0.038647755 0.0024696088 -2.2166342e-05)
(-0.040278949 0.0018713621 -4.7340687e-05)
(-0.041419058 0.0011998104 -7.505545e-05)
(-0.042020506 0.00046673042 -0.00010475568)
(-0.04204677 -0.00031150054 -0.00013574351)
(-0.041475476 -0.0011138114 -0.00016718384)
(-0.040301324 -0.001914874 -0.00019812965)
(-0.038538564 -0.0026858589 -0.00022755785)
(-0.036222759 -0.0033956772 -0.00025442013)
(-0.033411584 -0.004012611 -0.00027770571)
(-0.030184429 -0.0045062539 -0.0002965118)
(-0.026640648 -0.0048496375 -0.00031011582)
(-0.022896391 -0.0050213813 -0.00031804238)
(-0.01908003 -0.0050076783 -0.00032011783)
(-0.015326331 -0.004803952 -0.00031650642)
(-0.011769563 -0.0044160775 -0.00030772343)
(-0.0085358277 -0.0038611699 -0.00029462281)
(-0.005734887 -0.0031680965 -0.00027835915)
(-0.0034517222 -0.0023780954 -0.00026032751)
(-0.0017379905 -0.0015461768 -0.00024208306)
(-0.00060367143 -0.00074420033 -0.00022523421)
(-8.0131735e-06 -6.6384004e-05 -0.00021137283)
(0.00015540754 0.00036038895 -0.00020218914)
(7.3542841e-05 0.00035438744 -0.00018527625)
(-6.4681116e-05 5.0436429e-05 -3.865967e-05)
(-0.00060837245 0.0010457802 -2.611938e-05)
(-0.0019305275 0.0023817556 -1.2138027e-05)
(-0.0039464275 0.003756534 1.1548694e-06)
(-0.0065890073 0.0050153252 1.3743206e-05)
(-0.0097791965 0.0060800714 2.4867557e-05)
(-0.013417128 0.0069205275 3.3990688e-05)
(-0.017395534 0.007534117 4.0777344e-05)
(-0.021607746 0.0079313986 4.4991602e-05)
(-0.025950709 0.008127042 4.6461604e-05)
(-0.030325867 0.0081347702 4.5056535e-05)
(-0.034638818 0.007965004 4.0670062e-05)
(-0.038798387 0.0076243775 3.3215131e-05)
(-0.042715708 0.0071165104 2.2629487e-05)
(-0.046303776 0.0064435555 8.889488e-06)
(-0.049477694 0.0056081458 -7.9703471e-06)
(-0.052155751 0.0046154509 -2.7834711e-05)
(-0.054261315 0.0034751145 -5.0484589e-05)
(-0.055725444 0.0022028928 -7.5576978e-05)
(-0.056490045 0.0008218544 -0.00010263059)
(-0.056511343 -0.00063696901 -0.00013102076)
(-0.055763444 -0.0021345979 -0.00015998242)
(-0.054241669 -0.0036248158 -0.00018863356)
(-0.051965321 -0.0050556186 -0.00021600728)
(-0.04897967 -0.0063713888 -0.00024110071)
(-0.045356815 -0.0075157162 -0.00026293631)
(-0.041195192 -0.0084347311 -0.00028063164)
(-0.036617531 -0.0090807568 -0.00029347199)
(-0.031767142 -0.0094160294 -0.00030097822)
(-0.026802526 -0.0094161938 -0.00030296175)
(-0.021890429 -0.0090732929 -0.00029955922)
(-0.017197573 -0.0083980379 -0.0002912423)
(-0.012881374 -0.0074213074 -0.00027880044)
(-0.0090800396 -0.0061950363 -0.00026329712)
(-0.0059024822 -0.0047929296 -0.00024600219)
(-0.0034185146 -0.0033117989 -0.00022830662)
(-0.0016495437 -0.0018745188 -0.00021163641)
(-0.00055979107 -0.00063471432 -0.0001973824)
(-5.0102623e-05 0.00021498798 -0.00018677943)
(3.809648e-05 0.00041383239 -0.00016797345)
(-0.00013086406 0.00044556986 -5.8175866e-05)
(-0.00097094613 0.0022427017 -4.1109333e-05)
(-0.0028462064 0.0043591978 -2.4226914e-05)
(-0.0055648064 0.0064572246 -9.7945627e-06)
(-0.0090094348 0.0083534839 3.1240412e-06)
(-0.013075454 0.0099514582 1.4104122e-05)
(-0.017642274 0.011211753 2.2882693e-05)
(-0.022584676 0.012129588 2.9354942e-05)
(-0.027779629 0.012717528 3.3443708e-05)
(-0.03310811 0.012994149 3.5076166e-05)
(-0.038455492 0.012977368 3.4175017e-05)
(-0.043711126 0.012681218 3.065183e-05)
(-0.048767518 0.012115133 2.4409714e-05)
(-0.053519631 0.011284991 1.5355158e-05)
(-0.057864699 0.010195264 3.4168374e-06)
(-0.061702792 0.0088517445 -1.1430716e-05)
(-0.064938226 0.0072644421 -2.9140845e-05)
(-0.067481792 0.0054502938 -4.9568328e-05)
(-0.069253702 0.0034354383 -7.244545e-05)
(-0.070187076 0.0012568472 -9.7363586e-05)
(-0.070231727 -0.0010368485 -0.00012376347)
(-0.069358016 -0.0033854756 -0.0001509367)
(-0.067560461 -0.0057183989 -0.00017804242)
(-0.064860797 -0.0079566893 -0.00020413903)
(-0.061310203 -0.010016302 -0.00022823193)
(-0.056990372 -0.011812185 -0.00024933516)
(-0.052013159 -0.013263136 -0.00026654289)
(-0.04651856 -0.014297147 -0.00027910491)
(-0.040670843 -0.014856898 -0.00028649846)
(-0.034652762 -0.014905003 -0.00028848729)
(-0.028657905 -0.014428602 -0.00028515901)
(-0.02288142 -0.013442953 -0.00027693451)
(-0.017509488 -0.011993818 -0.00026454699)
(-0.012708047 -0.010158727 -0.00024899259)
(-0.0086114509 -0.0080475157 -0.00023145511)
(-0.0053117535 -0.005802962 -0.00021321654)
(-0.0028485341 -0.0036024623 -0.00019559216)
(-0.0012000418 -0.0016605354 -0.00017984612)
(-0.00028880336 -0.00023378391 -0.00016670054)
(-2.4667204e-06 0.00035046154 -0.00014546899)
(-0.00019286425 0.0010313091 -7.6656077e-05)
(-0.0013239845 0.0038925399 -5.4750866e-05)
(-0.0037518542 0.0069680075 -3.4546086e-05)
(-0.0071732965 0.0099108272 -1.8452607e-05)
(-0.011414804 0.012527405 -4.6568922e-06)
(-0.01634148 0.01471451 6.7058947e-06)
(-0.021809617 0.016430507 1.5622799e-05)
(-0.027675876 0.017672023 2.2208422e-05)
(-0.033802396 0.018455252 2.6541217e-05)
(-0.040056847 0.018803217 2.8647911e-05)
(-0.046311836 0.018738081 2.8505762e-05)
(-0.052444059 0.01827741 2.6043831e-05)
(-0.058333354 0.017433439 2.1152545e-05)
(-0.063862062 0.016214498 1.3701714e-05)
(-0.068914993 0.014627828 3.5648036e-06)
(-0.073380203 0.012683113 -9.3523467e-06)
(-0.077150614 0.010396213 -2.5080334e-05)
(-0.080126453 0.0077926384 -4.3554799e-05)
(-0.082218393 0.0049104456 -6.4587433e-05)
(-0.083351221 0.0018022829 -8.7842335e-05)
(-0.083467827 -0.0014636059 -0.00011282096)
(-0.082533267 -0.0048035767 -0.00013885941)
(-0.080538655 -0.008120048 -0.00016514009)
(-0.077504584 -0.01130434 -0.00019072164)
(-0.07348376 -0.014240837 -0.00021458606)
(-0.068562535 -0.016812391 -0.00023570207)
(-0.062861012 -0.018906776 -0.00025310035)
(-0.056531408 -0.020423853 -0.00026595431)
(-0.049754415 -0.021283052 -0.00027365819)
(-0.042733391 -0.021430621 -0.000275893)
(-0.035686348 -0.02084613 -0.00027267045)
(-0.028835918 -0.019547669 -0.00026434637)
(-0.02239772 -0.017595376 -0.00025159982)
(-0.016567768 -0.015093159 -0.00023537914)
(-0.011509857 -0.012188866 -0.00021681858)
(-0.007343886 -0.0090736855 -0.00019714371)
(-0.0041345373 -0.0059816752 -0.00017763033)
(-0.0018816076 -0.0031890302 -0.00015951406)
(-0.00053619456 -0.0010143188 -0.00014312072)
(-4.1243998e-05 0.00015894684 -0.00011903038)
(-0.00025011638 0.0017985726 -9.214281e-05)
(-0.0016597718 0.0059841457 -6.5251342e-05)
(-0.0046244547 0.010198623 -4.1564943e-05)
(-0.008732168 0.014107027 -2.3510131e-05)
(-0.013751603 0.017522343 -8.4717886e-06)
(-0.019515078 0.020347123 3.6671536e-06)
(-0.025854142 0.022545929 1.3118494e-05)
(-0.032607007 0.024122007 2.0198306e-05)
(-0.039621879 0.025098113 2.5128819e-05)
(-0.046755009 0.025503182 2.8028302e-05)
(-0.053868797 0.025364233 2.892237e-05)
(-0.060830245 0.024702541 2.775177e-05)
(-0.067509638 0.023533177 2.438796e-05)
(-0.073779765 0.021866982 1.8656887e-05)
(-0.079515878 0.019714127 1.0368718e-05)
(-0.084596503 0.017088495 -6.4807949e-07)
(-0.08890513 0.014012238 -1.4509985e-05)
(-0.092332705 0.010520011 -3.1241161e-05)
(-0.094780823 0.0066624813 -5.0738322e-05)
(-0.096165469 0.0025088048 -7.2740803e-05)
(-0.096421124 -0.0018521461 -9.68093e-05)
(-0.095505036 -0.0063119925 -0.00012231782)
(-0.09340144 -0.010744588 -0.00014845979)
(-0.090125484 -0.015009424 -0.00017427536)
(-0.085726502 -0.018956675 -0.00019869722)
(-0.080290338 -0.022433832 -0.00022061604)
(-0.073940283 -0.025293752 -0.00023896083)
(-0.06683625 -0.027403765 -0.00025278726)
(-0.059171764 -0.028655369 -0.00026136495)
(-0.051168507 -0.028973822 -0.00026425314)
(-0.043068236 -0.028326938 -0.00026135441)
(-0.035122186 -0.026732295 -0.00025293663)
(-0.027578342 -0.024262244 -0.00023961738)
(-0.02066736 -0.021046293 -0.00022230962)
(-0.014588357 -0.017270892 -0.00020213075)
(-0.0094958116 -0.013177231 -0.00018030099)
(-0.0054864814 -0.0090579392 -0.00015812484)
(-0.0025879545 -0.0052522181 -0.00013689328)
(-0.00078447391 -0.0021405311 -0.00011661021)
(-7.6875239e-05 -0.00016053773 -8.9406861e-05)
(-0.00030295637 0.0027365313 -0.0001029664)
(-0.0019754989 0.0084981087 -7.0994229e-05)
(-0.005452141 0.014028586 -4.3846379e-05)
(-0.010217973 0.019021401 -2.3701722e-05)
(-0.015985181 0.023311108 -7.2064724e-06)
(-0.022552799 0.02681821 5.982477e-06)
(-0.029727185 0.029522443 1.6279719e-05)
(-0.037328208 0.031439789 2.4183125e-05)
(-0.045190985 0.032603415 3.0042781e-05)
(-0.053161892 0.033050385 3.405561e-05)
(-0.061095248 0.032813704 3.6284738e-05)
(-0.06885086 0.031918835 3.6672994e-05)
(-0.076292141 0.030383794 3.5063832e-05)
(-0.083284991 0.028221868 3.1230367e-05)
(-0.089697552 0.025446025 2.4910263e-05)
(-0.095400893 0.022074175 1.5845083e-05)
(-0.10027058 0.018134573 3.8226938e-06)
(-0.10418904 0.013670806 -1.1279247e-05)
(-0.10704872 0.0087459306 -2.9451326e-05)
(-0.10875573 0.0034454451 -5.0515159e-05)
(-0.10923405 -0.002121168 -7.4094776e-05)
(-0.10842999 -0.0078205231 -9.9602289e-05)
(-0.10631684 -0.01349715 -0.00012623698)
(-0.10289945 -0.018977284 -0.000153009)
(-0.098218431 -0.024074606 -0.00017878266)
(-0.092353556 -0.02859797 -0.00020234286)
(-0.08542603 -0.032360994 -0.00022248067)
(-0.077598899 -0.035193201 -0.00023809096)
(-0.069075175 -0.036952158 -0.00024827208)
(-0.060093132 -0.037535843 -0.00025241547)
(-0.050918477 -0.036894259 -0.0002502732)
(-0.041833351 -0.03503923 -0.0002419928)
(-0.033122476 -0.032051397 -0.00022811219)
(-0.025057304 -0.02808365 -0.00020951059)
(-0.017879662 -0.023360671 -0.00018731363)
(-0.011786485 -0.018174994 -0.00016278353)
(-0.0069140632 -0.012880403 -0.00013731957)
(-0.0033238338 -0.0078822684 -0.00011234793)
(-0.001036864 -0.00362615 -8.7640344e-05)
(-0.00011093668 -0.00060701893 -5.7202428e-05)
(-0.00035169358 0.0038338236 -0.00010766325)
(-0.0022696865 0.011410367 -7.0505399e-05)
(-0.0062274793 0.018427308 -4.0027474e-05)
(-0.011614748 0.024619966 -1.7777034e-05)
(-0.018090317 0.02985757 2.8689297e-07)
(-0.025421021 0.034089887 1.4716199e-05)
(-0.033388715 0.037320722 2.6110407e-05)
(-0.041795671 0.039585255 3.5130349e-05)
(-0.050464967 0.040931448 4.2237059e-05)
(-0.059234588 0.041407243 4.7691332e-05)
(-0.067952672 0.041053188 5.1580828e-05)
(-0.076474037 0.03989967 5.3838908e-05)
(-0.084657595 0.037967844 5.4270377e-05)
(-0.092364712 0.035273274 5.2585205e-05)
(-0.09945859 0.031831292 4.8438082e-05)
(-0.10580462 0.027663184 4.1472682e-05)
(-0.11127169 0.022802464 3.1369462e-05)
(-0.11573423 0.01730063 1.7895335e-05)
(-0.11907517 0.011231987 9.5272765e-07)
(-0.12118942 0.0046971949 -1.9375077e-05)
(-0.12198809 -0.0021747131 -4.278662e-05)
(-0.12140313 -0.0092260736 -6.8740501e-05)
(-0.11939248 -0.016272199 -9.6444642e-05)
(-0.11594549 -0.02310529 -0.00012487552)
(-0.11108823 -0.029500578 -0.00015281654)
(-0.10488841 -0.035224939 -0.00017892407)
(-0.09745931 -0.040047917 -0.00020181702)
(-0.088962023 -0.043754932 -0.00022018411)
(-0.079605252 -0.046162124 -0.00023289875)
(-0.069641896 -0.047131958 -0.00023912769)
(-0.059361877 -0.046588352 -0.00023841871)
(-0.049080957 -0.044529872 -0.00023075429)
(-0.039125746 -0.041039508 -0.0002165625)
(-0.029815735 -0.036289772 -0.00019667877)
(-0.021444145 -0.030542383 -0.00017225164)
(-0.014259517 -0.024142633 -0.00014462625)
(-0.0084461244 -0.017509197 -0.00011536046)
(-0.0041057525 -0.011119107 -8.6094585e-05)
(-0.0013000774 -0.0054896974 -5.6435079e-05)
(-0.0001446605 -0.0011817416 -2.2484751e-05)
(-0.00039639271 0.0050786771 -0.00010491419)
(-0.0025408058 0.014693494 -6.2432268e-05)
(-0.0069442148 0.023357988 -2.8826121e-05)
(-0.012909248 0.03086082 -4.5246108e-06)
(-0.020045659 0.037117361 1.5155075e-05)
(-0.028090312 0.042116918 3.0962251e-05)
(-0.036802157 0.045895797 4.3667088e-05)
(-0.045967206 0.048514828 5.4076426e-05)
(-0.055397845 0.050041371 6.2746145e-05)
(-0.064925214 0.050537313 6.9986254e-05)
(-0.074393073 0.050052602 7.5895736e-05)
(-0.083653295 0.048623492 8.0386558e-05)
(-0.092562456 0.04627454 8.3213782e-05)
(-0.10097956 0.043023322 8.4013304e-05)
(-0.10876487 0.038886829 8.2345362e-05)
(-0.11577979 0.033888626 7.7743076e-05)
(-0.12188764 0.028066013 6.976521e-05)
(-0.1269554 0.021476599 5.8051726e-05)
(-0.13085612 0.014203878 4.2379976e-05)
(-0.13347227 0.0063614898 2.2718817e-05)
(-0.13469977 -0.0019040847 -7.2401938e-07)
(-0.13445283 -0.010412656 -2.7472975e-05)
(-0.1326696 -0.018951384 -5.6756064e-05)
(-0.12931855 -0.027278411 -8.7521884e-05)
(-0.12440509 -0.035129038 -0.00011846829)
(-0.11797827 -0.042224886 -0.00014810562)
(-0.11013686 -0.048286161 -0.00017484867)
(-0.10103395 -0.053046902 -0.00019713289)
(-0.090879074 -0.056272759 -0.00021354585)
(-0.079936763 -0.057780345 -0.00022295979)
(-0.06852064 -0.057456694 -0.00022464739)
(-0.056982444 -0.055276916 -0.00021836346)
(-0.045695961 -0.051317902 -0.0002043798)
(-0.035036653 -0.045766107 -0.00018346405)
(-0.02535897 -0.038918064 -0.00015679059)
(-0.016973705 -0.031173321 -0.00012581949)
(-0.010123134 -0.023020489 -9.2327695e-05)
(-0.0049573046 -0.015016289 -5.8248954e-05)
(-0.0015839094 -0.0077601734 -2.3076924e-05)
(-0.00018000348 -0.0018920005 1.478623e-05)
(-0.00043687326 0.0064585714 -9.3516741e-05)
(-0.0027868526 0.018316909 -4.5536033e-05)
(-0.0075959013 0.028778334 -9.0516928e-06)
(-0.014088642 0.037694922 1.7202137e-05)
(-0.021830808 0.045038226 3.8505861e-05)
(-0.030532269 0.05084629 5.5798111e-05)
(-0.039931319 0.055195709 7.0008074e-05)
(-0.04979951 0.058179135 8.207376e-05)
(-0.059940135 0.059887939 9.2631549e-05)
(-0.070179117 0.060401164 0.00010202743)
(-0.08035762 0.059780208 0.00011035962)
(-0.090326506 0.058068291 0.00011750763)
(-0.099942079 0.055293697 0.00012316627)
(-0.10906305 0.05147568 0.00012688663)
(-0.11754872 0.046631961 0.00012812259)
(-0.12525818 0.040786896 0.0001262827)
(-0.13205051 0.033979548 0.0001207871)
(-0.1377859 0.026271125 0.00011112859)
(-0.14232754 0.017751395 9.6935816e-05)
(-0.14554452 0.0085438126 7.8036626e-05)
(-0.14731573 -0.0011908569 5.4516927e-05)
(-0.14753462 -0.011252633 2.675443e-05)
(-0.14611544 -0.021402755 -4.5204513e-06)
(-0.14300051 -0.031366238 -3.8246814e-05)
(-0.13816826 -0.040837696 -7.3042927e-05)
(-0.13164197 -0.049490603 -0.00010726323)
(-0.12349841 -0.056990431 -0.00013909003)
(-0.11387532 -0.063011805 -0.00016665716)
(-0.10297655 -0.067259349 -0.00018819874)
(-0.091073515 -0.069491295 -0.00020220926)
(-0.078501386 -0.069544199 -0.00020759553)
(-0.065648991 -0.067356342 -0.00020379806)
(-0.052942021 -0.062986914 -0.0001908624)
(-0.04082006 -0.056628017 -0.00016944466)
(-0.02970966 -0.048607171 -0.00014073299)
(-0.019996217 -0.039379413 -0.000106324)
(-0.011992172 -0.029509505 -6.8269896e-05)
(-0.0059060273 -0.01964435 -2.8878563e-05)
(-0.0018995946 -0.010479296 1.2430156e-05)
(-0.00021911011 -0.002750491 5.4766654e-05)
(-0.00047276075 0.0079598551 -7.2380117e-05)
(-0.0030053072 0.02224667 -1.8694959e-05)
(-0.0081754829 0.034640717 2.0381956e-05)
(-0.01513964 0.045066397 4.8462491e-05)
(-0.023425075 0.053560173 7.1377515e-05)
(-0.03271809 0.060216912 9.0248078e-05)
(-0.042738979 0.065160523 0.00010615238)
(-0.053246924 0.068521235 0.00012014668)
(-0.064037881 0.070418886 0.00013293572)
(-0.07493424 0.070952924 0.00014489051)
(-0.085776311 0.070198363 0.00015609859)
(-0.096415826 0.068206616 0.0001663978)
(-0.10671081 0.065010088 0.00017541373)
(-0.11652173 0.060629351 0.00018260298)
(-0.12570895 0.055081783 0.0001873015)
(-0.1341311 0.048390754 0.00018877857)
(-0.14164462 0.04059463 0.00018629673)
(-0.14810402 0.031755109 0.00017917756)
(-0.15336319 0.021964576 0.00016687163)
(-0.15727766 0.011352256 0.00014902986)
(-0.15970803 8.9010544e-05 0.0001255727)
(-0.16052492 -0.011609441 9.6760967e-05)
(-0.15961529 -0.023481691 6.3223692e-05)
(-0.15689042 -0.035221786 2.6003438e-05)
(-0.15229556 -0.046484027 -1.3457624e-05)
(-0.14582082 -0.0568917 -5.3360111e-05)
(-0.13751249 -0.066050541 -9.1632695e-05)
(-0.12748404 -0.073567426 -0.00012606043)
(-0.11592514 -0.079074254 -0.00015445043)
(-0.10310687 -0.082256242 -0.00017482264)
(-0.089381223 -0.082882849 -0.0001856055)
(-0.075173045 -0.080838458 -0.00018580976)
(-0.060963181 -0.076149012 -0.00017515286)
(-0.047263096 -0.06900036 -0.00015410657)
(-0.034583093 -0.059744612 -0.00012383877)
(-0.023397395 -0.048892509 -8.6090537e-05)
(-0.014103444 -0.037091899 -4.3240923e-05)
(-0.0069814339 -0.025092622 1.9445184e-06)
(-0.0022590072 -0.013702946 5.0092055e-05)
(-0.00026414631 -0.0037760391 9.7646926e-05)
(-0.00050355129 0.0095674436 -4.0534612e-05)
(-0.0031932765 0.026445193 1.908333e-05)
(-0.0086754058 0.040892106 6.043911e-05)
(-0.016048496 0.052912594 9.020465e-05)
(-0.024807366 0.062615427 0.00011470853)
(-0.03461842 0.070159232 0.00013524709)
(-0.045186795 0.075721414 0.00015303834)
(-0.056261503 0.079475014 0.00016924552)
(-0.067632971 0.081572555 0.000184632)
(-0.079121713 0.0821371 0.00019958567)
(-0.090568872 0.081259523 0.00021417638)
(-0.10182886 0.079000777 0.00022819397)
(-0.11276336 0.075397895 0.00024118825)
(-0.1232367 0.07047245 0.00025251352)
(-0.13311239 0.064240359 0.00026137751)
(-0.14225078 0.056722072 0.00026689582)
(-0.15050761 0.047952513 0.00026815343)
(-0.15773348 0.037990339 0.0002642738)
(-0.16377429 0.026926307 0.00025449487)
(-0.16847278 0.014890605 0.00023824945)
(-0.17167133 0.0020590289 0.00021524734)
(-0.17321661 -0.011342258 0.0001855646)
(-0.17296594 -0.025033764 0.00014968928)
(-0.17079572 -0.038682242 0.00010859224)
(-0.16661244 -0.051903615 6.3736287e-05)
(-0.1603655 -0.06427038 1.7054763e-05)
(-0.15206156 -0.075324613 -2.9120068e-05)
(-0.14177939 -0.084597525 -7.2184006e-05)
(-0.12968349 -0.09163604 -0.00010944113)
(-0.11603436 -0.096035941 -0.00013832724)
(-0.10119274 -0.097479895 -0.00015665662)
(-0.085615078 -0.095777111 -0.00016286191)
(-0.069838047 -0.090899841 -0.00015619081)
(-0.054451425 -0.083010929 -0.00013681783)
(-0.040061188 -0.072476742 -0.00010582345)
(-0.027246487 -0.059861711 -6.5080153e-05)
(-0.016507703 -0.045903617 -1.7338742e-05)
(-0.0082137699 -0.031469868 3.4088942e-05)
(-0.0026743202 -0.017501842 8.985481e-05)
(-0.00031729607 -0.0049938545 0.00014357051)
(-0.00052868111 0.011264648 2.8499698e-06)
(-0.0033477397 0.030871107 6.8643346e-05)
(-0.0090880535 0.047474056 0.00011194133)
(-0.016801586 0.06116415 0.00014324031)
(-0.025956889 0.072128403 0.00016930661)
(-0.036204182 0.080594917 0.00019160358)
(-0.047236295 0.086799868 0.00021148026)
(-0.058794244 0.090963773 0.00023019707)
(-0.070664656 0.093275772 0.00024856878)
(-0.082667721 0.093885674 0.00026699521)
(-0.094646996 0.09290253 0.00028552504)
(-0.10646127 0.090398326 0.00030389735)
(-0.11797782 0.086415382 0.00032158297)
(-0.1290669 0.080976108 0.0003378291)
(-0.13959748 0.074093916 0.00035170712)
(-0.14943402 0.065784413 0.00036216606)
(-0.15843404 0.056076244 0.00036809368)
(-0.16644671 0.045021277 0.0003683872)
(-0.17331224 0.03270401 0.00036203396)
(-0.17886254 0.019250187 0.00034820083)
(-0.18292318 0.0048345349 0.00032633032)
(-0.18531738 -0.010312573 0.00029624207)
(-0.18587199 -0.025899809 0.0002582178)
(-0.18442619 -0.041572073 0.00021308577)
(-0.18084316 -0.056910848 0.00016226769)
(-0.17502466 -0.071439347 0.00010778749)
(-0.16692827 -0.084633989 5.2223813e-05)
(-0.15658626 -0.095943795 -1.4051923e-06)
(-0.14412461 -0.10481883 -4.9829732e-05)
(-0.12977949 -0.11074796 -8.9783523e-05)
(-0.11390801 -0.11330452 -0.00011830788)
(-0.096989369 -0.11219671 -0.0001330721)
(-0.079612824 -0.10731675 -0.00013266503)
(-0.062450282 -0.098781332 -0.00011679891)
(-0.046214682 -0.086954994 -8.6352405e-05)
(-0.031607748 -0.072449907 -4.3283275e-05)
(-0.019254153 -0.056099261 9.2538181e-06)
(-0.0096331373 -0.038903927 6.7306498e-05)
(-0.0031578286 -0.021961653 0.00013153424)
(-0.00038078487 -0.006435592 0.00019255913)
(-0.00054759944 0.013033168 5.8441064e-05)
(-0.0034658586 0.035479375 0.00013066021)
(-0.0094063981 0.054322973 0.00017554528)
(-0.017386396 0.069745292 0.00020821917)
(-0.026854435 0.082015897 0.00023581812)
(-0.037448153 0.091436759 0.00025996274)
(-0.048850775 0.098307154 0.00028212454)
(-0.060797325 0.10289913 0.00030365291)
(-0.07307218 0.10544208 0.00032540955)
(-0.085496593 0.10611562 0.00034780476)
(-0.097917949 0.10504936 0.00037086655)
(-0.110201 0.10232799 0.0003942846)
(-0.12222042 0.098000035 0.00041745185)
(-0.13385451 0.092088792 0.00043950743)
(-0.14498015 0.084604374 0.00045938189)
(-0.15546858 0.075555809 0.0004758475)
(-0.16518214 0.064962754 0.00048757716)
(-0.17397175 0.052866569 0.00049321453)
(-0.18167531 0.039340761 0.00049145746)
(-0.18811717 0.024500895 0.00048115485)
(-0.19310912 0.0085140114 0.00046141598)
(-0.19645328 -0.0083925663 0.00043172952)
(-0.19794729 -0.02592337 0.00039208091)
(-0.19739265 -0.043708871 0.00034306544)
(-0.1946065 -0.061302522 0.00028597679)
(-0.18943731 -0.078182565 0.00022285677)
(-0.18178454 -0.093760677 0.0001564856)
(-0.17162149 -0.10739972 9.0293081e-05)
(-0.15902009 -0.11844268 2.8176193e-05)
(-0.14417482 -0.12625405 -2.5780549e-05)
(-0.12742191 -0.13027328 -6.766884e-05)
(-0.10924881 -0.1300771 -9.417125e-05)
(-0.09028855 -0.12544458 -0.00010297343)
(-0.071294713 -0.11641496 -9.3095173e-05)
(-0.053096437 -0.10332684 -6.5034829e-05)
(-0.036536437 -0.086827872 -2.0739233e-05)
(-0.022388442 -0.067848916 3.6225394e-05)
(-0.011268762 -0.047540429 0.00010116946)
(-0.0037218426 -0.027182721 0.00017474037)
(-0.0004569112 -0.008139381 0.00024443521)
(-0.00055984459 0.014853262 0.00012671893)
(-0.0035453381 0.040221777 0.0002056183)
(-0.0096248095 0.061370781 0.00025172184)
(-0.017792804 0.078574532 0.00028560538)
(-0.027484128 0.092187647 0.00031469989)
(-0.03832716 0.10258896 0.00034077184)
(-0.049997929 0.11014418 0.00036540708)
(-0.062227203 0.11518037 0.00039003777)
(-0.07479841 0.11797049 0.00041557124)
(-0.087535023 0.11872695 0.00044243073)
(-0.10028947 0.11760247 0.0004706284)
(-0.11293389 0.11469633 0.00049981056)
(-0.12535206 0.11006442 0.00052929802)
(-0.13743243 0.10373139 0.00055812584)
(-0.14906227 0.095703602 0.00058508383)
(-0.16012262 0.08598217 0.0006087618)
(-0.17048407 0.074575417 0.00062760396)
(-0.18000324 0.061510787 0.00063997621)
(-0.18852004 0.046846253 0.00064424991)
(-0.19585597 0.030681471 0.0006389039)
(-0.20181373 0.013168869 0.00062264532)
(-0.20617875 -0.0054753428 0.00059454738)
(-0.20872309 -0.024960522 0.00055419757)
(-0.20921262 -0.044912161 0.00050184675)
(-0.20741815 -0.064864857 0.00043854572)
(-0.20313139 -0.084259653 0.00036624731)
(-0.19618606 -0.10244829 0.00028784979)
(-0.18648429 -0.11870744 0.00020715316)
(-0.17402712 -0.13226603 0.0001287018)
(-0.15894668 -0.14234853 5.7496373e-05)
(-0.14153585 -0.14823509 -1.4235138e-06)
(-0.12226912 -0.14933666 -4.3497366e-05)
(-0.1018073 -0.14527869 -6.5203567e-05)
(-0.080978726 -0.13598182 -6.4560525e-05)
(-0.060733905 -0.12172372 -4.1423535e-05)
(-0.042074314 -0.1031659 2.4398164e-06)
(-0.025950478 -0.081333242 6.3086591e-05)
(-0.013148242 -0.057540537 0.00013499971)
(-0.0043785972 -0.033279403 0.00021879199)
(-0.00054808315 -0.010149841 0.00029873513)
(-0.00056512257 0.016704136 0.00020795444)
(-0.0035848218 0.045047815 0.00029379339)
(-0.0097399827 0.068546104 0.00034073946)
(-0.018014597 0.087565906 0.00037565877)
(-0.027835516 0.10254743 0.00040619571)
(-0.038824728 0.1139479 0.00043424988)
(-0.050653065 0.12220188 0.00046151444)
(-0.063048417 0.12769431 0.00048950072)
(-0.075794275 0.1307448 0.00051916416)
(-0.088717242 0.13160156 0.00055094787)
(-0.1016758 0.13044303 0.00058485783)
(-0.11455071 0.12738527 0.00062050788)
(-0.12723646 0.12249313 0.00065715762)
(-0.13963366 0.11579342 0.00069374725)
(-0.15164252 0.10728888 0.00072893159)
(-0.16315701 0.096971902 0.00076111808)
(-0.17405977 0.084837734 0.00078851423)
(-0.18421764 0.070897086 0.00080918957)
(-0.19347778 0.055188374 0.00082115707)
(-0.20166471 0.037789981 0.00082247735)
(-0.20857841 0.018832874 0.0008113883)
(-0.21399413 -0.0014862855 0.00078646002)
(-0.21766446 -0.022891658 0.00074677281)
(-0.2193246 -0.045015031 0.00069210462)
(-0.21870194 -0.067384155 0.00062312205)
(-0.21553095 -0.089414512 0.00054154553)
(-0.20957472 -0.11040753 0.00045026219)
(-0.20065359 -0.12955895 0.00035334924)
(-0.18868081 -0.14598189 0.00025596795)
(-0.17370326 -0.15874899 0.00016409318)
(-0.15594313 -0.16695712 8.4061064e-05)
(-0.13583341 -0.1698146 2.1949174e-05)
(-0.11403768 -0.16674579 -1.7153335e-05)
(-0.091443309 -0.15750014 -2.9865315e-05)
(-0.069120481 -0.14224565 -1.5029689e-05)
(-0.048244338 -0.1216226 2.6033996e-05)
(-0.029971802 -0.096736575 8.9109649e-05)
(-0.015296621 -0.069077571 0.00016778519)
(-0.0051401271 -0.040378989 0.00026261658)
(-0.00065685501 -0.012518069 0.00035460743)
(-0.00056338828 0.018564535 0.00030219238)
(-0.0035843181 0.0499061 0.00039524149)
(-0.0097519586 0.075776052 0.00044265493)
(-0.018051163 0.096630835 0.00047842364)
(-0.027905938 0.11299475 0.00051032043)
(-0.038934099 0.12540358 0.00054036465)
(-0.050802753 0.13436221 0.00057035176)
(-0.063237894 0.14031587 0.00060187249)
(-0.076023792 0.14363374 0.00063593761)
(-0.088990874 0.14460281 0.00067302219)
(-0.10200451 0.1434301 0.00071314087)
(-0.11495519 0.14025091 0.00075589124)
(-0.12774955 0.13514103 0.00080048773)
(-0.14030233 0.12813082 0.00084579032)
(-0.15252914 0.11922005 0.00089033047)
(-0.16434008 0.10839231 0.00093233989)