/*--------------------------------*- C++ -*----------------------------------*\
  =========                 |
  \\      /  F ield         | OpenFOAM: The Open Source CFD Toolbox
   \\    /   O peration     | Website:  https://openfoam.org
    \\  /    A nd           | Version:  7
     \\/     M anipulation  |
\*---------------------------------------------------------------------------*/
FoamFile
{
    version     2.0;
    format      ascii;
    class       volScalarField;
    location    "37";
    object      p;
}
// * * * * * * * * * * * * * * * * * * * * * * * * * * * * * * * * * * * * * //

dimensions      [0 2 -2 0 0 0 0];

internalField   nonuniform List<scalar> 
16000
(
8.4836386e-06
-0.00013186758
-0.00044337349
-0.00084573546
-0.0012639481
-0.001652621
-0.0019808809
-0.0022298852
-0.0023889962
-0.0024525115
-0.0024174928
-0.0022824819
-0.0020469064
-0.001711009
-0.0012761478
-0.000745333
-0.00012387744
0.00057995062
0.001354375
0.0021837459
0.0030484386
0.0039250912
0.004787215
0.005606215
0.0063527704
0.0069985124
0.0075178923
0.0078901085
0.0081009452
0.0081443524
0.0080235862
0.0077517826
0.0073519455
0.0068564742
0.0063061725
0.005748567
0.005238775
0.0048331675
0.0045933997
0.0045547105
0.00015302969
8.110518e-06
-0.00024197923
-0.00055086182
-0.0008730573
-0.001174258
-0.0014302212
-0.0016247655
-0.0017475274
-0.0017920643
-0.0017544386
-0.0016322885
-0.0014243588
-0.0011304163
-0.00075145103
-0.00029006767
0.0002490244
0.00085851194
0.0015280572
0.002244026
0.0029894224
0.003744224
0.0044857236
0.005189558
0.0058308665
0.0063857534
0.0068329093
0.0071552474
0.0073414262
0.0073871342
0.0072960166
0.0070801112
0.0067596935
0.006362554
0.0059228439
0.0054794742
0.0050735903
0.0047487284
0.0045502002
0.004514952
0.00047167698
0.00025379412
-2.0435502e-06
-0.00028109344
-0.00056133873
-0.00081827504
-0.0010341168
-0.001196808
-0.0012981405
-0.0013325913
-0.0012964413
-0.0011871604
-0.0010031095
-0.00074353417
-0.00040878052
-6.6369587e-07
0.00047708223
0.0010183422
0.0016142205
0.0022527799
0.002919015
0.0035949786
0.0042603189
0.0048930408
0.005470593
0.0059712271
0.0063755322
0.0066679962
0.0068384263
0.006883088
0.0068054706
0.0066166112
0.0063348857
0.005985193
0.0055975774
0.0052054226
0.0048431871
0.0045450731
0.0043475738
0.0042803685
0.0008932913
0.00056203363
0.00026134225
-2.4444322e-05
-0.00029504966
-0.00053419921
-0.00073032821
-0.00087622584
-0.00096682234
-0.00099842053
-0.00096820477
-0.00087388824
-0.00071360004
-0.00048600267
-0.00019058936
0.00017189661
0.00059897808
0.0010859507
0.0016254416
0.0022070986
0.0028174836
0.0034401443
0.0040561253
0.0046446524
0.0051841701
0.005653648
0.0060340901
0.0063101231
0.0064714729
0.0065141252
0.0064410238
0.0062622583
0.0059947422
0.0056613526
0.0052894811
0.0049091005
0.0045508073
0.0042443677
0.0040163252
0.0038807182
0.0013440889
0.00088442096
0.00052126899
0.00021095581
-6.6754678e-05
-0.00030281604
-0.00049154888
-0.00063069151
-0.00071859047
-0.00075368178
-0.00073430155
-0.0006585469
-0.00052433392
-0.00032965148
-7.2966825e-05
0.00024626448
0.00062703651
0.0010662288
0.0015580916
0.0020938433
0.0026614559
0.003245688
0.0038284539
0.0043895154
0.0049075074
0.0053612444
0.0057312384
0.0060013284
0.0061602578
0.0062029741
0.0061314144
0.0059546444
0.0056883726
0.0053539397
0.0049768025
0.0045846285
0.004205771
0.003867302
0.003584598
0.0033609356
0.0017709376
0.0011778078
0.00074314646
0.00039710162
0.0001005414
-0.00014375111
-0.00033546487
-0.00047704914
-0.00057019499
-0.00061548046
-0.00061241707
-0.0005594792
-0.00045431073
-0.00029411105
-7.61574e-05
0.00020157439
0.00053973756
0.00093694357
0.0013891447
0.0018891267
0.002426178
0.0029860233
0.0035510709
0.0041010686
0.0046141324
0.0050681132
0.0054421927
0.0057185906
0.005884243
0.0059322612
0.005862921
0.0056839387
0.0054099442
0.0050612676
0.0046622058
0.0042391218
0.0038195666
0.0034301026
0.0030775816
0.0027502696
0.0021286319
0.0014036533
0.00089406468
0.00050583527
0.00018256842
-7.8409473e-05
-0.00028161581
-0.00043382855
-0.00053982795
-0.00060215868
-0.00062137229
-0.00059619555
-0.00052386631
-0.00040064323
-0.00022244244
1.4428079e-05
0.00031247309
0.00067220646
0.0010914004
0.0015644496
0.0020819179
0.0026303583
0.0031924314
0.0037474848
0.0042725512
0.0047437782
0.0051381667
0.005435447
0.0056199133
0.0056820421
0.005619694
0.0054386493
0.0051522623
0.0047801986
0.0043464148
0.0038770656
0.0034002432
0.0029437333
0.0025075317
0.0020659994
0.0023786054
0.0015272018
0.0009431265
0.00050994946
0.00015536503
-0.00012818746
-0.00034958063
-0.00051950145
-0.00064547997
-0.00073175029
-0.00077966897
-0.00078800663
-0.00075339887
-0.00067097094
-0.00053508444
-0.00034017986
-8.1690407e-05
0.00024301619
0.00063373158
0.0010866105
0.0015935658
0.0021419674
0.0027146165
0.0032902383
0.0038443987
0.0043509449
0.0047838762
0.0051194626
0.0053383622
0.0054274957
0.0053814795
0.005203431
0.004904935
0.0045049767
0.0040277865
0.00350044
0.0029529806
0.0024160269
0.0018846166
0.0013221063
0.0024870513
0.0015167585
0.00086102852
0.00038256505
-5.7414177e-06
-0.00031596408
-0.00056094299
-0.00075486821
-0.00090765822
-0.001024921
-0.0011085401
-0.0011570815
-0.0011663473
-0.0011301034
-0.0010409308
-0.00089117128
-0.00067395127
-0.00038425169
-1.9970501e-05
0.00041709611
0.00092045386
0.0014784554
0.0020740793
0.0026853415
0.0032860981
0.0038474446
0.0043396522
0.0047345125
0.0050078344
0.005141755
0.0051265619
0.0049618224
0.0046566814
0.0042291239
0.0037039193
0.0031100156
0.0024808695
0.0018516037
0.00121366
0.00052016873
0.0024234999
0.0013432437
0.0006202032
9.7633853e-05
-0.00032540462
-0.00066525462
-0.00093841558
-0.001162213
-0.0013486065
-0.0015042636
-0.0016313126
-0.0017278606
-0.0017886391
-0.0018058175
-0.0017699429
-0.0016709832
-0.0014994562
-0.0012476182
-0.00091067285
-0.00048794352
1.6099247e-05
0.00059121702
0.0012207981
0.0018822442
0.0025475845
0.0031848102
0.0037598258
0.0042389528
0.0045918012
0.0047941538
0.0048304305
0.0046953718
0.0043947639
0.0039450572
0.0033715271
0.0027056443
0.0019856461
0.001252922
0.00049641456
-0.00034073619
0.0021601763
0.00098002635
0.00019505274
-0.00036949864
-0.00082744468
-0.0011992243
-0.0015047493
-0.0017641607
-0.0019911484
-0.0021931538
-0.0023722888
-0.0025259651
-0.0026476218
-0.002727604
-0.0027541666
-0.0027145943
-0.002596427
-0.0023887656
-0.002083625
-0.0016772936
-0.001171608
-0.00057468739
9.7744118e-05
0.00082285955
0.0015709549
0.0023066782
0.0029909737
0.0035837085
0.0040468731
0.0043480715
0.0044638296
0.0043821756
0.0041040982
0.0036436465
0.0030263223
0.0022865034
0.0014683968
0.0006214426
-0.00026705007
-0.0012642233
0.0016718827
0.00040299056
-0.00043777152
-0.0010416063
-0.0015341871
-0.0019398982
-0.0022818527
-0.0025827315
-0.0028576938
-0.0031147177
-0.0033556836
-0.0035771077
-0.0037709436
-0.0039255093
-0.0040265242
-0.0040582722
-0.0040048978
-0.0038518211
-0.0035872383
-0.003203645
-0.0026993196
-0.0020798568
-0.0013587768
-0.00055851337
0.00028990354
0.0011477858
0.0019706281
0.0027108386
0.003321263
0.0037592867
0.0039910926
0.003995442
0.0037663119
0.0033138454
0.0026630988
0.0018515058
0.00093029359
-4.1261008e-05
-0.0010768574
-0.0022546954
0.00093621649
-0.000409202
-0.0012989996
-0.0019390719
-0.0024658088
-0.00290738
-0.0032899029
-0.0036383583
-0.0039691669
-0.0042906699
-0.0046043656
-0.0049057349
-0.005185101
-0.0054285872
-0.0056191614
-0.0057378046
-0.0057648366
-0.0056814089
-0.0054711438
-0.0051218581
-0.0046273161
-0.0039891448
-0.0032178164
-0.0023341999
-0.0013697636
-0.0003661017
0.00062663703
0.0015524902
0.0023535273
0.0029746129
0.0033687122
0.0035021033
0.003358641
0.0029421155
0.0022757456
0.0013997835
0.00037342359
-0.00073235842
-0.0019318378
-0.0033154599
-6.5999332e-05
-0.0014747117
-0.0024062969
-0.0030793451
-0.0036396719
-0.00411905
-0.0045464093
-0.0049488202
-0.0053438098
-0.0057399777
-0.0061383684
-0.0065333686
-0.0069135996
-0.0072628794
-0.0075612494
-0.0077861161
-0.0079135621
-0.0079198682
-0.007783257
-0.0074858223
-0.0070155919
-0.0063686968
-0.0055511828
-0.0045808373
-0.0034882186
-0.0023168585
-0.0011222272
3.0777907e-05
0.0010718829
0.0019308937
0.0025441937
0.0028616366
0.0028528669
0.0025117189
0.0018571023
0.00093113579
-0.00019830034
-0.0014465257
-0.0028280321
-0.0044470103
-0.0013501796
-0.0028080543
-0.0037737845
-0.0044763957
-0.0050696721
-0.0055887767
-0.0060652679
-0.0065281272
-0.0069958911
-0.0074773853
-0.0079732129
-0.0084767007
-0.0089747926
-0.0094489779
-0.0098762661
-0.010230268
-0.010482455
-0.010603663
-0.010565883
-0.010344359
-0.0099199464
-0.0092816683
-0.0084292216
-0.0073753967
-0.006147986
-0.0047908777
-0.0033638625
-0.0019407102
-0.00060521381
0.00055483406
0.0014554321
0.002025251
0.0022145057
0.0020021081
0.0013987793
0.00044643013
-0.00077817907
-0.0021745762
-0.0037570647
-0.0056452431
-0.0029274158
-0.0044196417
-0.0054115862
-0.0061402061
-0.0067656331
-0.0073261752
-0.0078558475
-0.0083854087
-0.0089343751
-0.0095118492
-0.010118095
-0.01074551
-0.011379491
-0.011999286
-0.012578874
-0.013087937
-0.013493032
-0.013759034
-0.013850923
-0.013735981
-0.013386403
-0.012782267
-0.011914723
-0.010789175
-0.0094282093
-0.0078737904
-0.0061882193
-0.0044532105
-0.0027664947
-0.0012355929
3.1163876e-05
0.00093574721
0.0014024401
0.0013886158
0.00089114452
-5.1916158e-05
-0.001355677
-0.0029019267
-0.0047042964
-0.0068994499
-0.0048039656
-0.006315401
-0.0073254712
-0.0080763619
-0.0087327984
-0.0093359566
-0.0099221589
-0.010523867
-0.01116163
-0.011844976
-0.012574034
-0.013340504
-0.014128472
-0.014915149
-0.015671611
-0.016363613
-0.016952615
-0.017397122
-0.017654419
-0.017682808
-0.01744439
-0.016908413
-0.016055107
-0.014879714
-0.013396581
-0.01164269
-0.0096800964
-0.0075964481
-0.0055027254
-0.0035274097
-0.0018067331
-0.00047134677
0.00036935031
0.00064265726
0.00032367144
-0.00055918844
-0.0019151455
-0.0036068106
-0.0056466672
-0.0081899618
-0.0069808662
-0.0084965372
-0.0095166581
-0.010285813
-0.010971487
-0.01161743
-0.012262166
-0.012939863
-0.013672263
-0.014469581
-0.015332128
-0.016251254
-0.017210071
-0.018184073
-0.019141687
-0.020044889
-0.020850031
-0.021509009
-0.021970896
-0.022184156
-0.022099532
-0.021673668
-0.020873484
-0.019681123
-0.018099188
-0.01615587
-0.013909169
-0.011449366
-0.0088985478
-0.0064059772
-0.0041383323
-0.0022645836
-0.000936435
-0.00026717268
-0.00031412964
-0.0010671801
-0.0024341447
-0.0042580895
-0.0065501031
-0.0094853083
-0.0094537478
-0.01095951
-0.011981847
-0.012764871
-0.013476984
-0.014164231
-0.014867308
-0.015622215
-0.016452175
-0.017368481
-0.018372077
-0.019454418
-0.020598099
-0.02177731
-0.022958198
-0.02409925
-0.025151872
-0.026061332
-0.026768215
-0.027210548
-0.027326707
-0.027059215
-0.026359516
-0.025193783
-0.023549177
-0.021440731
-0.018917602
-0.016067985
-0.013021166
-0.0099450683
-0.0070375892
-0.0045106234
-0.0025669259
-0.001372522
-0.0010308334
-0.0015623397
-0.0028812001
-0.0048124978
-0.0073663277
-0.010738739
-0.012212922
-0.013696296
-0.014713547
-0.015505506
-0.01623973
-0.01696434
-0.017722311
-0.018551781
-0.019477918
-0.020513646
-0.021661119
-0.022912482
-0.024250359
-0.025648148
-0.02707017
-0.02847182
-0.029799876
-0.030993173
-0.031983815
-0.032699127
-0.033064488
-0.033007162
-0.032461312
-0.031374841
-0.02971572
-0.027481297
-0.024706428
-0.021471202
-0.017906284
-0.014193732
-0.010560876
-0.0072649913
-0.0045676379
-0.0027005582
-0.0018297605
-0.0020229451
-0.0032128039
-0.005211166
-0.0080289193
-0.011883951
-0.015243811
-0.016695023
-0.017700768
-0.018495995
-0.019245851
-0.020000431
-0.020805328
-0.021701387
-0.022716435
-0.023865781
-0.025153522
-0.026573171
-0.028108012
-0.02973122
-0.031405807
-0.033084538
-0.034709982
-0.036214903
-0.037523195
-0.03855157
-0.039212226
-0.03941656
-0.039080188
-0.038131344
-0.036515237
-0.03420738
-0.031222692
-0.027626273
-0.023542602
-0.019160739
-0.014732421
-0.010559462
-0.0069675366
-0.0042665365
-0.002703631
-0.0024148966
-0.0033694094
-0.0053752532
-0.0084484672
-0.01282987
-0.018527768
-0.019941028
-0.020930158
-0.02172199
-0.022478064
-0.023250576
-0.024088422
-0.025036121
-0.02612522
-0.027374428
-0.028790686
-0.030369655
-0.032095941
-0.033943074
-0.035873272
-0.037837144
-0.039773504
-0.041609504
-0.043261276
-0.04463533
-0.045630946
-0.046143869
-0.046071487
-0.045318046
-0.043806975
-0.041487733
-0.038349917
-0.034436546
-0.029857191
-0.02479843
-0.019527834
-0.014386613
-0.0097657795
-0.0060633486
-0.0036267634
-0.002685719
-0.003270123
-0.0052004903
-0.0085066702
-0.013454376
-0.022043359
-0.023418454
-0.024387651
-0.025168045
-0.025916974
-0.026689266
-0.027538355
-0.028513964
-0.029652885
-0.030978581
-0.032501937
-0.034221618
-0.036124205
-0.038184092
-0.040363131
-0.042610172
-0.044860684
-0.047036655
-0.049046982
-0.05078858
-0.05214845
-0.053007049
-0.053243105
-0.052739761
-0.051394643
-0.049129462
-0.045904539
-0.041734394
-0.036704781
-0.030988764
-0.024857956
-0.018683024
-0.012915965
-0.0080481541
-0.0045445848
-0.0027564419
-0.0028058123
-0.0045504142
-0.0080492045
-0.013596833
-0.025768173
-0.027112457
-0.028060728
-0.028819644
-0.029542749
-0.03028872
-0.031117599
-0.032086646
-0.033240047
-0.034607767
-0.036205951
-0.038037168
-0.040090555
-0.042341725
-0.044752402
-0.047269883
-0.049826533
-0.052339519
-0.054710983
-0.056828894
-0.058568814
-0.059796869
-0.060374155
-0.060162841
-0.059035654
-0.056885361
-0.053640464
-0.049282071
-0.043864141
-0.037534943
-0.030556209
-0.023313678
-0.01630956
-0.010126877
-0.0053605799
-0.0025111907
-0.0018304001
-0.003248078
-0.0068771602
-0.013049316
-0.02968131
-0.031012251
-0.031941412
-0.032665781
-0.033337126
-0.034020354
-0.034785441
-0.035700624
-0.03682041
-0.038183479
-0.039812724
-0.041715501
-0.043883913
-0.046294896
-0.048909974
-0.051674782
-0.054518541
-0.057353688
-0.060075907
-0.062564759
-0.064685183
-0.066290088
-0.067224327
-0.067330377
-0.066457104
-0.06446919
-0.061262549
-0.056782067
-0.051043981
-0.04416177
-0.036372964
-0.028060942
-0.019761193
-0.012138265
-0.0059214179
-0.0017845839
-0.00015018215
-0.0010660062
-0.0047367787
-0.011546308
-0.03376681
-0.035115276
-0.03603024
-0.036702148
-0.037285691
-0.037856288
-0.038499009
-0.03929798
-0.040321897
-0.041620814
-0.043225948
-0.045150156
-0.047388612
-0.049919285
-0.05270301
-0.055683221
-0.058785534
-0.061917391
-0.064967992
-0.067808766
-0.070294652
-0.072266353
-0.073553952
-0.073982207
-0.073376899
-0.071577457
-0.068448055
-0.06389687
-0.057899293
-0.050526759
-0.041979938
-0.03262165
-0.022999232
-0.013840143
-0.0060017881
-0.00034748709
0.0024888701
0.0022858964
-0.0013070627
-0.0087525279
-0.038018524
-0.039433098
-0.04034158
-0.040935061
-0.041380336
-0.041770674
-0.042213999
-0.042817085
-0.043667685
-0.04483021
-0.046345652
-0.048232692
-0.05048915
-0.053093176
-0.056003871
-0.059161402
-0.062486831
-0.065881867
-0.069228787
-0.072390771
-0.075213046
-0.077524809
-0.079142434
-0.079874192
-0.079526609
-0.077914562
-0.074873243
-0.070275895
-0.064056932
-0.056242138
-0.046986218
-0.036615192
-0.025665196
-0.014901242
-0.0052913417
0.0021077542
0.0064156337
0.007174877
0.0038155005
-0.0042480818
-0.042447451
-0.044000023
-0.04491095
-0.045386317
-0.045621802
-0.045740648
-0.045884895
-0.046192861
-0.046777063
-0.047719233
-0.049071073
-0.050856658
-0.053075225
-0.055703477
-0.058697044
-0.061991148
-0.06550081
-0.069120772
-0.072725505
-0.07616936
-0.079287702
-0.081898473
-0.083805053
-0.084800507
-0.084673592
-0.083217407
-0.080240986
-0.075585642
-0.069147125
-0.06090567
-0.050965537
-0.039604066
-0.027325019
-0.014902264
-0.0033869783
0.0059806722
0.012049772
0.014062939
0.011136491
0.0024907684
-0.047093517
-0.048886226
-0.049805357
-0.050099287
-0.050022207
-0.049746674
-0.049464522
-0.049356575
-0.049566124
-0.050194457
-0.051303751
-0.052921806
-0.055046877
-0.057651591
-0.060685569
-0.064076743
-0.067732058
-0.071537572
-0.075358957
-0.079040216
-0.082406558
-0.08526437
-0.087404139
-0.088604336
-0.088637116
-0.087275487
-0.084305018
-0.079538415
-0.072836371
-0.06413643
-0.053492366
-0.041126547
-0.027494065
-0.013349855
0.00020544591
0.011771655
0.019918157
0.02352849
0.021289927
0.012118882
-0.05204572
-0.054218549
-0.055138281
-0.055146648
-0.054607405
-0.053772071
-0.052902815
-0.052235229
-0.051948429
-0.052163562
-0.052950933
-0.054338486
-0.056319529
-0.058858764
-0.061896579
-0.065350304
-0.069116468
-0.073070224
-0.07706834
-0.080940608
-0.084502652
-0.087548418
-0.089854983
-0.091186067
-0.091298229
-0.089944061
-0.086887653
-0.081915779
-0.07485742
-0.065611247
-0.054183321
-0.040739706
-0.025676684
-0.009706891
0.0060548914
0.020081864
0.030669691
0.036293345
0.035075914
0.025465281
-0.057478393
-0.060214396
-0.061091629
-0.060640029
-0.059418767
-0.05780133
-0.056144707
-0.054750607
-0.053835775
-0.053537735
-0.053929199
-0.055032009
-0.056828618
-0.059270504
-0.062285528
-0.065775357
-0.069624529
-0.073695332
-0.07782999
-0.081849128
-0.085553843
-0.088725121
-0.091126138
-0.09250534
-0.092601304
-0.091148879
-0.087889686
-0.082584962
-0.075033828
-0.065098741
-0.052740835
-0.038070787
-0.021420518
-0.0034424368
0.014768144
0.031596982
0.045084215
0.0532561
0.05351647
0.043607241
-0.063719224
-0.067237975
-0.067947592
-0.066741249
-0.064513238
-0.061816305
-0.059126562
-0.056817653
-0.05513875
-0.054233959
-0.054167791
-0.054946386
-0.056533366
-0.058860847
-0.061836732
-0.065347239
-0.069259585
-0.073421272
-0.077660106
-0.081783597
-0.085578848
-0.088812851
-0.091233912
-0.092574237
-0.092554183
-0.090888515
-0.087295523
-0.081509882
-0.073299693
-0.0624904
-0.048997948
-0.032876144
-0.014386723
0.0058945429
0.026924124
0.047044535
0.064067258
0.075530949
0.077939156
0.068005047
-0.071381397
-0.0758941
-0.076132977
-0.073672835
-0.069958728
-0.065787895
-0.061769315
-0.058340576
-0.055765554
-0.05417563
-0.053610093
-0.05404599
-0.055417197
-0.057629291
-0.0605658
-0.064092082
-0.068056472
-0.072289857
-0.076604763
-0.080794233
-0.084631125
-0.087867913
-0.090237459
-0.091455035
-0.091221955
-0.08923119
-0.085175504
-0.078760119
-0.069717882
-0.057831824
-0.042965747
-0.025108307
-0.0044393353
0.018569929
0.042964636
0.067104819
0.088610583
0.10448308
0.11010464
0.10076052
-0.081632015
-0.087182237
-0.086270766
-0.081716815
-0.075815127
-0.069655281
-0.063961693
-0.059200983
-0.055614057
-0.053287227
-0.052209883
-0.052311378
-0.053484658
-0.055599936
-0.058511535
-0.062060522
-0.066074778
-0.070367616
-0.07473593
-0.078958303
-0.082793565
-0.085979922
-0.088235033
-0.089257292
-0.088728689
-0.086319365
-0.081694174
-0.074525162
-0.064503295
-0.051359134
-0.034889828
-0.014997976
0.0082485226
0.034515203
0.063013344
0.092225858
0.11965985
0.14172244
0.15240439
0.14512461
-0.096760368
-0.10273868
-0.099198457
-0.091155773
-0.082063029
-0.073261981
-0.065508333
-0.059217515
-0.0545407
-0.05146991
-0.049910708
-0.049723507
-0.050746345
-0.052806514
-0.055725015
-0.059316804
-0.063388874
-0.067737338
-0.072144323
-0.076375112
-0.080175831
-0.083271836
-0.085367008
-0.086144173
-0.085267081
-0.082383272
-0.077128744
-0.069139023
-0.058056089
-0.043545196
-0.025315639
-0.0031511636
0.023041154
0.053141582
0.086633646
0.1222833
0.15778114
0.18895195
0.20809817
0.206328
-0.12133992
-0.12518756
-0.11587333
-0.10208144
-0.088417557
-0.076198529
-0.066005989
-0.058052461
-0.052291552
-0.048550482
-0.046608641
-0.046233278
-0.047195061
-0.049272985
-0.052253306
-0.055925608
-0.060077835
-0.06449125
-0.068935802
-0.073166162
-0.076918532
-0.079908282
-0.081828447
-0.082349245
-0.081119179
-0.077764878
-0.071896287
-0.063110732
-0.050996546
-0.035142132
-0.015145717
0.00936926
0.038725705
0.073129979
0.11252008
0.15626289
0.20263118
0.24752344
0.28130124
0.29235684
-0.16445736
-0.1584331
-0.13714859
-0.11415767
-0.094107525
-0.077631423
-0.064738099
-0.055162016
-0.048490144
-0.044291811
-0.042173131
-0.041787716
-0.04283277
-0.045040025
-0.048165128
-0.051977459
-0.056251192
-0.060757745
-0.065259566
-0.069505115
-0.073224952
-0.076128746
-0.077903184
-0.078210937
-0.076690923
-0.072948182
-0.066578086
-0.05714099
-0.04417269
-0.027180674
-0.0056363345
0.021035024
0.053464365
0.092331873
0.13829652
0.19182717
0.25266828
0.31751169
0.37626884
0.41537102
-0.24629423
-0.20631828
-0.16213057
-0.12552921
-0.097143978
-0.075878495
-0.060487878
-0.049752673
-0.042660584
-0.038436552
-0.036490694
-0.036365745
-0.03769772
-0.040185534
-0.04356764
-0.047604626
-0.052066323
-0.056722118
-0.061333567
-0.06564872
-0.069397752
-0.072289688
-0.074010059
-0.074220279
-0.072558947
-0.068605967
-0.061962066
-0.052156241
-0.038683244
-0.020981429
0.0015959499
0.029825537
0.06468673
0.10746527
0.15987152
0.2241783
0.30290596
0.3955327
0.49624392
0.60321281
-0.42543899
-0.26573037
-0.17722159
-0.12463621
-0.089116834
-0.065102965
-0.049324174
-0.039185652
-0.032984047
-0.029674442
-0.028571088
-0.029187139
-0.031157216
-0.034190297
-0.038038015
-0.042473737
-0.047278579
-0.052231609
-0.057102666
-0.06164697
-0.065601013
-0.068679391
-0.070572071
-0.070940954
-0.069408242
-0.065630114
-0.059132663
-0.04945311
-0.036075022
-0.01840344
0.0042716604
0.032847633
0.068543115
0.11314258
0.16943718
0.24201775
0.33806664
0.46591639
0.64305521
0.92086279
-0.79331295
-0.32444218
-0.14899743
-0.087725387
-0.055345788
-0.035999485
-0.025091519
-0.019200971
-0.016355503
-0.015619083
-0.016494322
-0.018654141
-0.021853264
-0.025888635
-0.030575653
-0.035734051
-0.041179271
-0.04671652
-0.052136229
-0.057210416
-0.06168974
-0.065301136
-0.06774614
-0.068701171
-0.067824766
-0.064708204
-0.058942016
-0.050072665
-0.037593589
-0.020927338
0.00061053432
0.027881251
0.062058968
0.10491359
0.15945156
0.23152823
0.3338517
0.49409246
0.79001661
1.3837786
1.1943966e-05
-0.00013091918
-0.00044311159
-0.00084567002
-0.0012640738
-0.0016528755
-0.0019812194
-0.0022302836
-0.0023894383
-0.0024529829
-0.0024179801
-0.0022829734
-0.0020473919
-0.001711479
-0.0012765924
-0.00074574074
-0.00012423556
0.00057965597
0.001354156
0.0021836112
0.0030483934
0.0039251403
0.0047873646
0.0056064699
0.0063531278
0.0069989561
0.0075183965
0.0078906491
0.0081015084
0.0081449284
0.0080241513
0.0077522899
0.0073523437
0.0068567399
0.0063063258
0.00574865
0.0052387632
0.0048329779
0.0045929916
0.0045544973
0.00015388137
8.6126687e-06
-0.00024154146
-0.00055039899
-0.0008725563
-0.0011737055
-0.0014296192
-0.0016241269
-0.0017468691
-0.001791403
-0.0017537887
-0.0016316624
-0.0014237686
-0.0011298745
-0.00075097085
-0.00028966288
0.00024934047
0.0008587291
0.0015281684
0.002244026
0.0029893049
0.0037439804
0.0044853517
0.0051890664
0.0058302752
0.006385085
0.0068321789
0.0071544628
0.007340602
0.007386308
0.0072952423
0.0070794287
0.006759104
0.0063620355
0.0059223988
0.0054791546
0.0050734633
0.0047487091
0.0045501157
0.0045150223
0.00047214957
0.00025405378
-1.7386676e-06
-0.00028083706
-0.0005611511
-0.00081812646
-0.0010339935
-0.0011967041
-0.0012980521
-0.0013325176
-0.0012963831
-0.0011871178
-0.0010030821
-0.00074352077
-0.00040878001
-6.7592046e-07
0.00047705543
0.0010182991
0.0016141623
0.002252712
0.0029189437
0.0035949056
0.0042602397
0.0048929492
0.005470491
0.0059711281
0.0063754506
0.006667931
0.0068383566
0.0068829928
0.0068053563
0.0066165119
0.0063348248
0.0059851444
0.0055974831
0.0052052626
0.0048430227
0.0045449539
0.0043474409
0.0042803545
0.00089377203
0.00056208657
0.00026158229
-2.4225934e-05
-0.00029492051
-0.0005341165
-0.00073027772
-0.00087620377
-0.00096682217
-0.00099843725
-0.00096823616
-0.00087393317
-0.00071365735
-0.00048607051
-0.00019066442
0.00017181873
0.00059890043
0.0010858735
0.0016253637
0.0022070217
0.0028174143
0.0034400923
0.0040560951
0.0046446379
0.0051841598
0.005653638
0.006034092
0.0063101534
0.0064715297
0.0065141787
0.0064410392
0.0062622337
0.0059947149
0.0056613528
0.0052894828
0.0049090391
0.0045506584
0.0042441898
0.0040161777
0.0038806006
0.0013446251
0.00088426772
0.00052147882
0.00021120297
-6.6588482e-05
-0.00030267338
-0.00049141813
-0.00063057837
-0.00071849422
-0.00075359982
-0.00073423281
-0.00065849152
-0.00052429288
-0.00032962646
-7.2958907e-05
0.0002462567
0.00062701652
0.0010661991
0.0015580507
0.002093787
0.0026613823
0.0032456032
0.0038283694
0.0043894388
0.0049074337
0.0053611591
0.0057311345
0.00600122
0.0061601709
0.0062029167
0.0061313587
0.0059545509
0.0056882379
0.0053538092
0.0049767184
0.0045845653
0.0042056527
0.0038671526
0.0035845656
0.0033607208
0.0017715652
0.0011774679
0.00074332428
0.00039735281
0.00010069827
-0.00014361235
-0.00033532871
-0.00047692543
-0.00057008635
-0.00061538624
-0.00061233665
-0.00055941206
-0.00045425654
-0.00029407078
-7.6133716e-05
0.00020157914
0.00053972435
0.00093691689
0.0013891087
0.0018890805
0.002426116
0.002985941
0.0035509732
0.0041009696
0.0046140446
0.005068033
0.0054421014
0.0057184746
0.0058841149
0.0059321535
0.0058628495
0.005683876
0.005409844
0.0050611235
0.0046620674
0.0042390217
0.0038194494
0.0034299848
0.003077639
0.0027499529
0.002129361
0.0014031466
0.00089421711
0.00050608988
0.0001827106
-7.8285941e-05
-0.0002814908
-0.00043371287
-0.00053972486
-0.00060206879
-0.00062129644
-0.00059613404
-0.00052381819
-0.00040060706
-0.00022241862
1.4436325e-05
0.00031246231
0.00067217717
0.0010913582
0.0015644012
0.0020818643
0.0026302924
0.0031923455
0.0037473818
0.0042724475
0.0047436914
0.0051380958
0.0054353691
0.0056198068
0.0056819161
0.005619585
0.0054385787
0.0051522026
0.0047801032
0.0043462832
0.0038769329
0.0034000901
0.0029436252
0.0025076976
0.00206561
0.0023794379
0.0015265462
0.0009432608
0.0005102134
0.00015550164
-0.00012806876
-0.00034945731
-0.0005193857
-0.00064537432
-0.00073165501
-0.00077958575
-0.0007879376
-0.00075334511
-0.00067093124
-0.00053505639
-0.00034016325
-8.1688965e-05
0.0002429975
0.00063369202
0.0010865564
0.0015935065
0.0021419062
0.002714546
0.0032901471
0.0038442863
0.0043508293
0.0047837805
0.0051193896
0.0053382866
0.0054273896
0.0053813486
0.0052033132
0.0049048528
0.0045049051
0.0040276901
0.0035003083
0.0029527892
0.0024159088
0.0018848886
0.0013216336
0.0024879854
0.0015159708
0.00086115036
0.00038283986
-5.607573e-06
-0.00031584596
-0.00056081673
-0.00075474896
-0.00090754852
-0.00102482
-0.0011084485
-0.0011570015
-0.0011662819
-0.0011300547
-0.0010408974
-0.00089114981
-0.00067394059
-0.00038425569
-1.9995845e-05
0.00041704688
0.00092038748
0.0014783833
0.0020740086
0.0026852652
0.0032860013
0.0038473229
0.0043395237
0.0047344047
0.0050077542
0.0051416768
0.0051264544
0.0049616891
0.004656558
0.0042290316
0.0037038416
0.0031099069
0.0024806609
0.0018514727
0.0012140294
0.00051960325
0.0024245303
0.0013423394
0.00062031849
9.7921132e-05
-0.00032527299
-0.00066513668
-0.00093828487
-0.001162088
-0.0013484911
-0.0015041572
-0.0016312149
-0.0017277719
-0.0017885615
-0.0018057552
-0.0017698988
-0.0016709562
-0.0014994421
-0.0012476143
-0.0009106827
-0.00048797503
1.6041902e-05
0.00059113766
0.001220712
0.0018821625
0.0025475018
0.0031847092
0.003759698
0.004238815
0.0045916832
0.0047940658
0.0048303475
0.0046952626
0.0043946312
0.0039449346
0.003371438
0.0027055488
0.0019854339
0.001252791
0.00049688849
-0.00034140505
0.0021612953
0.00097901861
0.00019516638
-0.0003691958
-0.0008273128
-0.001199106
-0.0015046139
-0.0017640284
-0.0019910245
-0.0021930388
-0.0023721837
-0.0025258694
-0.0026475347
-0.0027275276
-0.0027541059
-0.0027145536
-0.0025964058
-0.0023887589
-0.0020836284
-0.0016773088
-0.0011716427
-0.00057475378
9.7651929e-05
0.00082275875
0.0015708604
0.0023065872
0.0029908678
0.0035835763
0.0040467295
0.0043479467
0.0044637342
0.004382086
0.004103986
0.0036435185
0.0030262154
0.0022864008
0.0014681724
0.00062131863
-0.00026645383
-0.0012650064
0.0016730818
0.00040189172
-0.00043765731
-0.0010412858
-0.001534051
-0.0019397772
-0.0022817125
-0.0025825922
-0.0028575604
-0.0031145913
-0.003355567
-0.0035770023
-0.0037708482
-0.0039254225
-0.0040264477
-0.0040582116
-0.004004859
-0.0038518049
-0.0035872391
-0.0032036566
-0.0026993437
-0.0020799005
-0.0013588516
-0.00055861719
0.00028978835
0.0011476775
0.0019705269
0.0027107266
0.0033211276
0.0037591411
0.0039909649
0.0039953407
0.0037662144
0.0033137335
0.0026629923
0.0018513923
0.00093004154
-4.1383157e-05
-0.00107612
-0.0022556051
0.00093748767
-0.00041037781
-0.0012988843
-0.0019387344
-0.0024656655
-0.0029072527
-0.0032897557
-0.0036382119
-0.003969025
-0.0042905321
-0.0046042348
-0.0049056149
-0.0051849937
-0.005428491
-0.0056190739
-0.005737727
-0.0057647751
-0.0056813709
-0.0054711318
-0.0051218668
-0.0046273383
-0.0039891755
-0.0032178666
-0.0023342824
-0.0013698779
-0.00036622988
0.00062651544
0.0015523781
0.0023534086
0.0029744758
0.0033685686
0.0035019763
0.0033585341
0.0029420147
0.0022756545
0.0013996714
0.00037313857
-0.00073248673
-0.001930942
-0.0033165155
-6.4665873e-05
-0.0014759479
-0.0024061792
-0.0030789929
-0.0036395209
-0.004118914
-0.0045462523
-0.0049486644
-0.0053436592
-0.0057398302
-0.0061382248
-0.0065332322
-0.006913475
-0.0072627689
-0.0075611516
-0.0077860277
-0.0079134833
-0.0079198054
-0.0077832193
-0.0074858142
-0.0070156085
-0.0063687266
-0.0055512226
-0.0045808963
-0.0034883098
-0.0023169825
-0.0011223666
3.0644485e-05
0.0010717603
0.0019307691
0.0025440577
0.002861499
0.002852742
0.0025116125
0.0018570234
0.00093103415
-0.00019861518
-0.0014466614
-0.0028269563
-0.0044482386
-0.0013487965
-0.0028093333
-0.0037736614
-0.0044760304
-0.005069514
-0.0055886321
-0.0060650995
-0.0065279594
-0.0069957292
-0.0074772278
-0.007973059
-0.0084765507
-0.0089746499
-0.0094488477
-0.0098761518
-0.010230169
-0.010482367
-0.010603584
-0.01056582
-0.010344322
-0.0099199427
-0.0092816923
-0.0084292622
-0.0073754485
-0.0061480565
-0.0047909792
-0.0033639961
-0.0019408589
-0.00060535674
0.00055470333
0.0014553049
0.0020251202
0.0022143753
0.0020019923
0.0013987034
0.00044633686
-0.00077852409
-0.0021747162
-0.0037557791
-0.0056466747
-0.002925998
-0.0044209474
-0.0054114554
-0.0061398278
-0.0067654673
-0.0073260226
-0.0078556687
-0.0083852282
-0.0089341993