/*--------------------------------*- C++ -*----------------------------------*\
  =========                 |
  \\      /  F ield         | OpenFOAM: The Open Source CFD Toolbox
   \\    /   O peration     | Website:  https://openfoam.org
    \\  /    A nd           | Version:  7
     \\/     M anipulation  |
\*---------------------------------------------------------------------------*/
FoamFile
{
    version     2.0;
    format      ascii;
    class       surfaceScalarField;
    location    "37";
    object      phi;
}
// * * * * * * * * * * * * * * * * * * * * * * * * * * * * * * * * * * * * * //

dimensions      [0 3 -1 0 0 0 0];

internalField   nonuniform List<scalar> 
45600
(
2.7508418e-07
-2.8232423e-07
-8.133504e-11
4.0329152e-07
-1.281819e-07
-2.5604974e-11
1.3253734e-07
2.7076118e-07
-7.0706768e-12
-5.6232139e-07
6.9486085e-07
-1.7669183e-12
-1.6393179e-06
1.0769939e-06
3.393041e-12
-3.0276256e-06
1.3883016e-06
6.8736003e-12
-4.6524664e-06
1.6248327e-06
9.1398965e-12
-6.4450976e-06
1.7926218e-06
1.0756225e-11
-8.3454232e-06
1.9003152e-06
1.1934497e-11
-1.0301442e-05
1.956007e-06
1.2725852e-11
-1.2267401e-05
1.9659463e-06
1.3155626e-11
-1.420158e-05
1.9341662e-06
1.3268748e-11
-1.6064239e-05
1.8626444e-06
1.3109214e-11
-1.7816028e-05
1.7517757e-06
1.2691457e-11
-1.9417056e-05
1.601015e-06
1.2001669e-11
-2.0826662e-05
1.409593e-06
1.1008226e-11
-2.2003911e-05
1.1772383e-06
9.668589e-12
-2.2908773e-05
9.0485182e-07
7.9549517e-12
-2.3503871e-05
5.9509075e-07
5.9131333e-12
-2.3756704e-05
2.5282804e-07
3.6355631e-12
-2.3642142e-05
-1.1456229e-07
1.2183083e-12
-2.3145011e-05
-4.9712942e-07
-1.3254432e-12
-2.2262577e-05
-8.8243025e-07
-4.0372177e-12
-2.100662e-05
-1.2559519e-06
-6.883365e-12
-1.9404866e-05
-1.6017463e-06
-9.649286e-12
-1.750156e-05
-1.9032952e-06
-1.1978974e-11
-1.5356975e-05
-2.1445699e-06
-1.3612125e-11
-1.3045759e-05
-2.3111988e-06
-1.4595147e-11
-1.06541e-05
-2.391644e-06
-1.5205147e-11
-8.2758125e-06
-2.3782751e-06
-1.5551611e-11
-6.007566e-06
-2.2682354e-06
-1.5255985e-11
-3.9435354e-06
-2.0640161e-06
-1.3698249e-11
-2.1697894e-06
-1.7737284e-06
-1.0749352e-11
-7.5853672e-07
-1.4112388e-06
-7.1739501e-12
2.3822271e-07
-9.967567e-07
-4.1394478e-12
7.9655668e-07
-5.5834137e-07
-2.2398549e-12
9.2927186e-07
-1.3272117e-07
3.1881569e-13
7.0556869e-07
2.2370487e-07
5.1188551e-12
2.9045678e-07
4.1511835e-07
1.1016142e-11
2.9046265e-07
5.3833072e-12
1.3284715e-07
-4.1514838e-07
-2.2993679e-11
-3.0172375e-07
3.0640336e-07
-1.4563612e-11
-1.6154313e-06
1.5844817e-06
-1.2696651e-11
-3.8747298e-06
2.9541737e-06
-1.342323e-11
-7.0073579e-06
4.2096382e-06
-1.4530202e-11
-1.0879762e-05
5.2607245e-06
-1.602537e-11
-1.5335172e-05
6.080262e-06
-1.7461759e-11
-2.0216006e-05
6.673477e-06
-1.8519422e-11
-2.5374063e-05
7.0583917e-06
-1.9091669e-11
-3.0673274e-05
7.2552383e-06
-1.9180814e-11
-3.598854e-05
7.2812319e-06
-1.8850751e-11
-4.1202828e-05
7.1484713e-06
-1.8157782e-11
-4.6203972e-05
6.8638035e-06
-1.7115491e-11
-5.0882101e-05
6.4299177e-06
-1.5711875e-11
-5.5128234e-05
5.8471589e-06
-1.3926321e-11
-5.8834322e-05
5.1156898e-06
-1.1739877e-11
-6.1894807e-05
4.23773e-06
-9.1667036e-12
-6.4209612e-05
3.2196628e-06
-6.2983702e-12
-6.5688361e-05
2.0738416e-06
-3.2249423e-12
-6.6255469e-05
8.1993515e-07
-5.3964237e-16
-6.5855983e-05
-5.1405369e-07
3.4079151e-12
-6.4460808e-05
-1.8923128e-06
7.0641556e-12
-6.2072476e-05
-3.2707718e-06
1.0785271e-11
-5.8729087e-05
-4.5993532e-06
1.4256193e-11
-5.4507074e-05
-5.8237761e-06
1.7149192e-11
-4.9521904e-05
-6.8884878e-06
1.938494e-11
-4.3926397e-05
-7.7401025e-06
2.1182292e-11
-3.7906452e-05
-8.3311688e-06
2.2757801e-11
-3.1674145e-05
-8.6239711e-06
2.3902229e-11
-2.5458401e-05
-8.5940368e-06
2.396154e-11
-1.949361e-05
-8.2330459e-06
2.2457668e-11
-1.4006718e-05
-7.5509334e-06
1.9794593e-11
-9.2032886e-06
-6.5771822e-06
1.7096103e-11
-5.2529029e-06
-5.361638e-06
1.5037021e-11
-2.2739817e-06
-3.9756782e-06
1.2909151e-11
-3.1727049e-07
-2.5150505e-06
9.2683266e-12
6.5705872e-07
-1.1070626e-06
3.6832087e-12
8.036703e-07
7.7067205e-08
5.5944042e-13
4.1783266e-07
8.009287e-07
2.4494895e-12
7.0830486e-07
-1.8988816e-12
-2.7360198e-07
-1.4153388e-07
-1.2759177e-11
-1.6275077e-06
1.6603163e-06
-7.5307041e-12
-4.2894282e-06
4.2464111e-06
-8.8423511e-12
-8.2746978e-06
6.9394513e-06
-7.4355824e-12
-1.3474434e-05
9.4093807e-06
-5.4415391e-12
-1.9708733e-05
1.149503e-05
-4.3092313e-12
-2.6765758e-05
1.3137293e-05
-3.575929e-12
-3.4426621e-05
1.4334344e-05
-3.0135913e-12
-4.2478632e-05
1.5110407e-05
-2.563661e-12
-5.072045e-05
1.5497059e-05
-2.1367932e-12
-5.8962294e-05
1.5523077e-05
-1.689395e-12
-6.7023689e-05
1.5209867e-05
-1.2348929e-12
-7.4730531e-05
1.4570645e-05
-7.9637472e-13
-8.1912719e-05
1.3612104e-05
-3.8860461e-13
-8.8403148e-05
1.2337586e-05
-1.4804126e-14
-9.4038477e-05
1.0751016e-05
3.5454326e-13
-9.8661797e-05
8.8610478e-06
7.7712497e-13
-0.0001021271
6.6849601e-06
1.2501834e-12
-0.00010430523
4.2519707e-06
1.6893781e-12
-0.000105091
1.6057099e-06
1.9689376e-12
-0.00010441064
-1.1944195e-06
2.0680888e-12
-0.00010222945
-4.0735003e-06
2.1162714e-12
-9.8558517e-05
-6.9417113e-06
2.2979434e-12
-9.3460001e-05
-9.6978705e-06
2.6563551e-12
-8.7050392e-05
-1.2233387e-05
2.9576903e-12
-7.9500997e-05
-1.4437884e-05
2.8732086e-12
-7.1035282e-05
-1.6205822e-05
2.3674897e-12
-6.1922727e-05
-1.744373e-05
1.8917097e-12
-5.246915e-05
-1.8077552e-05
2.0216647e-12
-4.3003682e-05
-1.8059505e-05
2.7601859e-12
-3.3862824e-05
-1.7373899e-05
3.3140061e-12
-2.5372228e-05
-1.6041529e-05
2.8793916e-12
-1.7826884e-05
-1.4122532e-05
1.7676724e-12
-1.1470407e-05
-1.1718124e-05
1.4081072e-12
-6.4738652e-06
-8.9722226e-06
2.7359063e-12
-2.9140431e-06
-6.0748653e-06
4.6398579e-12
-7.512234e-07
-3.2698731e-06
4.7697498e-12
1.9435343e-07
-8.6850977e-07
3.4589897e-12
2.6548752e-07
7.2977504e-07
3.8536611e-12
9.7379367e-07
3.7734884e-13
-7.4585682e-07
6.043354e-07
-1.2978704e-11
-3.1796547e-06
4.094115e-06
-1.5352562e-12
-7.3461281e-06
8.4128916e-06
-6.9617394e-12
-1.3163082e-05
1.2756412e-05
-6.3337864e-12
-2.0455844e-05
1.6702147e-05
-3.7454828e-12
-2.8992659e-05
2.0031849e-05
-2.3988184e-12
-3.8513898e-05
2.2658536e-05
-1.4643044e-12
-4.8752694e-05
2.4573144e-05
-6.3999186e-13
-5.9446998e-05
2.5804712e-05
-5.0819107e-15
-7.0344847e-05
2.6394908e-05
4.8500871e-13
-8.120514e-05
2.6383369e-05
9.104185e-13
-9.1795992e-05
2.5800717e-05
1.3031289e-12
-0.00010189242
2.4667073e-05
1.6621427e-12
-0.00011127464
2.299432e-05
1.9675062e-12
-0.00011972779
2.0790734e-05
2.1768341e-12
-0.00012704362
1.806684e-05
2.2586051e-12
-0.00013302417
1.4841595e-05
2.2518717e-12
-0.00013748742
1.1148214e-05
2.2387252e-12
-0.00014027452
7.0390663e-06
2.2582605e-12
-0.00014125806
2.5892469e-06
2.2293999e-12
-0.00014035078
-2.1017004e-06
2.0099309e-12
-0.00013751438
-6.9098908e-06
1.5059664e-12
-0.00013276702
-1.1689075e-05
8.7569543e-13
-0.00012618931
-1.6275588e-05
4.2200868e-13
-0.00011792789
-2.0494808e-05
3.0053557e-13
-0.00010819591
-2.4169857e-05
2.89951e-13
-9.7269874e-05
-2.7131857e-05
-5.5030289e-14
-8.5482413e-05
-2.923119e-05
-8.7686472e-13
-7.3210952e-05
-3.0349016e-05
-1.6479946e-12
-6.0862272e-05
-3.0408187e-05
-1.5539415e-12
-4.8853458e-05
-2.9382711e-05
-4.4713035e-13
-3.7589906e-05
-2.7305072e-05
7.1366542e-13
-2.7441312e-05
-2.4271118e-05
7.9172178e-13
-1.8716688e-05
-2.0442751e-05
-6.5663181e-15
-1.1639457e-05
-1.6049465e-05
-4.8983741e-14
-6.3235752e-06
-1.1390756e-05
1.7802683e-12
-2.7515379e-06
-6.8419088e-06
4.3182513e-12
-7.571512e-07
-2.8628928e-06
5.161808e-12
-9.5281151e-09
-1.7858225e-08
4.2791826e-12
9.6426111e-07
3.1739118e-12
-1.2279734e-06
1.8323227e-06
-1.4476532e-11
-4.7881248e-06
7.6542609e-06
4.4442122e-12
-1.0521563e-05
1.4146335e-05
-6.085663e-12
-1.8214355e-05
2.0449212e-05
-7.1682862e-12
-2.7603958e-05
2.6091756e-05
-4.8200883e-12
-3.8396315e-05
3.0824211e-05
-4.1374998e-12
-5.028307e-05
3.4545295e-05
-3.7919884e-12
-6.2954794e-05
3.7244873e-05
-3.2812089e-12
-7.6109045e-05
3.8958967e-05
-2.7917022e-12
-8.9453779e-05
3.9739645e-05
-2.3768823e-12
-0.00010270748
3.9637068e-05
-1.9936853e-12
-0.00011559753
3.8690776e-05
-1.6062601e-12
-0.00012785835
3.6927886e-05
-1.1902155e-12
-0.0001392302
3.4366174e-05
-7.2552271e-13
-0.00014945975
3.1020284e-05
-2.2964956e-13
-0.00015830247
2.6909566e-05
2.256751e-13
-0.00016552724
2.2066358e-05
5.7984923e-13
-0.00017092274
1.654372e-05
8.6130065e-13
-0.00017430559
1.0421912e-05
1.1853798e-12
-0.00017552935
3.8130083e-06
1.6343203e-12
-0.00017449412
-3.1369267e-06
2.1340452e-12
-0.00017115588
-1.0248134e-05
2.4601836e-12
-0.00016553479
-1.7310158e-05
2.4509556e-12
-0.0001577219
-2.4088488e-05
2.2208942e-12
-0.00014788319
-3.0333516e-05
2.1390968e-12
-0.0001362606
-3.5792456e-05
2.4753296e-12
-0.00012316896
-4.0223491e-05
3.0144952e-12
-0.00010898872
-4.3411431e-05
3.144066e-12
-9.4153801e-05
-4.5183934e-05
2.5208342e-12
-7.9134855e-05
-4.5427139e-05
1.6643876e-12
-6.4418067e-05
-4.4099505e-05
1.6134248e-12
-5.0480371e-05
-4.1242769e-05
2.7116752e-12
-3.776214e-05
-3.6989342e-05
3.9050636e-12
-2.6638819e-05
-3.1566065e-05
3.7837006e-12
-1.7393168e-05
-2.5295118e-05
2.4406623e-12
-1.0189917e-05
-1.8594019e-05
1.832995e-12
-5.0547393e-06
-1.1977096e-05
3.4289079e-12
-1.8598326e-06
-6.0577984e-06
4.3332795e-12
-3.2222925e-07
-1.5554579e-06
9.3947559e-13
6.4202332e-07
5.7995136e-12
-1.6931724e-06
3.5255116e-06
-1.6941657e-11
-6.3714206e-06
1.2332498e-05
9.8592107e-12
-1.3671468e-05
2.1446387e-05
-5.1573427e-12
-2.3234076e-05
3.0011828e-05
-7.2848947e-12
-3.4695259e-05
3.7552944e-05
-4.5495114e-12
-4.7689835e-05
4.3818792e-05
-4.0244688e-12
-6.1857534e-05
4.8712998e-05
-3.9489332e-12
-7.6848074e-05
5.2235418e-05
-3.5877201e-12
-9.2323875e-05
5.4434772e-05
-3.1508682e-12
-0.00010796027
5.5376049e-05
-2.7328748e-12
-0.00012344397
5.5120765e-05
-2.3323095e-12
-0.00013847069
5.3717504e-05
-1.9471881e-12
-0.00015274322
5.1200418e-05
-1.5714609e-12
-0.00016597054
4.7593488e-05
-1.1680857e-12
-0.00017786874
4.2918485e-05
-6.8688929e-13
-0.00018816405
3.720488e-05
-1.3792826e-13
-0.00019659789
3.0500199e-05
3.8316424e-13
-0.00020293383
2.2879667e-05
7.7374964e-13
-0.00020696613
1.4454215e-05
1.0441962e-12
-0.00020852929
5.3761617e-06
1.3378418e-12
-0.00020750811
-4.1581033e-06
1.7973168e-12
-0.00020384767
-1.3908572e-05
2.386552e-12
-0.00019756246
-2.3595367e-05
2.835253e-12
-0.00018874396
-3.290699e-05
2.8698346e-12
-0.00017756588
-4.1511596e-05
2.54752e-12
-0.00016428625
-4.907209e-05
2.3262028e-12
-0.00014924551
-5.5264239e-05
2.6481891e-12
-0.0001328599
-5.9797038e-05
3.3653201e-12
-0.00011560967
-6.243416e-05
3.714652e-12
-9.8021758e-05
-6.3015054e-05
3.12273e-12
-8.0647225e-05
-6.1474045e-05
2.0717028e-12
-6.403418e-05
-5.7855823e-05
1.8198649e-12
-4.869745e-05
-5.2326075e-05
2.9067052e-12
-3.5086901e-05
-4.5176607e-05
4.1800711e-12
-2.355667e-05
-3.6825343e-05
4.0140169e-12
-1.4337864e-05
-2.7812828e-05
2.9017954e-12
-7.5174858e-06
-1.8797484e-05
3.3965188e-12
-3.0267232e-06
-1.0548564e-05
3.416649e-12
-6.4248886e-07
-3.9396863e-06
-1.6635871e-12
-4.7422229e-10
8.5484529e-12
-2.13294e-06
5.6584709e-06
-1.9684241e-11
-7.8910837e-06
1.8090626e-05
1.4694247e-11
-1.6717416e-05
3.0272723e-05
-4.4209993e-12
-2.8105754e-05
4.1400173e-05
-7.3843346e-12
-4.1585103e-05
5.1032297e-05
-4.1235546e-12
-5.6714148e-05
5.8947842e-05
-3.5827126e-12
-7.3078291e-05
6.5077145e-05
-3.6256027e-12
-9.0287098e-05
6.9444229e-05
-3.3549165e-12
-0.00010797133
7.2119007e-05
-2.9897257e-12
-0.00012577927
7.3183995e-05
-2.6070657e-12
-0.00014337274
7.2714238e-05
-2.1997255e-12
-0.00016042342
7.076818e-05
-1.7837939e-12
-0.00017661019
6.738719e-05
-1.3956664e-12
-0.00019161813
6.2601438e-05
-1.0490673e-12
-0.00020513951
5.643986e-05
-6.9067568e-13
-0.00021687683
4.8942207e-05
-2.3917735e-13
-0.00022654814
4.0171507e-05
3.1247088e-13
-0.00023389406
3.022559e-05
8.4932597e-13
-0.00023868649
1.924665e-05
1.2222451e-12
-0.00024073841
7.4280803e-06
1.4038662e-12
-0.00023991435
-4.9821586e-06
1.5560493e-12
-0.00023614101
-1.7681917e-05
1.9114941e-12
-0.00022941746
-3.0318917e-05
2.4901385e-12
-0.00021982414
-4.2500301e-05
2.9884517e-12
-0.00020752991
-5.3805834e-05
3.0072265e-12
-0.00019279609
-6.3805915e-05
2.517425e-12
-0.00017597669
-7.208364e-05
2.0550998e-12
-0.00015751363
-7.8260101e-05
2.2597112e-12
-0.00013792613
-8.2021668e-05
3.0894082e-12
-0.00011779373
-8.3147451e-05
3.6550475e-12
-9.7732951e-05
-8.1534816e-05
3.1613952e-12
-7.8368124e-05
-7.7220656e-05
2.0484921e-12
-6.0297865e-05
-7.0396342e-05
1.7301189e-12
-4.4059524e-05
-6.1414952e-05
2.7668732e-12
-3.0094425e-05
-5.0790437e-05
3.8171201e-12
-1.8717257e-05
-3.9189992e-05
3.8486632e-12
-1.0093048e-05
-2.7421699e-05
4.437523e-12
-4.2253094e-06
-1.6416309e-05
3.1337649e-12
-9.5848412e-07
-7.2065062e-06
-4.8105539e-12
-9.5896757e-07
1.0511862e-11
-2.5450565e-06
8.2035492e-06
-2.2474904e-11
-9.328851e-06
2.4874401e-05
1.901432e-11
-1.961537e-05
4.0559246e-05
-3.8949037e-12
-3.2756858e-05
5.4541667e-05
-7.6548019e-12
-4.8175896e-05
6.6451338e-05
-3.9622364e-12
-6.53541e-05
7.612605e-05
-3.4424826e-12
-8.3822148e-05
8.3545197e-05
-3.5764201e-12
-0.00010315063
8.8772715e-05
-3.3572545e-12
-0.00012294163
9.1910007e-05
-3.0640491e-12
-0.00014282096
9.306333e-05
-2.7631139e-12
-0.00016243134
9.2324628e-05
-2.4135088e-12
-0.00018142688
8.9763715e-05
-2.0020174e-12
-0.00019946924
8.5429561e-05
-1.5590025e-12
-0.00021622604
7.9358235e-05
-1.1514647e-12
-0.0002313713
7.1585121e-05
-8.1349977e-13
-0.00024458831
6.2159227e-05
-4.8172907e-13
-0.00025557459
5.1157781e-05
-4.1813484e-14
-0.00026404867
3.8699673e-05
5.4198642e-13
-0.00026975867
2.4956653e-05
1.1475052e-12
-0.00027249208
1.0161501e-05
1.5696814e-12
-0.00027208667
-5.3875746e-06
1.7181545e-12
-0.00026844171
-2.1326877e-05
1.7759537e-12
-0.00026152973
-3.7230893e-05
2.0460649e-12
-0.00025140738
-5.2622659e-05
2.6468173e-12
-0.00023822497
-6.6988244e-05
3.2598664e-12
-0.00022223363
-7.9797257e-05
3.3524187e-12
-0.00020378862
-9.0528645e-05
2.7776809e-12
-0.00018334761
-9.8701118e-05
2.1165511e-12
-0.0001614624
-0.00010390689
2.1914165e-12
-0.00013876327
-0.00010584659
3.0760522e-12
-0.00011593535
-0.00010436273
3.7960831e-12
-9.3687544e-05
-9.9468455e-05
3.4165311e-12
-7.2715432e-05
-9.1368458e-05
2.3823515e-12
-5.3660745e-05
-8.0469647e-05
2.0776129e-12
-3.7071084e-05
-6.7380101e-05
2.7959437e-12
-2.3363943e-05
-5.2897129e-05
3.819577e-12
-1.2799312e-05
-3.7986331e-05
5.5525382e-12
-5.4648774e-06
-2.3750748e-05
3.4267597e-12
-1.2772568e-06
-1.1394121e-05
-7.8897943e-12
-2.2362361e-06
1.2761788e-11
-2.9284832e-06
1.1132057e-05
-2.5220882e-11
-1.0673675e-05
3.261957e-05
2.2843193e-11
-2.2336179e-05
5.2221754e-05
-3.5336313e-12
-3.713598e-05
6.9341477e-05
-7.970245e-12
-5.4394115e-05
8.3709477e-05
-3.881827e-12
-7.3517632e-05
9.524957e-05
-3.4256125e-12
-9.3984302e-05
0.00010401187
-3.6620231e-12
-0.00011532796
0.00011011638
-3.4585985e-12
-0.00013712517
0.00011370722
-3.1817526e-12
-0.00015898353
0.00011492169
-2.9295048e-12
-0.00018053177
0.00011387288
-2.6568522e-12
-0.00020141214
0.00011064408
-2.3221435e-12
-0.00022127502
0.00010529245
-1.8967875e-12
-0.00023977617
9.7859389e-05
-1.414209e-12
-0.00025657637
8.8385319e-05
-9.6994469e-13
-0.00027134345
7.6926314e-05
-6.2289417e-13
-0.00028375658
6.3570908e-05
-3.0994936e-13
-0.00029351242
4.8455518e-05
1.1602652e-13
-0.00030033321
3.1777442e-05
7.3503842e-13
-0.00030397635
1.380464e-05
1.4277465e-12
-0.00030424556
-5.1183601e-06
1.9251628e-12
-0.00030100296
-2.4569478e-05
2.0891182e-12
-0.0002941825
-4.4051352e-05
2.0504191e-12
-0.00028380324
-6.3001927e-05
2.2120212e-12
-0.0002699822
-8.0809287e-05
2.8058532e-12
-0.00025294548
-9.6833976e-05
3.5268746e-12
-0.00023303599
-0.00011043814
3.7260308e-12
-0.000210716
-0.00012102111
3.1281787e-12
-0.00018656267
-0.00012806022
2.3237847e-12
-0.00016125483
-0.00013115443
2.2683727e-12
-0.00013554998
-0.00013006759
3.117813e-12
-0.00011025148
-0.00012476695
3.8660668e-12
-8.6167383e-05
-0.00011545255
3.5789838e-12
-6.4063733e-05
-0.0001025733
2.676183e-12
-4.461667e-05
-8.6827171e-05
2.2508471e-12
-2.836853e-05
-6.9145271e-05
3.1525992e-12
-1.5693151e-05
-5.0661711e-05
6.048519e-12
-6.7752197e-06
-3.2668681e-05
3.7979661e-12
-1.6070342e-06
-1.6562297e-05
-1.0715776e-11
-3.8432859e-06
1.5266837e-11
-3.2817003e-06
1.4413785e-05
-2.7821209e-11
-1.1915872e-05
4.1253715e-05
2.622589e-11
-2.4855514e-05
6.5161399e-05
-3.3436983e-12
-4.1199921e-05
8.5685893e-05
-8.3317987e-12
-6.0176312e-05
0.00010268587
-3.8175729e-12
-8.112225e-05
0.00011619551
-3.4205883e-12
-0.0001034663
0.00012635593
-3.7908348e-12
-0.00012670888
0.00013335896
-3.6259212e-12
-0.00015040464
0.00013740299
-3.3457805e-12
-0.00017414713
0.00013866418
-3.0861976e-12
-0.00019755594
0.00013728168
-2.8328755e-12
-0.00022026668
0.00013335483
-2.5721286e-12
-0.00024192388
0.00012694965
-2.2491979e-12
-0.00026217667
0.00011811218
-1.8077796e-12
-0.00028067716
0.00010688581
-1.2794518e-12
-0.00029708129
9.3330449e-05
-7.8317632e-13
-0.00031105194
7.7541563e-05
-4.1102415e-13
-0.00032226413
5.9667705e-05
-1.1376329e-13
-0.00033041219
3.9925501e-05
2.8572381e-13
-0.00033521896
1.861141e-05
9.1382327e-13
-0.00033644711
-3.8902033e-06
1.6631436e-12
-0.00033391171
-2.7104875e-05
2.3016033e-12
-0.00032749595
-5.0467121e-05
2.4963167e-12
-0.00031716686
-7.3331018e-05
2.3699595e-12
-0.00030299228
-9.4983871e-05
2.3988091e-12
-0.00028515681
-0.00011466945
2.9314009e-12
-0.00026397517
-0.00013161979
3.7076769e-12
-0.00023990061
-0.00014509567
3.9984801e-12
-0.00021352583
-0.00015443501
3.4209011e-12
-0.00018557378
-0.00015910649
2.5536264e-12
-0.00015687658
-0.0001587648
2.4092876e-12
-0.00012834163
-0.0001533019
3.1664356e-12
-0.00010090606
-0.00014288812
3.8486661e-12
-7.5482472e-05
-0.00012799689
3.5571995e-12
-5.2901146e-05
-0.0001094085
2.5854088e-12
-3.3855114e-05
-8.8191308e-05
2.7695886e-12
-1.8854784e-05
-6.5662047e-05
6.1548781e-12
-8.198262e-06
-4.3325204e-05
3.8004512e-12
-1.9611617e-06
-2.2799382e-05
-1.37451e-11
-5.8044665e-06
1.8058076e-11
-3.602303e-06
1.8016118e-05
-3.0209547e-11
-1.3044873e-05
5.0696256e-05
2.9226754e-11
-2.714929e-05
7.926582e-05
-3.2959865e-12
-4.490717e-05
0.00010344378
-8.782922e-12
-6.5461504e-05
0.00012324021
-3.8250201e-12
-8.808723e-05
0.00013882124
-3.4311738e-12
-0.0001121688
0.0001504375
-3.9243602e-12
-0.00013717742
0.00015836758
-3.8357329e-12
-0.00016264987
0.00016287546
-3.5940691e-12
-0.00018816992
0.00016418423
-3.3334246e-12
-0.00021335263
0.0001624644
-3.0479066e-12
-0.00023783202
0.00015783422
-2.7774874e-12
-0.0002612519
0.00015036953
-2.5259568e-12
-0.00028325982
0.00014012011
-2.2149054e-12
-0.00030350381
0.00012712981
-1.7601956e-12
-0.00032163165
0.00011145829
-1.1813604e-12
-0.00033729243
9.3202346e-05
-6.1402377e-13
-0.00035014036
7.2515642e-05
-1.9340559e-13
-0.00035984077
4.9625908e-05
9.7780491e-14
-0.0003660784
2.4849044e-05
4.4220267e-13
-0.00036856894
-1.3996664e-06
1.0062087e-12
-0.00036707132
-2.8602499e-05
1.9254576e-12
-0.00036140635
-5.6132097e-05
2.6737266e-12
-0.00035147456
-8.326281e-05
2.9236058e-12
-0.0003372778
-0.00010918063
2.7419898e-12
-0.00031894089
-0.00013300637
2.6395571e-12
-0.00029673173
-0.00015382895
3.0704583e-12
-0.00027107726
-0.00017075015
3.8334765e-12
-0.00024257162
-0.00018294065
4.1632952e-12
-0.00021197327
-0.00018970484
3.6200646e-12
-0.00018018759
-0.00019055048
2.7672576e-12
-0.00014823331
-0.00018525618
2.5989752e-12
-0.00011719276
-0.00017392868
3.2529746e-12
-8.8148949e-05
-0.0001570407
3.7129735e-12
-6.211538e-05
-0.00013544207
3.1022369e-12
-3.9966488e-05
-0.0001103402
2.9775904e-12
-2.2377609e-05
-8.3250934e-05
6.5102822e-12
-9.7826889e-06
-5.5920128e-05
3.595543e-12
-2.3546944e-06
-3.0227358e-05
-1.7292286e-11
-8.1591825e-06
2.1139949e-11
-3.8870504e-06
2.1903201e-05
-3.2374972e-11
-1.404866e-05
6.0857834e-05
3.1868987e-11
-2.9192053e-05
9.4409217e-05
-3.3121767e-12
-4.8215263e-05
0.000122467
-9.2944981e-12
-7.018784e-05
0.00014521279
-3.9478313e-12
-9.4330056e-05
0.00016296346
-3.5105544e-12
-0.00011998821
0.00017609566
-4.0665689e-12
-0.00014660907
0.00018498845
-4.0389558e-12
-0.00017371587
0.00018998226
-3.8689289e-12
-0.00020088684
0.00019135521
-3.6668583e-12
-0.00022773707
0.00018931463
-3.383787e-12
-0.00025390379
0.00018400094
-3.0577828e-12
-0.00027903518
0.00017550092
-2.766086e-12
-0.0003027823
0.00016386723
-2.5180703e-12
-0.00032479395
0.00014914146
-2.2199864e-12
-0.00034471402
0.00013137836
-1.7574108e-12
-0.00036218124
0.00011066956
-1.1242581e-12
-0.00037683112
8.716552e-05
-4.6818585e-13
-0.00038830039
6.1095189e-05
2.3508464e-14
-0.00039623425
3.2782898e-05
3.3478441e-13
-0.00040029636
2.6624395e-06
6.985482e-13
-0.00040018385
-2.8715006e-05
1.2671316e-12
-0.00039564403
-6.0671923e-05
2.1689063e-12
-0.00038649734
-9.2409507e-05
3.0109405e-12
-0.0003726626
-0.00012301536
3.3407357e-12
-0.00035418495
-0.00015148404
3.1405597e-12
-0.00033126378
-0.00017675013
2.9338971e-12
-0.00030427782
-0.00019773612
3.2465796e-12
-0.00027380298
-0.00021341549
3.9276916e-12
-0.00024061829
-0.00022288953
4.2222932e-12
-0.00020569518
-0.00022547359
3.7045249e-12
-0.00017016638
-0.00022078499
2.9402918e-12
-0.00013527317
-0.00020882189
2.8263367e-12
-0.00010229332
-0.00019002055
3.2443024e-12
-7.2455928e-05
-0.00016527946
3.0884888e-12
-4.6853289e-05
-0.00013594285
3.2917877e-12
-2.636136e-05
-0.00010374287
7.3099539e-12
-1.158044e-05
-7.0701053e-05
3.5426361e-12
-2.8033139e-06
-3.9004464e-05
-2.1384505e-11
-1.0962521e-05
2.4559696e-11
-4.1321172e-06
2.6035353e-05
-3.4319173e-11
-1.4914097e-05
7.163978e-05
3.4101456e-11
-3.095713e-05
0.00011045225
-3.3444177e-12
-5.1080653e-05
0.00014259054
-9.7866232e-12
-7.429227e-05
0.00016842441
-4.1562221e-12
-9.976612e-05
0.00018843732
-3.6925062e-12
-0.00012681668
0.00020314623
-4.2682506e-12
-0.0001548713
0.00021304306
-4.2467169e-12
-0.00018344393
0.00021855489
-4.1166339e-12
-0.00021211148
0.00022002277
-3.9966963e-12
-0.00024049343
0.00021769657
-3.7944353e-12
-0.00026823491
0.00021174243
-3.4790316e-12
-0.0002949935
0.00020225952
-3.1123433e-12
-0.00032042903
0.00018930276
-2.7899998e-12
-0.00034419639
0.00017290881
-2.5359278e-12
-0.00036594072
0.0001531227
-2.2505435e-12
-0.00038529503
0.00013002387
-1.7859779e-12
-0.00040187999
0.00010375048
-1.1010095e-12
-0.00041530642
7.4521617e-05
-3.4770318e-13
-0.00042518075
4.2657228e-05
2.5282002e-13
-0.00043111394
8.5956315e-06
6.4413301e-13
-0.00043273619
-2.7092756e-05
8.8853689e-13
-0.00042971414
-6.3693985e-05
1.4561731e-12
-0.00042177616
-0.00010034749
2.3929532e-12
-0.0004087417
-0.00013604982
3.3143114e-12
-0.00039055537
-0.00016967037
3.7176726e-12
-0.00036732348
-0.00019998201
3.5263893e-12
-0.00033934978
-0.00022570983
3.2524079e-12
-0.00030716536
-0.00024559993
3.443685e-12
-0.00027154682
-0.00025850807
3.9781642e-12
-0.000233516
-0.00026350442
4.1637475e-12
-0.00019431497
-0.00025998602
3.6819959e-12
-0.0001553529
-0.00024778396
3.0994338e-12
-0.00011812526
-0.0002272482
2.9236386e-12
-8.4111825e-05
-0.0001992929
2.6419433e-12
-5.4665475e-05
-0.0001653892
3.2536129e-12
-3.0907337e-05
-0.00012750102
8.2664243e-12
-1.3644695e-05
-8.7963699e-05
3.7212296e-12
-3.3229919e-06
-4.9326143e-05
-2.5979247e-11
-1.4285542e-05
2.8500351e-11
-4.3334547e-06
3.0368844e-05
-3.6000695e-11
-1.5627795e-05
8.2934085e-05
3.5851142e-11
-3.241791e-05
0.00012724238
-3.4156791e-12
-5.3460306e-05
0.00016363294
-1.021321e-11
-7.7712457e-05
0.00019267657
-4.379746e-12
-0.000104311
0.00021503587
-3.9425261e-12
-0.00013254491
0.00023138014
-4.5552794e-12
-0.00016182692
0.00024232509
-4.5176804e-12
-0.00019166586
0.00024839384
-4.369734e-12
-0.00022164123
0.00024999814
-4.2771322e-12
-0.00025138095
0.0002474363
-4.1660057e-12
-0.00028054263
0.00024090411
-3.9558555e-12
-0.0003087982
0.00023051509
-3.6148016e-12
-0.00033582177
0.00021632633
-3.2039877e-12
-0.00036128016
0.00019836721
-2.837329e-12
-0.00038482594
0.00017666847
-2.5633907e-12
-0.00040609254
0.00015129047
-2.2856676e-12
-0.00042469177
0.00012234971
-1.8237064e-12
-0.00044021383
9.0043682e-05
-1.0933986e-12
-0.00045223063
5.4674028e-05
-2.3318189e-13
-0.00046030301
1.6668015e-05
4.8292915e-13
-0.00046399355
-2.340222e-05
8.6543784e-13
-0.00046288446
-6.4803078e-05
1.1553267e-12
-0.00045660339
-0.00010662857
1.7105771e-12
-0.00044485607
-0.00014779715
2.6432337e-12
-0.00042746611
-0.00018706033
3.5966302e-12
-0.0004044202
-0.00022302792
4.0430906e-12
-0.00037591559
-0.00025421444
3.869565e-12
-0.00034240456
-0.00027911096
3.5554456e-12
-0.00030462861
-0.00029628403
3.615557e-12
-0.00026363337
-0.00030449966
3.9420414e-12
-0.00022075512
-0.00030286427
3.9921567e-12
-0.00017757162
-0.00029096746
3.6200529e-12
-0.000135815
-0.00026900482
3.084726e-12
-9.7251926e-05
-0.00023785598
2.2881637e-12
-6.3544834e-05
-0.00019909629
2.9476624e-12
-3.6114687e-05
-0.00015493117
9.1309979e-12
-1.6028556e-05
-0.00010804983
3.9361518e-12
-3.9298353e-06
-6.1424834e-05
-3.1199815e-11
-1.8215412e-05
3.316061e-11
-4.4872241e-06
3.4856106e-05
-3.7339498e-11
-1.6177325e-05
9.462415e-05
3.7096164e-11
-3.3549901e-05
0.00014461496
-3.5686872e-12
-5.5314555e-05
0.00018539761
-1.0596136e-11
-8.0390366e-05
0.00021775239
-4.5862326e-12
-0.0001078848
0.0002425303
-4.1943421e-12
-0.00013706724
0.00026056259
-4.882554e-12
-0.00016734026
0.00027259811
-4.8670345e-12
-0.00019821119
0.00027926477
-4.6966422e-12
-0.0002292656
0.00028105256
-4.5667712e-12
-0.00026014366
0.00027831436
-4.4651488e-12
-0.00029051965
0.00027128011
-4.3504648e-12
-0.00032008481
0.00026008025
-4.1388761e-12
-0.00034853316
0.00024477468
-3.7761663e-12
-0.00037554992
0.00022538397
-3.3157274e-12
-0.00040080217
0.00020192073
-2.8894338e-12
-0.00042393159
0.00017441989
-2.5778339e-12
-0.00044454929
0.00014296741
-2.2956905e-12
-0.0004622332
0.0001077276
-1.8331934e-12
-0.00047652861
6.8969437e-05
-1.0610356e-12
-0.00048695286
2.709227e-05
-1.0910848e-13
-0.00049300562
-1.7349457e-05
6.9569554e-13
-0.00049418562
-6.3623084e-05
1.1770044e-12
-0.0004900158
-0.00011079839
1.502552e-12
-0.00048007773
-0.00015773523
2.0440115e-12
-0.00046405565
-0.00020308242
2.9454997e-12
-0.00044178974
-0.00024529384
3.8736339e-12
-0.00041333574
-0.00028266845
4.313699e-12
-0.00037902594
-0.00031342076
4.1452101e-12
-0.00033952332
-0.00033578666
3.7915893e-12
-0.00029585751
-0.00034816548
3.6910141e-12
-0.00024942979
-0.00034929199
3.793001e-12
-0.00020197496
-0.00033842228
3.7814329e-12
-0.00015547283
-0.00031550695
3.3591448e-12
-0.00011201158
-0.00028131723
2.2029656e-12
-7.361749e-05
-0.00023749039
2.7051628e-12
-4.2076999e-05
-0.00018647167
1.0006289e-11
-1.8784e-05
-0.00013134284
4.0593195e-12
-4.6400094e-06
-7.5568789e-05
-3.7286428e-11
-2.2855461e-05
3.8650742e-11
-4.5902836e-06
3.9446428e-05
-3.8276887e-11
-1.6552691e-05
0.00010658652
3.7869662e-11
-3.4333351e-05
0.00016239562
-3.795185e-12
-5.6610889e-05
0.00020767516
-1.0972982e-11
-8.2277186e-05
0.00024341869
-4.8084047e-12
-0.00011041819
0.00027067131
-4.4282962e-12
-0.00014028891
0.00029043333
-5.1857491e-12
-0.00017128551
0.00030359471
-5.2342644e-12
-0.00020291688
0.00031089615
-5.097418e-12
-0.00023477768
0.00031291336
-4.9424789e-12
-0.00026652357
0.00031006026
-4.7798322e-12
-0.00029784945
0.00030260598
-4.6498598e-12
-0.0003284706
0.0002907014
-4.5284534e-12
-0.00035810671
0.0002744108
-4.3154453e-12
-0.00038646824
0.0002537455
-3.9316085e-12
-0.00041324485
0.00022869733
-3.415761e-12
-0.00043809567
0.00019927071
-2.9155506e-12
-0.00046064151
0.00016551326
-2.5459437e-12
-0.0004804593
0.00012754539
-2.2385246e-12
-0.00049707944
8.5589578e-05
-1.7638676e-12
-0.00050998718
4.0000006e-05
-9.5887683e-13
-0.00051862937
-8.7072651e-06
6.236407e-14
-0.00052242833
-5.9824126e-05
9.6941988e-13
-0.00052080461
-0.0001124221
1.5490807e-12
-0.00051321088
-0.00016532896
1.9330604e-12
-0.00049917821
-0.0002171151
2.4726126e-12
-0.00047837548
-0.00026609656
3.3124012e-12
-0.00045068058
-0.00031036335
4.14964e-12
-0.0004162589
-0.00034784244
4.5203074e-12
-0.00037564085
-0.00037640471
4.3165223e-12
-0.00032978531
-0.00039402102
3.8867778e-12
-0.00028011189
-0.00039896542
3.620837e-12
-0.00022848372
-0.00039005046
3.5902909e-12
-0.00017712615
-0.00036686452
3.339193e-12
-0.00012847765
-0.00032996573
2.098202e-12
-8.4985577e-05
-0.00028098246
2.5905807e-12
-4.8878636e-05
-0.00022257863
1.1107011e-11
-2.1960822e-05
-0.00015826066
4.1648086e-12
-5.4696768e-06
-9.2059891e-05
-4.4415297e-11
-2.8325184e-05
4.5041532e-11
-4.64072e-06
4.4087187e-05
-3.8816329e-11
-1.674799e-05
0.00011869375
3.8198807e-11
-3.4756316e-05
0.00018040395
-4.0364093e-12
-5.7328467e-05
0.00023024732
-1.1331383e-11
-8.3339268e-05
0.0002694295
-5.0875177e-12
-0.00011185972
0.00029919177
-4.6881093e-12
-0.00014213475
0.00032070837
-5.4618207e-12
-0.00017355702
0.00033501699
-5.5576556e-12
-0.00020563943
0.00034297856
-5.4926096e-12
-0.0002379881
0.00034526203
-5.3838286e-12
-0.000270277
0.00034234917
-5.1909547e-12
-0.00030222519
0.00033455417
-4.9736908e-12
-0.00033357652
0.00032205274
-4.8030033e-12
-0.00036408206
0.00030491634
-4.6615193e-12
-0.00039348459
0.00028314803
-4.4394733e-12
-0.000421505
0.00025671775
-4.0302873e-12
-0.00044783032
0.00022559603
-3.4536097e-12
-0.00047210322
0.00018978617
-2.8684104e-12
-0.00049391353
0.0001493557
-2.4207363e-12
-0.00051279207
0.00010446812
-2.0623078e-12
-0.00052820806
5.5416006e-05
-1.5579762e-12
-0.00053957138
2.6560543e-06
-7.1900897e-13
-0.00054624182
-5.3153686e-05
3.4509915e-13
-0.0005475474
-0.00011111652
1.3352307e-12
-0.00054281499
-0.00017006137
2.0127807e-12
-0.00053141579
-0.00022851429
2.4683276e-12
-0.00051282803
-0.00028468433
3.0035805e-12
-0.00048671736
-0.00033647402
3.7394471e-12
-0.00045303245
-0.00038152735
4.4109901e-12
-0.00041210823
-0.00041732893
4.6309368e-12
-0.00036476273
-0.00044136652
4.3161895e-12
-0.0003123668
-0.00045136135
3.7886257e-12
-0.0002568608
-0.00044555647
3.4532744e-12
-0.0002006938
-0.00042303152
3.0783294e-12
-0.00014667113
-0.0003839884
1.7174176e-12
-9.77174e-05
-0.00032993618
2.3907978e-12
-5.6590328e-05
-0.00026370571
1.2456266e-11
-2.5605325e-05
-0.00018924567
4.3547666e-12