/*--------------------------------*- C++ -*----------------------------------*\
  =========                 |
  \\      /  F ield         | OpenFOAM: The Open Source CFD Toolbox
   \\    /   O peration     | Website:  https://openfoam.org
    \\  /    A nd           | Version:  7
     \\/     M anipulation  |
\*---------------------------------------------------------------------------*/
FoamFile
{
    version     2.0;
    format      ascii;
    class       surfaceScalarField;
    location    "37";
    object      phi_0;
}
// * * * * * * * * * * * * * * * * * * * * * * * * * * * * * * * * * * * * * //

dimensions      [0 3 -1 0 0 0 0];

internalField   nonuniform List<scalar> 
45600
(
2.7508405e-07
-2.823236e-07
-8.1288082e-11
4.0329118e-07
-1.2818148e-07
-2.5573304e-11
1.3253758e-07
2.7076097e-07
-7.0546294e-12
-5.6232115e-07
6.9486e-07
-1.7785506e-12
-1.6393187e-06
1.0769936e-06
3.3554278e-12
-3.0276267e-06
1.3883027e-06
6.8478326e-12
-4.6524663e-06
1.6248339e-06
9.1465184e-12
-6.4450963e-06
1.7926213e-06
1.0760557e-11
-8.3454221e-06
1.9003134e-06
1.1894506e-11
-1.0301442e-05
1.9560058e-06
1.2652133e-11
-1.2267402e-05
1.9659469e-06
1.3098213e-11
-1.4201581e-05
1.9341679e-06
1.3255911e-11
-1.6064238e-05
1.8626455e-06
1.312426e-11
-1.7816027e-05
1.7517752e-06
1.2697635e-11
-1.9417055e-05
1.6010131e-06
1.1970043e-11
-2.0826662e-05
1.4095912e-06
1.0936622e-11
-2.2003913e-05
1.1772388e-06
9.5982297e-12
-2.2908775e-05
9.0485517e-07
7.9591077e-12
-2.3503871e-05
5.9509428e-07
6.0078296e-12
-2.3756701e-05
2.5282746e-07
3.7472653e-12
-2.3642139e-05
-1.1456825e-07
1.216889e-12
-2.3145011e-05
-4.9713598e-07
-1.4867451e-12
-2.2262582e-05
-8.8242984e-07
-4.2327855e-12
-2.1006627e-05
-1.2559422e-06
-6.8963925e-12
-1.9404867e-05
-1.6017353e-06
-9.3926794e-12
-1.7501551e-05
-1.9032961e-06
-1.16758e-11
-1.5356963e-05
-2.1445863e-06
-1.3641283e-11
-1.3045759e-05
-2.3112164e-06
-1.507644e-11
-1.0654115e-05
-2.3916409e-06
-1.5731155e-11
-8.2758298e-06
-2.3782474e-06
-1.5493325e-11
-6.0075627e-06
-2.2682098e-06
-1.4497855e-11
-3.9435081e-06
-2.0640264e-06
-1.2991846e-11
-2.1697662e-06
-1.7737725e-06
-1.1027222e-11
-7.5855063e-07
-1.4112684e-06
-8.3428957e-12
2.3817943e-07
-9.9672744e-07
-4.8534621e-12
7.9653302e-07
-5.5827654e-07
-1.3863427e-12
9.2931441e-07
-1.3270358e-07
2.0359242e-12
7.0564293e-07
2.2361928e-07
5.3504976e-12
2.9049775e-07
4.1498145e-07
8.6258531e-12
2.9039462e-07
1.8824137e-12
1.3284702e-07
-4.1514811e-07
-2.2973127e-11
-3.0172449e-07
3.0640396e-07
-1.4547599e-11
-1.6154314e-06
1.5844824e-06
-1.2668596e-11
-3.8747288e-06
2.9541733e-06
-1.3399901e-11
-7.0073571e-06
4.2096367e-06
-1.4556773e-11
-1.0879763e-05
5.2607236e-06
-1.6092615e-11
-1.5335173e-05
6.0802628e-06
-1.7505579e-11
-2.0216007e-05
6.6734783e-06
-1.8510689e-11
-2.5374062e-05
7.0583917e-06
-1.9075009e-11
-3.0673273e-05
7.2552367e-06
-1.9211762e-11
-3.5988541e-05
7.2812303e-06
-1.8925985e-11
-4.1202829e-05
7.1484714e-06
-1.8229441e-11
-4.6203973e-05
6.8638051e-06
-1.7143425e-11
-5.0882101e-05
6.4299198e-06
-1.5687508e-11
-5.5128233e-05
5.8471598e-06
-1.3877033e-11
-5.883432e-05
5.1156882e-06
-1.1726631e-11
-6.1894805e-05
4.2377268e-06
-9.2453428e-12
-6.4209614e-05
3.2196614e-06
-6.4213634e-12
-6.5688365e-05
2.0738448e-06
-3.2783768e-12
-6.6255472e-05
8.1994111e-07
1.1173186e-13
-6.585598e-05
-5.14051e-07
3.6236558e-12
-6.4460801e-05
-1.8923182e-06
7.1685177e-12
-6.2072473e-05
-3.2707825e-06
1.0606932e-11
-5.8729093e-05
-4.5993584e-06
1.3888573e-11
-5.4507086e-05
-5.8237673e-06
1.6963349e-11
-4.952191e-05
-6.8884702e-06
1.9673713e-11
-4.3926388e-05
-7.7400946e-06
2.1756611e-11
-3.7906432e-05
-8.3311844e-06
2.2982023e-11
-3.1674136e-05
-8.6239993e-06
2.3333797e-11
-2.5458418e-05
-8.5940462e-06
2.3018695e-11
-1.9493641e-05
-8.2330179e-06
2.2213063e-11
-1.4006724e-05
-7.5508925e-06
2.0786864e-11
-9.2032533e-06
-6.5771787e-06
1.8397661e-11
-5.2528599e-06
-5.3616885e-06
1.5005912e-11
-2.273988e-06
-3.9757301e-06
1.1234216e-11
-3.1733833e-07
-2.5150296e-06
7.8453608e-12
6.5699695e-07
-1.1069643e-06
4.709497e-12
8.0369395e-07
7.7158931e-08
3.6858876e-12
4.1794211e-07
8.0093298e-07
4.5650878e-12
7.0825001e-07
-3.1878136e-12
-2.7360161e-07
-1.4153439e-07
-1.27489e-11
-1.6275082e-06
1.6603159e-06
-7.5388143e-12
-4.2894294e-06
4.2464119e-06
-8.8407108e-12
-8.2746979e-06
6.9394524e-06
-7.3988906e-12
-1.3474432e-05
9.4093804e-06
-5.412808e-12
-1.9708732e-05
1.1495028e-05
-4.3427041e-12
-2.6765759e-05
1.3137292e-05
-3.6508409e-12
-3.4426622e-05
1.4334346e-05
-3.0578771e-12
-4.2478633e-05
1.5110409e-05
-2.5470513e-12
-5.0720449e-05
1.549706e-05
-2.1023639e-12
-5.8962293e-05
1.5523076e-05
-1.6910005e-12
-6.7023689e-05
1.5209865e-05
-1.2845371e-12
-7.4730531e-05
1.4570644e-05
-8.6763129e-13
-8.191272e-05
1.3612106e-05
-4.3420213e-13
-8.8403149e-05
1.2337589e-05
1.2625355e-14
-9.4038476e-05
1.0751019e-05
4.5352371e-13
-9.8661794e-05
8.8610469e-06
8.5494985e-13
-0.00010212709
6.6849559e-06
1.2060104e-12
-0.00010430523
4.2519672e-06
1.5218787e-12
-0.00010509101
1.6057121e-06
1.8343849e-12
-0.00010441064
-1.1944114e-06
2.1524766e-12
-0.00010222945
-4.0734936e-06
2.4173742e-12
-9.8558508e-05
-6.9417145e-06
2.5478516e-12
-9.3459993e-05
-9.6978839e-06
2.5274101e-12
-8.7050395e-05
-1.2233398e-05
2.4520554e-12
-7.9501013e-05
-1.4437878e-05
2.4612168e-12
-7.1035296e-05
-1.6205799e-05
2.5904684e-12
-6.192272e-05
-1.7443713e-05
2.6928218e-12
-5.2469123e-05
-1.8077564e-05
2.57176e-12
-4.3003662e-05
-1.8059541e-05
2.2476612e-12
-3.3862842e-05
-1.7373921e-05
2.0436267e-12
-2.5372272e-05
-1.6041502e-05
2.2817485e-12
-1.7826904e-05
-1.4122478e-05
2.847357e-12
-1.1470367e-05
-1.1718106e-05
3.1946e-12
-6.4737988e-06
-8.9722789e-06
2.9756823e-12
-2.9140321e-06
-6.0749492e-06
2.5018176e-12
-7.5129502e-07
-3.269897e-06
2.3434835e-12
1.9429142e-07
-8.6845437e-07
3.5204293e-12
2.6553863e-07
7.2982996e-07
5.7957758e-12
9.7378296e-07
8.3966258e-13
-7.4585619e-07
6.0433512e-07
-1.2955262e-11
-3.179654e-06
4.0941138e-06
-1.5397506e-12
-7.346129e-06
8.412891e-06
-6.9979358e-12
-1.3163083e-05
1.2756413e-05
-6.3430919e-12
-2.0455844e-05
1.6702148e-05
-3.7050301e-12
-2.8992657e-05
2.0031849e-05
-2.364971e-12
-3.8513897e-05
2.2658534e-05
-1.4938739e-12
-4.8752695e-05
2.4573143e-05
-7.075356e-13
-5.9446999e-05
2.5804713e-05
-4.2041875e-14
-7.0344848e-05
2.639491e-05
5.0593324e-13
-8.1205139e-05
2.638337e-05
9.5971617e-13
-9.1795991e-05
2.5800717e-05
1.3356031e-12
-0.00010189242
2.4667071e-05
1.6448597e-12
-0.00011127464
2.2994318e-05
1.8973362e-12
-0.00011972779
2.0790735e-05
2.1055997e-12
-0.00012704362
1.8066843e-05
2.2750517e-12
-0.00013302417
1.4841599e-05
2.3822576e-12
-0.00013748742
1.1148214e-05
2.3857571e-12
-0.00014027452
7.0390611e-06
2.2584862e-12
-0.00014125806
2.5892407e-06
2.0317507e-12
-0.00014035078
-2.1017001e-06
1.7854835e-12
-0.00013751439
-6.9098814e-06
1.5301219e-12
-0.00013276702
-1.1689063e-05
1.2376999e-12
-0.0001261893
-1.6275588e-05
8.2476899e-13
-0.00011792787
-2.0494824e-05
2.6435465e-13
-0.00010819591
-2.4169875e-05
-3.1856742e-13
-9.7269893e-05
-2.7131856e-05
-7.007275e-13
-8.5482435e-05
-2.9231163e-05
-7.6711641e-13
-7.3210949e-05
-3.0348988e-05
-6.6707134e-13
-6.0862238e-05
-3.0408194e-05
-6.8116156e-13
-4.8853427e-05
-2.9382754e-05
-8.5473783e-13
-3.7589921e-05
-2.7305108e-05
-8.1649019e-13
-2.7441368e-05
-2.4271096e-05
-1.2880092e-13
-1.8716721e-05
-2.0442682e-05
1.1024635e-12
-1.1639419e-05
-1.6049422e-05
2.1666551e-12
-6.3235046e-06
-1.1390789e-05
2.5502944e-12
-2.7515303e-06
-6.8419768e-06
2.7070421e-12
-7.5721395e-07
-2.8629148e-06
3.4133072e-12
-9.5434272e-09
-1.7831066e-08
4.4627073e-12
9.6427805e-07
3.8571821e-12
-1.2279736e-06
1.8323234e-06
-1.444998e-11
-4.7881234e-06
7.6542604e-06
4.4760007e-12
-1.0521562e-05
1.4146334e-05
-6.1075823e-12
-1.8214356e-05
2.0449211e-05
-7.2210389e-12
-2.760396e-05
2.6091757e-05
-4.829044e-12
-3.8396315e-05
3.0824212e-05
-4.0817988e-12
-5.0283068e-05
3.4545295e-05
-3.7401653e-12
-6.2954793e-05
3.7244871e-05
-3.2870795e-12
-7.6109046e-05
3.8958966e-05
-2.8357189e-12
-8.945378e-05
3.9739646e-05
-2.4050082e-12
-0.00010270748
3.963707e-05
-1.9752761e-12
-0.00011559753
3.8690778e-05
-1.5445987e-12
-0.00012785834
3.6927886e-05
-1.1186893e-12
-0.0001392302
3.4366172e-05
-7.0436732e-13
-0.00014945975
3.1020281e-05
-2.9868402e-13
-0.00015830248
2.6909566e-05
1.1845228e-13
-0.00016552724
2.2066361e-05
5.6189965e-13
-0.00017092274
1.6543726e-05
1.0110335e-12
-0.00017430558
1.0421914e-05
1.4082071e-12
-0.00017552934
3.8130028e-06
1.707401e-12
-0.00017449412
-3.1369361e-06
1.9250097e-12
-0.00017115588
-1.0248137e-05
2.1228813e-12
-0.00016553481
-1.7310148e-05
2.3620545e-12
-0.0001577219
-2.4088472e-05
2.6051657e-12
-0.00014788318
-3.0333511e-05
2.7188748e-12
-0.00013626058
-3.5792473e-05
2.6069465e-12
-0.00012316895
-4.0223518e-05
2.3637274e-12
-0.00010898874
-4.3411438e-05
2.2497712e-12
-9.4153832e-05
-4.5183905e-05
2.4353145e-12
-7.9134859e-05
-4.54271e-05
2.7560908e-12
-6.441803e-05
-4.4099503e-05
2.8261842e-12
-5.048033e-05
-4.1242817e-05
2.509105e-12
-3.7762149e-05
-3.6989394e-05
2.2113178e-12
-2.6638877e-05
-3.1566059e-05
2.4613041e-12
-1.7393206e-05
-2.5295059e-05
3.1604196e-12
-1.0189881e-05
-1.8593977e-05
3.7174165e-12
-5.0546853e-06
-1.1977116e-05
4.0384434e-12
-1.8598474e-06
-6.0578389e-06
3.286523e-12
-3.2225573e-07
-1.555462e-06
3.0108007e-13
6.4203709e-07
5.9218952e-12
-1.6931737e-06
3.5255122e-06
-1.6951887e-11
-6.3714203e-06
1.2332499e-05
9.8985776e-12
-1.3671466e-05
2.1446386e-05
-5.1254107e-12
-2.3234075e-05
3.0011826e-05
-7.3153102e-12
-3.469526e-05
3.7552943e-05
-4.6048423e-12
-4.7689837e-05
4.3818793e-05
-4.0265768e-12
-6.1857534e-05
4.8713e-05
-3.8848787e-12
-7.6848073e-05
5.2235418e-05
-3.5199886e-12
-9.2323874e-05
5.443477e-05
-3.1294159e-12
-0.00010796027
5.5376047e-05
-2.7542281e-12
-0.00012344397
5.5120764e-05
-2.3630941e-12
-0.0001384707
5.3717505e-05
-1.9465651e-12
-0.00015274323
5.1200421e-05
-1.5068423e-12
-0.00016597054
4.7593489e-05
-1.0582042e-12
-0.00017786873
4.2918483e-05
-6.2163523e-13
-0.00018816405
3.7204876e-05
-2.0112742e-13
-0.00019659789
3.0500196e-05
2.293311e-13
-0.00020293384
2.2879671e-05
6.9867516e-13
-0.00020696614
1.4454223e-05
1.1925876e-12
-0.00020852928
5.3761666e-06
1.6430656e-12
-0.0002075081
-4.1581084e-06
1.9761677e-12
-0.00020384766
-1.3908585e-05
2.1893188e-12
-0.00019756246
-2.3595375e-05
2.3661338e-12
-0.00018874397
-3.2906981e-05
2.6089527e-12
-0.00017756589
-4.1511575e-05
2.9068782e-12
-0.00016428624
-4.9072077e-05
3.0975175e-12
-0.00014924548
-5.5264255e-05
3.018751e-12
-0.00013285989
-5.9797072e-05
2.7357718e-12
-0.00011560969
-6.2434176e-05
2.5647237e-12
-9.8021797e-05
-6.3015027e-05
2.7651778e-12
-8.0647238e-05
-6.1473995e-05
3.1861834e-12
-6.4034142e-05
-5.7855806e-05
3.3533489e-12
-4.8697401e-05
-5.2326115e-05
3.051457e-12
-3.5086905e-05
-4.517666e-05
2.6731357e-12
-2.3556724e-05
-3.6825346e-05
2.7320231e-12
-1.4337891e-05
-2.7812784e-05
3.4126602e-12
-7.5174508e-06
-1.8797457e-05
4.6739806e-12
-3.0267011e-06
-1.054858e-05
3.6352562e-12
-6.424983e-07
-3.9397044e-06
-2.1310444e-12
-4.7419301e-10
8.2890769e-12
-2.1329409e-06
5.6584702e-06
-1.9733409e-11
-7.8910849e-06
1.8090627e-05
1.4684266e-11
-1.6717416e-05
3.0272725e-05
-4.3687801e-12
-2.8105752e-05
4.1400172e-05
-7.3458643e-12
-4.1585102e-05
5.1032295e-05
-4.1478859e-12
-5.671415e-05
5.8947841e-05
-3.6227596e-12
-7.3078292e-05
6.5077146e-05
-3.6155177e-12
-9.0287099e-05
6.9444231e-05
-3.2869548e-12
-0.00010797133
7.2119008e-05
-2.9100845e-12
-0.00012577927
7.3183994e-05
-2.5596593e-12
-0.00014337274
7.2714236e-05
-2.2047355e-12
-0.00016042342
7.0768179e-05
-1.8317445e-12
-0.00017661019
6.738719e-05
-1.4303053e-12
-0.00019161814
6.2601441e-05
-9.9576711e-13
-0.00020513951
5.6439863e-05
-5.4771154e-13
-0.00021687683
4.8942206e-05
-1.2269238e-13
-0.00022654813
4.0171501e-05
2.6508836e-13
-0.00023389406
3.0225585e-05
6.4567529e-13
-0.0002386865
1.9246653e-05
1.0638244e-12
-0.00024073841
7.4280898e-06
1.5195667e-12
-0.00023991435
-4.9821501e-06
1.9379547e-12
-0.000236141
-1.768192e-05
2.2241888e-12
-0.00022941745
-3.0318933e-05
2.3409835e-12
-0.00021982415
-4.2500316e-05
2.3903635e-12
-0.00020752993
-5.3805828e-05
2.5301792e-12
-0.0001927961
-6.3805889e-05
2.7932181e-12
-0.00017597668
-7.2083618e-05
2.9977651e-12
-0.0001575136
-7.8260112e-05
2.9114281e-12
-0.0001379261
-8.2021708e-05
2.5591932e-12
-0.00011779374
-8.3147479e-05
2.3056332e-12
-9.7732996e-05
-8.1534797e-05
2.4957709e-12
-7.8368143e-05
-7.7220605e-05
2.9984616e-12
-6.029783e-05
-7.0396317e-05
3.2835114e-12
-4.4059478e-05
-6.1414982e-05
3.0500131e-12
-3.0094433e-05
-5.079048e-05
2.6198035e-12
-1.8717301e-05
-3.9189993e-05
2.9486089e-12
-1.0093056e-05
-2.7421669e-05
4.8605646e-12
-4.2252888e-06
-1.6416295e-05
3.8032458e-12
-9.5847436e-07
-7.2065154e-06
-4.7261392e-12
-9.5897711e-07
1.0280257e-11
-2.5450556e-06
8.2035476e-06
-2.2515357e-11
-9.3288521e-06
2.4874401e-05
1.894902e-11
-1.9615372e-05
4.0559248e-05
-3.8980174e-12
-3.2756857e-05
5.4541669e-05
-7.5959158e-12
-4.8175894e-05
6.6451338e-05
-3.9203512e-12
-6.5354099e-05
7.6126048e-05
-3.4515993e-12
-8.3822148e-05
8.3545196e-05
-3.604145e-12
-0.00010315063
8.8772716e-05
-3.3502327e-12
-0.00012294163
9.1910008e-05
-3.0090364e-12
-0.00014282096
9.3063331e-05
-2.6812778e-12
-0.00016243134
9.2324627e-05
-2.3445594e-12
-0.00018142687
8.9763713e-05
-1.997214e-12
-0.00019946924
8.5429559e-05
-1.6349283e-12
-0.00021622604
7.9358236e-05
-1.2358262e-12
-0.0002313713
7.1585125e-05
-7.8657762e-13
-0.00024458831
6.2159231e-05
-3.1212671e-13
-0.00025557458
5.1157781e-05
1.3627839e-13
-0.00026404866
3.8699666e-05
5.304972e-13
-0.00026975866
2.4956645e-05
8.9905468e-13
-0.00027249209
1.0161501e-05
1.3021898e-12
-0.00027208668
-5.387564e-06
1.759359e-12
-0.00026844171
-2.1326864e-05
2.2112031e-12
-0.00026152972
-3.7230893e-05
2.5116226e-12
-0.00025140736
-5.2622677e-05
2.594618e-12
-0.00023822497
-6.6988265e-05
2.5677499e-12
-0.00022223365
-7.9797258e-05
2.6415832e-12
-0.00020378865
-9.0528617e-05
2.9019004e-12
-0.00018334761
-9.8701087e-05
3.15845e-12
-0.00016146237
-0.00010390689
3.1118957e-12
-0.00013876324
-0.00010584663
2.7402181e-12
-0.00011593536
-0.00010436277
2.437026e-12
-9.3687589e-05
-9.9468444e-05
2.6071895e-12
-7.2715452e-05
-9.1368414e-05
3.1293219e-12
-5.3660713e-05
-8.0469624e-05
3.3838164e-12
-3.707105e-05
-6.7380124e-05
2.988716e-12
-2.3363956e-05
-5.2897159e-05
2.9566174e-12
-1.2799338e-05
-3.798633e-05
5.0519142e-12
-5.464879e-06
-2.3750731e-05
3.6573e-12
-1.2772465e-06
-1.1394115e-05
-7.5668427e-12
-2.2362406e-06
1.2809822e-11
-2.9284813e-06
1.1132056e-05
-2.5214762e-11
-1.0673674e-05
3.2619568e-05
2.2789152e-11
-2.233618e-05
5.2221753e-05
-3.5971739e-12
-3.7135981e-05
6.9341478e-05
-7.9650549e-12
-5.4394114e-05
8.3709478e-05
-3.8203255e-12
-7.351763e-05
9.524957e-05
-3.3723757e-12
-9.3984302e-05
0.00010401187
-3.6573393e-12
-0.00011532796
0.00011011638
-3.4823947e-12
-0.00013712517
0.00011370722
-3.1955773e-12
-0.00015898353
0.00011492169
-2.9041787e-12
-0.00018053177
0.00011387288
-2.5817736e-12
-0.00020141214
0.00011064408
-2.2351925e-12
-0.00022127502
0.00010529244
-1.8830661e-12
-0.00023977617
9.7859385e-05
-1.5192425e-12
-0.00025657637
8.8385318e-05
-1.1115554e-12
-0.00027134346
7.6926318e-05
-6.3773146e-13
-0.00028375658
6.3570914e-05
-1.2370836e-13
-0.00029351242
4.845552e-05
3.6684898e-13
-0.0003003332
3.1777435e-05
7.8646154e-13
-0.00030397634
1.3804629e-05
1.1508825e-12
-0.00030424557
-5.1183638e-06
1.5312153e-12
-0.00030100297
-2.4569467e-05
2.0081035e-12
-0.00029418251
-4.4051334e-05
2.4950943e-12
-0.00028380322
-6.3001921e-05
2.8296021e-12
-0.00026998218
-8.0809304e-05
2.9025095e-12
-0.00025294547
-9.6834002e-05
2.8113703e-12
-0.00023303601
-0.00011043815
2.8129071e-12
-0.00021071603
-0.00012102109
3.0498451e-12
-0.00018656267
-0.00012806018
3.3364374e-12
-0.0001612548
-0.00013115443
3.3241851e-12
-0.00013554994
-0.00013006762
2.9567559e-12
-0.00011025149
-0.00012476699
2.6503169e-12
-8.6167424e-05
-0.00011545254
2.8290786e-12
-6.4063746e-05
-0.00010257327
3.2533405e-12
-4.4616642e-05
-8.6827155e-05
3.1810459e-12
-2.8368511e-05
-6.9145289e-05
3.2120579e-12
-1.5693161e-05
-5.066173e-05
5.5126117e-12
-6.7752327e-06
-3.2668681e-05
3.4933041e-12
-1.6070349e-06
-1.6562288e-05
-1.0638223e-11
-3.8432827e-06
1.5396541e-11
-3.2816997e-06
1.4413786e-05
-2.7795235e-11
-1.191587e-05
4.1253714e-05
2.6232859e-11
-2.4855513e-05
6.5161398e-05
-3.3999544e-12
-4.1199922e-05
8.5685892e-05
-8.3882049e-12
-6.0176313e-05
0.00010268587
-3.8120618e-12
-8.112225e-05
0.00011619551
-3.3606368e-12
-0.0001034663
0.00012635593
-3.7348872e-12
-0.00012670888
0.00013335896
-3.6122041e-12
-0.00015040464
0.00013740299
-3.3761333e-12
-0.00017414713
0.00013866418
-3.136104e-12
-0.00019755594
0.00013728169
-2.8496548e-12
-0.00022026668
0.00013335483
-2.5102838e-12
-0.00024192388
0.00012694965
-2.1434141e-12
-0.00026217667
0.00011811218
-1.7753546e-12
-0.00028067716
0.00010688581
-1.4014528e-12
-0.00029708129
9.3330446e-05
-9.8249917e-13
-0.00031105195
7.7541566e-05
-4.8513698e-13
-0.00032226413
5.9667713e-05
7.1755356e-14
-0.00033041218
3.9925505e-05
6.1382463e-13
-0.00033521895
1.8611404e-05
1.0567789e-12
-0.00033644711
-3.8902171e-06
1.3881451e-12
-0.00033391172
-2.7104884e-05
1.7809021e-12
-0.00032749596
-5.0467112e-05
2.2515609e-12
-0.00031716687
-7.3330997e-05
2.7637158e-12
-0.00030299227
-9.4983858e-05
3.1357478e-12
-0.00028515679
-0.00011466947
3.2093164e-12
-0.00026397516
-0.00013161981
3.0631666e-12
-0.00023990063
-0.00014509569
2.9879843e-12
-0.00021352586
-0.00015443499
3.1753426e-12
-0.00018557378
-0.00015910645
3.4493023e-12
-0.00015687655
-0.00015876479
3.4396615e-12
-0.0001283416
-0.00015330193
3.0981263e-12
-0.00010090608
-0.00014288815
2.8611714e-12
-7.5482504e-05
-0.00012799689
2.9882543e-12
-5.2901152e-05
-0.00010940848
2.9997796e-12
-3.3855096e-05
-8.8191298e-05
3.3379551e-12
-1.8854774e-05
-6.5662058e-05
6.1754942e-12
-8.1982678e-06
-4.3325215e-05
3.4949821e-12
-1.9611681e-06
-2.2799383e-05
-1.3921952e-11
-5.8044624e-06
1.8062173e-11
-3.6023044e-06
1.8016119e-05
-3.0217926e-11
-1.3044872e-05
5.0696257e-05
2.9265667e-11
-2.7149288e-05
7.9265819e-05
-3.2895834e-12
-4.4907169e-05
0.00010344378
-8.8316504e-12
-6.5461505e-05
0.00012324021
-3.8772873e-12
-8.8087231e-05
0.00013882124
-3.4318976e-12
-0.0001121688
0.0001504375
-3.8782122e-12
-0.00013717742
0.00015836758
-3.7823487e-12
-0.00016264987
0.00016287545
-3.5739278e-12
-0.00018816992
0.00016418423
-3.3765325e-12
-0.00021335263
0.0001624644
-3.1415903e-12
-0.00023783202
0.00015783422
-2.8425171e-12
-0.0002612519
0.00015036954
-2.4802186e-12
-0.00028325982
0.00014012011
-2.0836934e-12
-0.00030350381
0.0001271298
-1.6886112e-12
-0.00032163164
0.00011145828
-1.2972142e-12
-0.00033729243
9.3202341e-05
-8.6603726e-13
-0.00035014037
7.2515645e-05
-3.4623504e-13
-0.00035984078
4.9625917e-05
2.5535579e-13
-0.0003660784
2.4849051e-05
8.3822804e-13
-0.00036856893
-1.3996705e-06
1.2630636e-12
-0.00036707131
-2.8602514e-05
1.6936752e-12
-0.00036140635
-5.613211e-05
2.0554615e-12
-0.00035147457
-8.3262805e-05
2.5014782e-12
-0.00033727782
-0.00010918061
3.0262551e-12
-0.00031894088
-0.00013300636
3.4272687e-12
-0.00029673171
-0.00015382896
3.5054343e-12
-0.00027107724
-0.00017075018
3.3183482e-12
-0.00024257164
-0.00018294066
3.1759473e-12
-0.0002119733
-0.00018970483
3.2974514e-12
-0.0001801876
-0.00019055045
3.5142552e-12
-0.00014823329
-0.00018525617
3.4843687e-12
-0.00011719274
-0.0001739287
3.2178031e-12
-8.814896e-05
-0.00015704072
2.9934721e-12
-6.2115402e-05
-0.00013544207
2.7243344e-12
-3.9966491e-05
-0.00011034019
3.2222264e-12
-2.2377599e-05
-8.3250928e-05
6.8291289e-12
-9.7826841e-06
-5.5920133e-05
3.6086749e-12
-2.354697e-06
-3.0227364e-05
-1.7449324e-11
-8.1591827e-06
2.1033446e-11
-3.887052e-06
2.1903201e-05
-3.242596e-11
-1.4048661e-05
6.0857835e-05
3.1871719e-11
-2.9192052e-05
9.4409218e-05
-3.2702837e-12
-4.8215262e-05
0.000122467
-9.2820589e-12
-7.0187839e-05
0.00014521279
-3.9876983e-12
-9.4330057e-05
0.00016296346
-3.5614708e-12
-0.00011998821
0.00017609566
-4.0858456e-12
-0.00014660907
0.00018498845
-4.015511e-12
-0.00017371587
0.00018998226
-3.8189694e-12
-0.00020088684
0.00019135521
-3.6384525e-12
-0.00022773707
0.00018931462
-3.4374803e-12
-0.00025390379
0.00018400094
-3.1923609e-12
-0.00027903518
0.00017550093
-2.8786922e-12
-0.0003027823
0.00016386723
-2.4891225e-12
-0.00032479395
0.00014914146
-2.0549459e-12
-0.00034471402
0.00013137836
-1.6229569e-12
-0.00036218123
0.00011066956
-1.2066208e-12
-0.00037683112
8.7165513e-05
-7.6224811e-13
-0.0003883004
6.109519e-05
-2.2407709e-13
-0.00039623426
3.2782908e-05
4.3085285e-13
-0.00040029636
2.6624509e-06
1.1355014e-12
-0.00040018384
-2.8715007e-05
1.6438745e-12
-0.00039564402
-6.0671938e-05
2.0238188e-12
-0.00038649734
-9.2409523e-05
2.354327e-12
-0.00037266262
-0.00012301536
2.7760532e-12
-0.00035418497
-0.00015148401
3.2940881e-12
-0.00033126377
-0.00017675011
3.7009506e-12
-0.0003042778
-0.00019773612
3.7718116e-12
-0.00027380297
-0.00021341552
3.5502463e-12
-0.00024061831
-0.00022288955
3.3501323e-12
-0.00020569521
-0.00022547358
3.3904274e-12
-0.00017016638
-0.00022078497
3.5274926e-12
-0.00013527315
-0.00020882188
3.505939e-12
-0.0001022933
-0.00019002057
3.230507e-12
-7.2455937e-05
-0.00016527947
2.6251673e-12
-4.6853302e-05
-0.00013594284
3.0462021e-12
-2.6361362e-05
-0.00010374286
7.4261079e-12
-1.1580435e-05
-7.0701049e-05
3.7044905e-12
-2.8033114e-06
-3.9004466e-05
-2.1379758e-11
-1.0962524e-05
2.447901e-11
-4.1321171e-06
2.6035352e-05
-3.4361394e-11
-1.4914098e-05
7.1639781e-05
3.4052236e-11
-3.0957131e-05
0.00011045226
-3.3362193e-12
-5.1080652e-05
0.00014259054
-9.74208e-12
-7.4292269e-05
0.00016842441
-4.1371516e-12
-9.976612e-05
0.00018843732
-3.7227017e-12
-0.00012681668
0.00020314622
-4.3256478e-12
-0.0001548713
0.00021304306
-4.2947906e-12
-0.00018344393
0.00021855489
-4.1196847e-12
-0.00021211148
0.00022002277
-3.9471076e-12
-0.00024049342
0.00021769657
-3.7501776e-12
-0.00026823491
0.00021174243
-3.5305606e-12
-0.0002949935
0.00020225951
-3.2742072e-12
-0.00032042904
0.00018930276
-2.9449241e-12
-0.00034419639
0.00017290881
-2.5264469e-12
-0.00036594072
0.0001531227
-2.0496047e-12
-0.00038529502
0.00013002387
-1.5725918e-12
-0.00040187999
0.00010375048
-1.1249007e-12
-0.00041530642
7.4521607e-05
-6.6480776e-13
-0.00042518076
4.2657226e-05
-9.1482841e-14
-0.00043111395
8.5956419e-06
6.5194122e-13
-0.0004327362
-2.7092742e-05
1.3307652e-12
-0.00042971412
-6.3693982e-05
1.933362e-12
-0.00042177614
-0.0001003475
2.3591715e-12
-0.0004087417
-0.00013604984
2.6867822e-12
-0.00039055538
-0.00016967038
3.0823018e-12
-0.0003673235
-0.00019998199
3.5707174e-12
-0.00033934978
-0.00022570981
3.9475997e-12
-0.00030716533
-0.00024559993
3.9836922e-12
-0.00027154681
-0.00025850809
3.7212341e-12
-0.00023351601
-0.00026350443
3.4624151e-12
-0.00019431499
-0.00025998601
3.4234845e-12
-0.00015535291
-0.00024778394
3.5187324e-12
-0.00011812525
-0.00022724819
3.3944462e-12
-8.4111816e-05
-0.00019929291
2.6534661e-12
-5.4665481e-05
-0.0001653892
2.9774867e-12
-3.0907345e-05
-0.00012750102
8.0999055e-12
-1.3644697e-05
-8.7963694e-05
3.7508352e-12
-3.3229895e-06
-4.9326141e-05
-2.5920144e-11
-1.4285543e-05
2.8495205e-11
-4.3334533e-06
3.0368844e-05
-3.5987938e-11
-1.5627795e-05
8.2934084e-05
3.580782e-11
-3.2417912e-05
0.00012724238
-3.4585949e-12
-5.3460307e-05
0.00016363294
-1.0202993e-11
-7.7712457e-05
0.00019267657
-4.3360308e-12
-0.000104311
0.00021503586
-3.9164156e-12
-0.00013254491
0.00023138014
-4.5773505e-12
-0.00016182692
0.00024232509
-4.5873398e-12
-0.00019166587
0.00024839384
-4.4507667e-12
-0.00022164123
0.00024999814
-4.3053698e-12
-0.00025138095
0.0002474363
-4.1111005e-12
-0.00028054263
0.00024090411
-3.8832956e-12
-0.0003087982
0.00023051509
-3.6430914e-12
-0.00033582177
0.00021632633
-3.372791e-12
-0.00036128017
0.00019836721
-3.0280039e-12
-0.00038482594
0.00017666848
-2.5814788e-12
-0.00040609254
0.00015129048
-2.0596591e-12
-0.00042469176
0.00012234971
-1.5316838e-12
-0.00044021382
9.0043675e-05
-1.0423442e-12
-0.00045223063
5.4674017e-05
-5.4675371e-13
-0.00046030302
1.6668011e-05
5.9251234e-14
-0.00046399356
-2.3402211e-05
7.7359652e-13
-0.00046288447
-6.4803062e-05
1.5620845e-12
-0.00045660338
-0.00010662856
2.2462458e-12
-0.00044485605
-0.00014779716
2.7172227e-12
-0.00042746611
-0.00018706035
3.0515324e-12
-0.00040442022
-0.00022302793
3.4171402e-12
-0.00037591561
-0.00025421443
3.846812e-12
-0.00034240456
-0.00027911094
4.1478776e-12
-0.00030462859
-0.00029628403
4.1101791e-12
-0.00026363335
-0.00030449968
3.7877066e-12
-0.00022075513
-0.00030286428
3.4833128e-12
-0.00017757164
-0.00029096745
3.4249823e-12
-0.000135815
-0.00026900481
3.3461561e-12
-9.7251917e-05
-0.00023785597
2.5900675e-12
-6.354483e-05
-0.00019909629
2.9724908e-12
-3.611469e-05
-0.00015493118
8.9733787e-12
-1.602856e-05
-0.00010804983
3.8231803e-12
-3.9298361e-06
-6.1424832e-05
-3.1215737e-11
-1.821541e-05
3.3169667e-11
-4.4872234e-06
3.4856107e-05
-3.7288096e-11
-1.6177324e-05
9.4624149e-05
3.7115348e-11
-3.3549901e-05
0.00014461495
-3.6061012e-12
-5.5314557e-05
0.00018539761
-1.0633363e-11
-8.0390367e-05
0.00021775239
-4.5808958e-12
-0.0001078848
0.0002425303
-4.1555453e-12
-0.00013706724
0.00026056259
-4.8488387e-12
-0.00016734026
0.00027259811
-4.8803347e-12
-0.00019821119
0.00027926477
-4.7777e-12
-0.0002292656
0.00028105256
-4.6770521e-12
-0.00026014366
0.00027831436
-4.5141964e-12
-0.00029051965
0.00027128011
-4.2854289e-12
-0.00032008481
0.00026008025
-4.0255211e-12
-0.00034853316
0.00024477468
-3.7588111e-12
-0.00037554992
0.00022538396
-3.4700992e-12
-0.00040080218
0.00020192072
-3.1092764e-12
-0.00042393159
0.0001744199
-2.6355298e-12
-0.00044454929
0.00014296742
-2.067687e-12
-0.00046223319
0.0001077276
-1.4804803e-12
-0.0004765286
6.8969432e-05
-9.3100782e-13
-0.00048695286
2.7092258e-05
-3.9012176e-13
-0.00049300563
-1.7349464e-05
2.2832523e-13
-0.00049418563
-6.3623077e-05
9.9882899e-13
-0.00049001581
-0.00011079837
1.8473156e-12
-0.00048007772
-0.00015773522
2.5905475e-12
-0.00046405563
-0.00020308243
3.103456e-12
-0.00044178973
-0.00024529385
3.442767e-12
-0.00041333575
-0.00028266846
3.7628138e-12
-0.00037902596
-0.00031342075
4.0937547e-12
-0.00033952332
-0.00033578664
4.2631147e-12
-0.00029585749
-0.00034816548
4.1044927e-12
-0.00024942978
-0.00034929201
3.726086e-12
-0.00020197496
-0.00033842229
3.4511151e-12
-0.00015547284
-0.00031550695
3.2148076e-12
-0.00011201158
-0.00028131722
2.3424972e-12
-7.3617486e-05
-0.00023749038
2.8822454e-12
-4.2076997e-05
-0.00018647168
1.0029905e-11
-1.8784002e-05
-0.00013134284
3.9750877e-12
-4.6400114e-06
-7.5568789e-05
-3.7358821e-11
-2.285546e-05
3.8624143e-11
-4.5902847e-06
3.944643e-05
-3.8242326e-11
-1.655269e-05
0.00010658652
3.7935291e-11
-3.433335e-05
0.00016239562
-3.7712299e-12
-5.6610889e-05
0.00020767516
-1.1001329e-11
-8.2277187e-05
0.00024341869
-4.8464351e-12
-0.00011041819
0.00027067131
-4.4359036e-12
-0.00014028892
0.00029043333
-5.1545545e-12
-0.00017128551
0.00030359471
-5.1900989e-12
-0.00020291688
0.00031089614
-5.0961246e-12
-0.00023477768
0.00031291336
-5.0257865e-12
-0.00026652357
0.00031006026
-4.9099908e-12
-0.00029784945
0.00030260598
-4.7166022e-12
-0.0003284706
0.00029070141
-4.4538568e-12
-0.00035810671
0.0002744108
-4.155483e-12
-0.00038646824
0.0002537455
-3.8530215e-12
-0.00041324484
0.00022869733
-3.5384128e-12
-0.00043809567
0.00019927071
-3.1569796e-12
-0.00046064152
0.00016551327
-2.6538759e-12
-0.00048045931
0.0001275454
-2.0369333e-12
-0.00049707944
8.5589585e-05
-1.381642e-12
-0.00050998717
4.0000002e-05
-7.6116163e-13
-0.00051862936
-8.7072773e-06
-1.6448245e-13
-0.00052242833
-5.9824135e-05
5.0082356e-13
-0.00052080463
-0.0001124221
1.3134384e-12
-0.00051321089
-0.00016532895
2.2038975e-12
-0.0004991782
-0.00021711509
2.9857521e-12
-0.00047837547
-0.00026609657
3.5207846e-12
-0.00045068058
-0.00031036337
3.8442345e-12
-0.00041625891
-0.00034784245
4.084064e-12
-0.00037564086
-0.0003764047
4.2584373e-12
-0.00032978531
-0.00039402101
4.2304837e-12
-0.00028011188
-0.00039896541
3.9407639e-12
-0.00022848371
-0.00039005047
3.5892018e-12
-0.00017712616
-0.00036686453
3.1462306e-12
-0.00012847765
-0.00032996573
1.9938655e-12
-8.498558e-05
-0.00028098245
2.6497911e-12
-4.8878634e-05
-0.00022257863
1.1198536e-11
-2.1960821e-05
-0.00015826066
4.1800073e-12
-5.4696774e-06
-9.2059892e-05
-4.4458099e-11
-2.8325184e-05
4.5000593e-11
-4.6407216e-06
4.4087188e-05
-3.8822556e-11
-1.6747991e-05
0.00011869375
3.8244688e-11
-3.4756315e-05
0.00018040395
-3.967931e-12
-5.7328466e-05
0.00023024732
-1.1300957e-11
-8.3339268e-05
0.0002694295
-5.1100063e-12
-0.00011185972
0.00029919177
-4.7341739e-12
-0.00014213475
0.00032070837
-5.4880393e-12
-0.00017355702
0.00033501699
-5.5331141e-12
-0.00020563943
0.00034297857
-5.4323613e-12
-0.00023798809
0.00034526203
-5.3580779e-12
-0.000270277
0.00034234917
-5.2626794e-12
-0.00030222519
0.00033455417
-5.1138212e-12
-0.00033357653
0.00032205274
-4.8885058e-12
-0.00036408206
0.00030491634
-4.5854709e-12
-0.00039348459
0.00028314803
-4.2379589e-12
-0.000421505
0.00025671775
-3.887245e-12
-0.00044783031
0.00022559603
-3.5339393e-12
-0.00047210322
0.00018978616
-3.1208561e-12
-0.00049391353
0.0001493557
-2.5809919e-12
-0.00051279207
0.00010446813
-1.9093479e-12
-0.00052820806
5.5416014e-05
-1.1799654e-12
-0.00053957137
2.6560527e-06
-4.7498164e-13
-0.00054624181
-5.3153698e-05
1.8389181e-13
-0.0005475474
-0.00011111653
9.0422531e-13
-0.000542815
-0.00017006137
1.7539349e-12
-0.0005314158
-0.00022851428
2.6631958e-12
-0.00051282803
-0.00028468432
3.4472467e-12
-0.00048671735
-0.00033647403
3.9635937e-12
-0.00045303245
-0.00038152737
4.2246705e-12
-0.00041210823
-0.00041732894
4.3195381e-12
-0.00036476274
-0.00044136651
4.2582395e-12
-0.0003123668
-0.00045136134
4.0120182e-12
-0.00025686079
-0.00044555647
3.682355e-12
-0.00020069379
-0.00042303153
3.1119289e-12
-0.00014667113
-0.00038398841
1.6158668e-12
-9.7717404e-05
-0.00032993618
2.3192949e-12
-5.659033e-05
-0.00026370571
1.2470788e-11
-2.5605324e-05