/*--------------------------------*- C++ -*----------------------------------*\
  =========                 |
  \\      /  F ield         | OpenFOAM: The Open Source CFD Toolbox
   \\    /   O peration     | Website:  https://openfoam.org
    \\  /    A nd           | Version:  7
     \\/     M anipulation  |
\*---------------------------------------------------------------------------*/
FoamFile
{
    version     2.0;
    format      ascii;
    class       volVectorField;
    location    "37";
    object      U;
}
// * * * * * * * * * * * * * * * * * * * * * * * * * * * * * * * * * * * * * //

dimensions      [0 1 -1 0 0 0 0];

internalField   nonuniform List<vector> 
16000
(
(6.603574e-05 -6.7341274e-05 -4.1351436e-07)
(0.00016274197 -5.6359495e-05 5.6880251e-06)
(0.00014191873 4.6184896e-07 1.9187989e-05)
(-5.0619171e-05 6.1890571e-05 3.6610508e-05)
(-0.00040997156 0.00011563103 5.471909e-05)
(-0.00090902514 0.00015774386 7.1547543e-05)
(-0.0015177108 0.00018850485 8.5759746e-05)
(-0.0022068855 0.00020960915 9.6540451e-05)
(-0.0029506006 0.00022287679 0.00010342932)
(-0.0037264638 0.00022981112 0.00010617953)
(-0.0045150493 0.00023147719 0.00010466392)
(-0.0052990121 0.00022850408 9.8819378e-05)
(-0.0060621922 0.00022114748 8.8621175e-05)
(-0.0067888636 0.00020938303 7.4079827e-05)
(-0.0074632161 0.00019301358 5.5254116e-05)
(-0.0080691178 0.00017178042 3.2274323e-05)
(-0.0085901707 0.00014547151 5.3704112e-06)
(-0.009010051 0.00011402178 -2.509971e-05)
(-0.0093131035 7.7601263e-05 -5.8626213e-05)
(-0.0094851496 3.6687212e-05 -9.4531538e-05)
(-0.0095144491 -7.8866276e-06 -0.00013196606)
(-0.0093927302 -5.4924235e-05 -0.00016991843)
(-0.0091162239 -0.00010284351 -0.00020724198)
(-0.0086866019 -0.00014974932 -0.00024269881)
(-0.0081116917 -0.00019351201 -0.00027501944)
(-0.0074058961 -0.0002318862 -0.00030297551)
(-0.0065902217 -0.00026266078 -0.0003254608)
(-0.0056918551 -0.00028382695 -0.00034157484)
(-0.0047432605 -0.00029374799 -0.00035070246)
(-0.0037808174 -0.00029131171 -0.00035258184)
(-0.002843064 -0.00027604675 -0.00034735363)
(-0.0019686548 -0.00024818885 -0.00033558598)
(-0.0011941471 -0.0002086976 -0.00031827466)
(-0.00055166644 -0.00015926147 -0.00029682282)
(-6.6502849e-05 -0.00010240695 -0.0002729978)
(0.0002449252 -4.1754813e-05 -0.00024885751)
(0.00037894028 1.7848496e-05 -0.00022678654)
(0.00034977945 6.7070603e-05 -0.00020922393)
(0.0002061854 8.985197e-05 -0.00019883964)
(5.7467063e-05 5.7408988e-05 -0.00018439692)
(5.7998885e-05 -0.00016704057 -6.6430966e-06)
(4.0876843e-05 -3.996272e-05 -3.8891132e-07)
(-0.00029497796 0.00024856477 1.1244667e-05)
(-0.0010110273 0.00056212458 2.5610716e-05)
(-0.0020992317 0.00084749777 4.0595665e-05)
(-0.0035140917 0.001083122 5.4603802e-05)
(-0.0051946899 0.0012643026 6.6507916e-05)
(-0.0070766333 0.001394069 7.5555638e-05)
(-0.0090981536 0.0014779617 8.1265033e-05)
(-0.011202309 0.0015215279 8.3336449e-05)
(-0.013337038 0.0015292117 8.1586681e-05)
(-0.015454181 0.0015039762 7.5905834e-05)
(-0.017508153 0.0014473578 6.623552e-05)
(-0.01945472 0.0013597783 5.2564902e-05)
(-0.02125016 0.0012410021 3.4940044e-05)
(-0.022850979 0.0010906586 1.3482106e-05)
(-0.02421423 0.00090877485 -1.1589881e-05)
(-0.025298436 0.00069627541 -3.9935838e-05)
(-0.026065059 0.00045541399 -7.1075013e-05)
(-0.026480399 0.00019010637 -0.0001043733)
(-0.026517815 -9.3865637e-05 -0.00013904017)
(-0.026159987 -0.00038877581 -0.00017414429)
(-0.025401169 -0.00068509071 -0.00020862966)
(-0.024249169 -0.00097175903 -0.00024136336)
(-0.02272675 -0.001236694 -0.00027118934)
(-0.020872349 -0.0014674284 -0.00029699624)
(-0.018739913 -0.0016519058 -0.00031779275)
(-0.016397718 -0.0017793504 -0.00033278396)
(-0.013926128 -0.0018411454 -0.00034144252)
(-0.011414318 -0.0018316352 -0.00034356842)
(-0.0089560977 -0.0017487771 -0.0003393316)
(-0.006645004 -0.0015945879 -0.00032929162)
(-0.0045688969 -0.0013753899 -0.00031439064)
(-0.0028042251 -0.001101966 -0.00029592069)
(-0.001410021 -0.0007899218 -0.00027547076)
(-0.00042163329 -0.00046058827 -0.00025485183)
(0.00015577195 -0.00014255736 -0.00023597799)
(0.0003567306 0.00012231801 -0.00022087064)
(0.00027526622 0.00027113029 -0.00021163525)
(9.0124589e-05 0.00020509732 -0.00019545399)
(1.9168319e-06 -0.00014896244 -2.0429146e-05)
(-0.00025605143 0.00029702058 -1.1810416e-05)
(-0.0010504549 0.001023625 8.7958554e-08)
(-0.0023878305 0.00179754 1.3068151e-05)
(-0.0042394476 0.0025099044 2.6104415e-05)
(-0.0065455664 0.0031100582 3.8055849e-05)
(-0.009225128 0.0035809267 4.8095586e-05)
(-0.012190003 0.0039234344 5.5663071e-05)
(-0.015352992 0.0041461865 6.0376574e-05)
(-0.018631058 0.0042595921 6.1979276e-05)
(-0.021946081 0.0042728159 6.0298242e-05)
(-0.025224259 0.004192476 5.5215771e-05)
(-0.028394925 0.0040224701 4.6655619e-05)
(-0.031389393 0.003764524 3.4582673e-05)
(-0.034140223 0.0034191701 1.9013036e-05)
(-0.036581146 0.0029869391 3.1153868e-08)
(-0.038647754 0.0024696049 -2.2189248e-05)
(-0.040278948 0.001871358 -4.7363752e-05)
(-0.041419058 0.0011998073 -7.5078671e-05)
(-0.042020506 0.00046672903 -0.00010477888)
(-0.042046771 -0.00031150086 -0.00013576648)
(-0.041475475 -0.0011138126 -0.00016720661)
(-0.040301321 -0.0019148772 -0.00019815253)
(-0.03853856 -0.0026858628 -0.00022758116)
(-0.036222757 -0.0033956785 -0.00025444381)
(-0.033411586 -0.004012608 -0.00027772919)
(-0.030184432 -0.0045062494 -0.00029653449)
(-0.026640648 -0.0048496377 -0.00031013784)
(-0.022896385 -0.0050213887 -0.00031806472)
(-0.019080024 -0.0050076874 -0.00032014141)
(-0.015326332 -0.0048039531 -0.00031653086)
(-0.011769573 -0.0044160682 -0.00030774705)
(-0.0085358373 -0.0038611615 -0.00029464443)
(-0.005734883 -0.0031681028 -0.00027837994)
(-0.0034517059 -0.0023781144 -0.00026035025)
(-0.0017379806 -0.001546188 -0.00024210896)
(-0.0006036832 -0.00074418744 -0.00022526069)
(-8.0351961e-06 -6.6359354e-05 -0.00021139598)
(0.00015540854 0.00036039769 -0.00020220964)
(7.3553769e-05 0.00035437919 -0.00018529703)
(-6.4685109e-05 5.0424754e-05 -3.8681025e-05)
(-0.00060838354 0.0010457605 -2.614233e-05)
(-0.0019305429 0.0023817368 -1.2161036e-05)
(-0.003946444 0.003756519 1.1318664e-06)
(-0.0065890225 0.0050153141 1.3720236e-05)
(-0.009779209 0.0060800634 2.4844551e-05)
(-0.013417137 0.0069205218 3.396758e-05)
(-0.017395541 0.0075341132 4.0754177e-05)
(-0.021607751 0.0079313961 4.4968477e-05)
(-0.025950712 0.0081270399 4.6438553e-05)
(-0.030325869 0.0081347678 4.503351e-05)
(-0.034638819 0.0079650009 4.0647009e-05)
(-0.038798387 0.0076243738 3.3192032e-05)
(-0.042715708 0.0071165067 2.2606353e-05)
(-0.046303776 0.0064435521 8.866367e-06)
(-0.049477694 0.0056081426 -7.99338e-06)
(-0.052155751 0.0046154473 -2.785764e-05)
(-0.054261314 0.0034751099 -5.0507538e-05)
(-0.055725441 0.0022028877 -7.5600123e-05)
(-0.056490043 0.00082185058 -0.00010265396)
(-0.056511342 -0.00063697024 -0.00013104414)
(-0.055763444 -0.0021345971 -0.0001600055)
(-0.054241668 -0.0036248155 -0.00018865629)
(-0.051965317 -0.0050556212 -0.00021603001)
(-0.048979664 -0.0063713936 -0.00024112395)
(-0.04535681 -0.0075157188 -0.00026296014)
(-0.041195193 -0.008434728 -0.0002806554)
(-0.036617536 -0.0090807503 -0.0002934948)
(-0.031767145 -0.0094160273 -0.00030100006)
(-0.02680252 -0.0094162015 -0.00030298381)
(-0.021890419 -0.0090733049 -0.00029958286)
(-0.017197571 -0.0083980413 -0.00029126726)
(-0.012881385 -0.0074212967 -0.00027882459)
(-0.0090800535 -0.0061950236 -0.00026331873)
(-0.0059024816 -0.004792933 -0.00024602241)
(-0.0034184976 -0.0033118187 -0.00022832883)
(-0.0016495317 -0.0018745332 -0.00021166199)
(-0.00055980037 -0.00063470772 -0.00019740831)
(-5.0114612e-05 0.00021500309 -0.00018680239)
(3.8094588e-05 0.00041383221 -0.00016799391)
(-0.00013086602 0.00044556255 -5.8197271e-05)
(-0.00097095237 0.0022426868 -4.1132295e-05)
(-0.0028462164 0.0043591812 -2.4249949e-05)
(-0.0055648184 0.00645721 -9.8176461e-06)
(-0.0090094471 0.0083534723 3.1010037e-06)
(-0.013075466 0.0099514493 1.4081149e-05)
(-0.017642283 0.011211746 2.2859698e-05)
(-0.022584683 0.012129582 2.9331858e-05)
(-0.027779634 0.012717524 3.3420574e-05)
(-0.033108114 0.012994146 3.505306e-05)
(-0.038455495 0.012977365 3.4151962e-05)
(-0.043711127 0.012681214 3.06288e-05)
(-0.048767518 0.012115128 2.438667e-05)
(-0.05351963 0.011284986 1.5332045e-05)
(-0.057864698 0.010195259 3.3936217e-06)
(-0.061702792 0.0088517402 -1.1453981e-05)
(-0.064938226 0.0072644389 -2.9164024e-05)
(-0.067481791 0.0054502908 -4.9591349e-05)
(-0.069253699 0.0034354344 -7.2468425e-05)
(-0.070187071 0.0012568424 -9.7386751e-05)
(-0.070231722 -0.0010368523 -0.00012378693)
(-0.069358013 -0.0033854762 -0.00015096026)
(-0.06756046 -0.0057183962 -0.00017806566)
(-0.064860796 -0.0079566864 -0.00020416173)
(-0.061310198 -0.010016303 -0.00022825444)
(-0.056990363 -0.01181219 -0.00024935822)
(-0.052013152 -0.013263141 -0.00026656681)
(-0.04651856 -0.014297145 -0.00027912903)
(-0.040670851 -0.014856889 -0.0002865216)
(-0.034652767 -0.014904997 -0.00028850909)
(-0.028657899 -0.014428608 -0.00028518077)
(-0.022881407 -0.013442968 -0.00027695803)
(-0.017509482 -0.011993825 -0.00026457234)
(-0.012708058 -0.010158716 -0.00024901742)
(-0.0086114664 -0.0080474998 -0.00023147723)
(-0.0053117536 -0.0058029607 -0.00021323707)
(-0.0028485191 -0.0036024767 -0.0001956145)
(-0.0012000344 -0.0016605451 -0.00017987104)
(-0.00028880971 -0.00023377969 -0.00016672474)
(-2.4715274e-06 0.00035046371 -0.0001454904)
(-0.00019286534 0.001031304 -7.667755e-05)
(-0.0013239882 0.0038925285 -5.4773854e-05)
(-0.0037518605 0.0069679934 -3.4569087e-05)
(-0.0071733046 0.0099108133 -1.8475684e-05)
(-0.011414813 0.012527393 -4.6799924e-06)
(-0.016341489 0.0147145 6.682871e-06)
(-0.021809625 0.016430499 1.5599851e-05)
(-0.027675882 0.017672016 2.2185455e-05)
(-0.0338024 0.018455246 2.6518171e-05)
(-0.04005685 0.018803212 2.8624807e-05)
(-0.046311839 0.018738077 2.8482645e-05)
(-0.052444061 0.018277406 2.6020727e-05)
(-0.058333355 0.017433434 2.1129471e-05)
(-0.063862061 0.016214493 1.3678647e-05)
(-0.068914991 0.014627822 3.5416539e-06)
(-0.073380201 0.012683107 -9.3756635e-06)
(-0.077150612 0.010396209 -2.5103766e-05)
(-0.080126452 0.0077926362 -4.357815e-05)
(-0.082218391 0.0049104444 -6.4610545e-05)
(-0.083351217 0.0018022808 -8.7865284e-05)
(-0.08346782 -0.0014636094 -0.00011284405)
(-0.082533259 -0.0048035799 -0.00013888289)
(-0.08053865 -0.0081200478 -0.00016516382)
(-0.077504583 -0.011304335 -0.00019074507)
(-0.07348376 -0.014240831 -0.00021460877)
(-0.068562531 -0.01681239 -0.00023572433)
(-0.062861003 -0.018906781 -0.00025312312)
(-0.056531399 -0.020423859 -0.00026597826)
(-0.049754415 -0.021283049 -0.00027368274)
(-0.042733401 -0.02143061 -0.00027591662)
(-0.035686356 -0.02084612 -0.00027269234)
(-0.028835913 -0.019547673 -0.00026436778)
(-0.022397705 -0.017595392 -0.00025162298)
(-0.01656776 -0.015093168 -0.00023540444)
(-0.011509866 -0.012188858 -0.00021684356)
(-0.0073438986 -0.0090736714 -0.00019716613)
(-0.0041345353 -0.0059816738 -0.00017765153)
(-0.0018815976 -0.0031890391 -0.00015953691)
(-0.00053619203 -0.001014323 -0.00014314467)
(-4.12455e-05 0.00015894816 -0.00011905244)
(-0.00025011691 0.0017985685 -9.216435e-05)
(-0.001659774 0.0059841365 -6.5274416e-05)
(-0.0046244589 0.010198611 -4.1587949e-05)
(-0.0087321733 0.014107015 -2.3533143e-05)
(-0.013751609 0.017522331 -8.4948607e-06)
(-0.019515084 0.020347113 3.6440794e-06)
(-0.025854149 0.022545921 1.3095502e-05)
(-0.032607012 0.024122 2.0175382e-05)
(-0.039621884 0.025098106 2.5105879e-05)
(-0.046755012 0.025503176 2.800529e-05)
(-0.053868799 0.025364227 2.8899273e-05)
(-0.060830246 0.024702536 2.7728595e-05)
(-0.067509639 0.023533173 2.4364756e-05)
(-0.073779766 0.021866977 1.8633728e-05)
(-0.079515876 0.019714122 1.0345606e-05)
(-0.0845965 0.017088489 -6.7126521e-07)
(-0.088905126 0.014012233 -1.4533381e-05)
(-0.092332701 0.010520008 -3.1264736e-05)
(-0.09478082 0.006662481 -5.0761828e-05)
(-0.096165465 0.0025088063 -7.2763972e-05)
(-0.096421118 -0.0018521453 -9.6832143e-05)
(-0.095505027 -0.0063119941 -0.00012234071)
(-0.09340143 -0.01074459 -0.00014848318)
(-0.090125477 -0.015009423 -0.00017429922)
(-0.085726501 -0.018956668 -0.0001987209)
(-0.080290339 -0.022433823 -0.00022063883)
(-0.073940281 -0.025293747 -0.00023898285)
(-0.06683624 -0.027403769 -0.00025280968)
(-0.059171753 -0.028655376 -0.00026138884)
(-0.051168506 -0.028973822 -0.0002642781)
(-0.043068246 -0.028326925 -0.00026137858)
(-0.035122196 -0.026732281 -0.00025295879)
(-0.027578338 -0.024262244 -0.00023963872)
(-0.020667345 -0.021046306 -0.0002223326)
(-0.014588349 -0.0172709 -0.00020215577)
(-0.0094958188 -0.013177224 -0.00018032555)
(-0.0054864887 -0.0090579297 -0.00015814729)
(-0.0025879518 -0.0052522183 -0.00013691531)
(-0.00078446835 -0.0021405356 -0.00011663324)
(-7.6873175e-05 -0.00016053804 -8.9428776e-05)
(-0.00030295638 0.0027365275 -0.00010298795)
(-0.0019754999 0.0084981006 -7.1017396e-05)
(-0.0054521436 0.014028575 -4.3869472e-05)
(-0.010217976 0.01902139 -2.3724718e-05)
(-0.015985185 0.023311096 -7.2294575e-06)
(-0.022552803 0.026818198 5.9594469e-06)
(-0.029727189 0.029522434 1.6256696e-05)
(-0.037328212 0.031439781 2.4160166e-05)
(-0.045190989 0.032603408 3.0019867e-05)
(-0.053161894 0.033050378 3.4032681e-05)
(-0.06109525 0.032813697 3.6261738e-05)
(-0.068850861 0.031918829 3.6649866e-05)
(-0.076292141 0.030383788 3.5040558e-05)
(-0.08328499 0.028221863 3.1207027e-05)
(-0.08969755 0.025446022 2.4886996e-05)
(-0.09540089 0.022074172 1.5821933e-05)
(-0.10027057 0.01813457 3.7995203e-06)
(-0.10418904 0.013670803 -1.1302644e-05)
(-0.10704872 0.008745929 -2.9474967e-05)
(-0.10875573 0.0034454469 -5.0538765e-05)
(-0.10923405 -0.0021211636 -7.4117961e-05)
(-0.10842999 -0.0078205191 -9.9624967e-05)
(-0.10631683 -0.013497149 -0.00012625959)
(-0.10289944 -0.018977286 -0.00015303222)
(-0.098218423 -0.024074606 -0.00017880663)
(-0.092353556 -0.028597962 -0.00020236684)
(-0.085426034 -0.032360981 -0.00022250364)
(-0.077598899 -0.035193192 -0.00023811284)
(-0.069075166 -0.03695216 -0.00024829416)
(-0.06009312 -0.037535851 -0.00025243919)
(-0.050918475 -0.03689426 -0.00025029833)
(-0.04183336 -0.035039217 -0.00024201731)
(-0.033122486 -0.032051382 -0.0002281346)
(-0.0250573 -0.028083647 -0.00020953213)
(-0.017879649 -0.02336068 -0.00018733666)
(-0.01178648 -0.018174998 -0.0001628081)
(-0.0069140679 -0.012880397 -0.00013734348)
(-0.0033238373 -0.0078822628 -0.0001123706)
(-0.001036862 -0.0036261495 -8.7662912e-05)
(-0.00011093464 -0.00060701943 -5.7223809e-05)
(-0.00035169333 0.00383382 -0.00010768478)
(-0.0022696865 0.011410359 -7.0528588e-05)
(-0.0062274804 0.018427298 -4.0050672e-05)
(-0.011614751 0.024619955 -1.7800114e-05)
(-0.018090319 0.029857558 2.6393002e-07)
(-0.025421024 0.034089876 1.4693257e-05)
(-0.033388717 0.037320711 2.6087435e-05)
(-0.041795673 0.039585246 3.5107376e-05)
(-0.050464969 0.04093144 4.221411e-05)
(-0.05923459 0.041407235 4.7668395e-05)
(-0.067952673 0.041053181 5.1557876e-05)
(-0.076474037 0.039899664 5.3815884e-05)
(-0.084657594 0.037967838 5.4247189e-05)
(-0.09236471 0.035273269 5.2561816e-05)
(-0.099458587 0.031831288 4.8414609e-05)
(-0.10580462 0.027663182 4.1449328e-05)
(-0.11127168 0.022802463 3.1346322e-05)
(-0.11573422 0.017300629 1.7872265e-05)
(-0.11907516 0.011231986 9.2944993e-07)
(-0.12118941 0.0046971944 -1.9398674e-05)
(-0.12198808 -0.0021747099 -4.2810264e-05)
(-0.12140312 -0.0092260667 -6.8763691e-05)
(-0.11939247 -0.016272192 -9.6467162e-05)
(-0.11594548 -0.023105287 -0.00012489783)
(-0.11108822 -0.029500579 -0.00015283952)
(-0.1048884 -0.035224939 -0.00017894808)
(-0.09745931 -0.04004791 -0.0002018413)
(-0.088962028 -0.043754918 -0.00022020738)
(-0.079605253 -0.046162113 -0.00023292066)
(-0.069641887 -0.047131958 -0.00023914957)
(-0.059361864 -0.046588359 -0.00023844224)
(-0.049080953 -0.044529873 -0.00023077934)
(-0.039125754 -0.041039496 -0.00021658696)
(-0.029815743 -0.036289758 -0.00019670129)
(-0.021444141 -0.03054238 -0.00017227351)
(-0.014259508 -0.024142638 -0.00014464936)
(-0.0084461213 -0.017509198 -0.00011538443)
(-0.0041057549 -0.011119103 -8.6118055e-05)
(-0.0013000791 -0.0054896935 -5.6457893e-05)
(-0.00014466051 -0.0011817407 -2.2505887e-05)
(-0.00039639261 0.005078674 -0.00010493572)
(-0.0025408055 0.014693486 -6.2455421e-05)
(-0.0069442146 0.023357978 -2.8849342e-05)
(-0.012909249 0.030860809 -4.5477903e-06)
(-0.02004566 0.03711735 1.5132038e-05)
(-0.028090313 0.042116906 3.0939333e-05)
(-0.036802157 0.045895786 4.3644196e-05)
(-0.045967207 0.048514817 5.4053511e-05)
(-0.055397846 0.050041362 6.27232e-05)
(-0.064925214 0.050537305 6.9963275e-05)
(-0.074393074 0.050052595 7.5872733e-05)
(-0.083653294 0.048623486 8.0363545e-05)
(-0.092562454 0.046274534 8.3190712e-05)
(-0.10097956 0.043023317 8.3990063e-05)
(-0.10876487 0.038886824 8.2321899e-05)
(-0.11577978 0.033888624 7.7719522e-05)
(-0.12188764 0.028066013 6.9741822e-05)
(-0.12695539 0.0214766 5.8028662e-05)
(-0.13085612 0.014203879 4.2357106e-05)
(-0.13347226 0.0063614893 2.269578e-05)
(-0.13469976 -0.0019040848 -7.4746858e-07)
(-0.13445282 -0.010412653 -2.749662e-05)
(-0.13266959 -0.018951376 -5.6779306e-05)
(-0.12931855 -0.027278401 -8.754434e-05)
(-0.12440508 -0.035129032 -0.00011849038)
(-0.11797826 -0.042224887 -0.00014812836)
(-0.11013685 -0.048286162 -0.00017487265)
(-0.10103395 -0.053046896 -0.00019715739)
(-0.09087908 -0.056272745 -0.0002135694)
(-0.079936766 -0.057780331 -0.00022298185)
(-0.068520632 -0.057456691 -0.00022466926)
(-0.056982431 -0.055276922 -0.00021838685)
(-0.045695957 -0.051317902 -0.00020440454)
(-0.035036659 -0.045766096 -0.00018348818)
(-0.025358974 -0.038918053 -0.00015681314)
(-0.016973701 -0.031173318 -0.0001258417)
(-0.010123128 -0.023020491 -9.2350699e-05)
(-0.0049573026 -0.015016289 -5.8272394e-05)
(-0.0015839107 -0.0077601706 -2.3100071e-05)
(-0.0001800045 -0.0018919988 1.4764962e-05)
(-0.00043687342 0.0064585687 -9.3538347e-05)
(-0.0027868526 0.018316902 -4.5559185e-05)
(-0.0075959006 0.028778325 -9.0748632e-06)
(-0.014088641 0.037694911 1.717894e-05)
(-0.021830808 0.045038215 3.8482732e-05)
(-0.030532269 0.050846278 5.5775121e-05)
(-0.039931319 0.055195698 6.9985191e-05)
(-0.049799509 0.058179124 8.2050909e-05)
(-0.059940134 0.059887928 9.2608673e-05)
(-0.070179116 0.060401154 0.00010200448)
(-0.080357619 0.0597802 0.00011033657)
(-0.090326505 0.058068285 0.00011748452)
(-0.099942078 0.055293693 0.00012314317)
(-0.10906305 0.051475675 0.00012686352)
(-0.11754872 0.046631956 0.00012809936)
(-0.12525817 0.040786892 0.00012625925)
(-0.1320505 0.033979547 0.00012076355)
(-0.13778589 0.026271127 0.00011110522)
(-0.14232753 0.017751398 9.6912871e-05)
(-0.14554451 0.0085438153 7.801401e-05)
(-0.14731571 -0.0011908566 5.4494203e-05)
(-0.14753461 -0.011252633 2.673119e-05)
(-0.14611543 -0.021402752 -4.5440941e-06)
(-0.14300051 -0.03136623 -3.8270193e-05)
(-0.13816825 -0.040837685 -7.3065471e-05)
(-0.13164196 -0.049490595 -0.00010728524)
(-0.1234984 -0.056990431 -0.00013911259)
(-0.11387531 -0.063011808 -0.00016668104)
(-0.10297654 -0.067259345 -0.00018822332)
(-0.091073521 -0.069491282 -0.00020223298)
(-0.078501389 -0.069544185 -0.00020761776)
(-0.065648984 -0.067356338 -0.00020382004)
(-0.05294201 -0.062986917 -0.00019088568)
(-0.040820057 -0.056628016 -0.00016946895)
(-0.029709664 -0.048607163 -0.00014075669)
(-0.019996219 -0.039379405 -0.00010634661)
(-0.01199217 -0.029509502 -6.8292307e-05)
(-0.0059060239 -0.019644351 -2.8901424e-05)
(-0.0018995937 -0.010479296 1.2407068e-05)
(-0.00021911043 -0.0027504899 5.4745232e-05)
(-0.0004727609 0.0079598526 -7.2401829e-05)
(-0.0030053073 0.022246664 -1.8718192e-05)
(-0.0081754824 0.034640709 2.035881e-05)
(-0.015139639 0.045066386 4.843935e-05)
(-0.023425073 0.053560161 7.1354376e-05)
(-0.032718089 0.0602169 9.022501e-05)
(-0.042738979 0.065160512 0.00010612942)
(-0.053246922 0.068521224 0.00012012381)
(-0.064037879 0.070418875 0.00013291289)
(-0.074934237 0.070952914 0.00014486765)
(-0.085776308 0.070198354 0.0001560756)
(-0.096415823 0.068206609 0.00016637465)
(-0.1067108 0.065010083 0.00017539051)
(-0.11652173 0.060629347 0.00018257981)
(-0.12570894 0.05508178 0.00018727842)
(-0.13413109 0.04839075 0.00018875544)
(-0.14164461 0.040594626 0.00018627341)
(-0.14810401 0.031755108 0.00017915409)
(-0.15336319 0.021964578 0.00016684831)
(-0.15727765 0.011352261 0.00014900701)
(-0.15970802 8.9014533e-05 0.00012555031)
(-0.16052491 -0.01160944 9.6738544e-05)
(-0.15961528 -0.023481692 6.3200662e-05)
(-0.15689041 -0.035221785 2.597978e-05)
(-0.15229556 -0.04648402 -1.3481207e-05)
(-0.14582082 -0.056891689 -5.3382869e-05)
(-0.13751249 -0.066050533 -9.1654768e-05)
(-0.12748403 -0.073567425 -0.00012608291)
(-0.11592513 -0.079074256 -0.0001544742)
(-0.10310686 -0.082256239 -0.00017484716)
(-0.089381228 -0.082882837 -0.00018562924)
(-0.075173046 -0.080838446 -0.00018583216)
(-0.060963174 -0.076149008 -0.00017517503)
(-0.047263088 -0.069000361 -0.00015412974)
(-0.03458309 -0.059744611 -0.00012386259)
(-0.023397396 -0.048892503 -8.6113909e-05)
(-0.014103445 -0.037091894 -4.3263608e-05)
(-0.0069814325 -0.02509262 1.9219573e-06)
(-0.0022590056 -0.013702947 5.0069242e-05)
(-0.00026414579 -0.0037760388 9.7625552e-05)
(-0.00050355112 0.0095674414 -4.0556367e-05)
(-0.0031932762 0.026445188 1.9059996e-05)
(-0.0086754055 0.040892098 6.0415907e-05)
(-0.016048495 0.052912584 9.0181542e-05)
(-0.024807365 0.062615415 0.00011468545)
(-0.034618418 0.070159219 0.00013522402)
(-0.045186793 0.075721402 0.00015301532)
(-0.056261501 0.079475002 0.00016922256)
(-0.067632969 0.081572544 0.00018460911)
(-0.07912171 0.082137089 0.00019956284)
(-0.090568868 0.081259513 0.0002141535)
(-0.10182885 0.079000768 0.00022817092)
(-0.11276335 0.075397888 0.00024116499)
(-0.12323669 0.070472445 0.00025249019)
(-0.13311239 0.064240356 0.00026135431)
(-0.14225078 0.056722069 0.00026687283)
(-0.1505076 0.047952509 0.0002681305)
(-0.15773347 0.037990335 0.00026425069)
(-0.16377428 0.026926305 0.00025447152)
(-0.16847277 0.014890606 0.00023822616)
(-0.17167132 0.0020590338 0.00021522452)
(-0.1732166 -0.011342254 0.00018554233)
(-0.17296593 -0.025033763 0.00014966705)
(-0.17079571 -0.038682244 0.00010856936)
(-0.16661243 -0.051903616 6.3712592e-05)
(-0.1603655 -0.064270375 1.7030967e-05)
(-0.15206157 -0.075324602 -2.9143081e-05)
(-0.14177939 -0.084597516 -7.2206239e-05)
(-0.12968348 -0.091636038 -0.00010946363)
(-0.11603435 -0.096035942 -0.0001383509)
(-0.10119274 -0.097479892 -0.00015668095)
(-0.085615081 -0.095777101 -0.00016288557)
(-0.069838047 -0.09089983 -0.00015621338)
(-0.05445142 -0.083010924 -0.00013684024)
(-0.040061182 -0.072476741 -0.00010584651)
(-0.027246484 -0.05986171 -6.5103603e-05)
(-0.016507704 -0.045903613 -1.7361911e-05)
(-0.0082137705 -0.031469865 3.4066166e-05)
(-0.0026743198 -0.017501842 8.9832088e-05)
(-0.00031729567 -0.0049938547 0.00014354925)
(-0.00052868072 0.011264647 2.8282512e-06)
(-0.0033477389 0.030871102 6.861999e-05)
(-0.0090880529 0.047474049 0.00011191805)
(-0.016801586 0.061164141 0.00014321716)
(-0.025956888 0.072128392 0.00016928356)
(-0.03620418 0.080594904 0.00019158056)
(-0.047236292 0.086799855 0.00021145725)
(-0.058794241 0.09096376 0.00023017406)
(-0.070664652 0.09327576 0.00024854579)
(-0.082667717 0.093885663 0.00026697228)
(-0.094646992 0.09290252 0.00028550217)
(-0.10646127 0.090398316 0.00030387443)
(-0.11797781 0.086415374 0.00032155988)
(-0.12906689 0.0809761 0.00033780578)
(-0.13959748 0.074093911 0.00035168374)
(-0.14943401 0.065784411 0.00036214288)
(-0.15843403 0.056076242 0.00036807082)
(-0.1664467 0.045021273 0.0003683645)
(-0.17331223 0.032704005 0.00036201108)
(-0.17886253 0.019250184 0.00034817759)
(-0.18292317 0.0048345354 0.00032630699)
(-0.18531737 -0.010312569 0.00029621915)
(-0.18587199 -0.025899804 0.00025819547)
(-0.18442618 -0.041572071 0.00021306357)
(-0.18084314 -0.056910851 0.00016224485)
(-0.17502466 -0.071439349 0.00010776375)
(-0.16692827 -0.084633985 5.2199854e-05)
(-0.15658626 -0.095943785 -1.4284277e-06)
(-0.1441246 -0.10481882 -4.9852165e-05)
(-0.12977948 -0.11074795 -8.9806111e-05)
(-0.113908 -0.11330452 -0.00011833143)
(-0.096989365 -0.11219671 -0.00013309618)
(-0.079612824 -0.10731674 -0.00013268858)
(-0.062450281 -0.098781323 -0.00011682166)
(-0.046214678 -0.08695499 -8.6375018e-05)
(-0.031607743 -0.072449905 -4.3306278e-05)
(-0.019254151 -0.05609926 9.2305934e-06)
(-0.0096331376 -0.038903925 6.7283421e-05)
(-0.0031578292 -0.021961652 0.00013151136)
(-0.00038078507 -0.0064355922 0.00019253786)
(-0.00054759923 0.013033167 5.8419396e-05)
(-0.003465858 0.035479371 0.00013063692)
(-0.0094063974 0.054322966 0.000175522)
(-0.017386396 0.069745283 0.00020819596)
(-0.026854434 0.082015886 0.00023579503)
(-0.037448152 0.091436747 0.00025993974)
(-0.048850772 0.09830714 0.00028210157)
(-0.060797321 0.10289912 0.00030362992)
(-0.073072175 0.10544207 0.00032538652)
(-0.085496588 0.1061156 0.0003477817)
(-0.097917944 0.10504935 0.00037084353)
(-0.110201 0.10232798 0.00039426166)
(-0.12222042 0.098000026 0.0004174289)
(-0.13385451 0.092088783 0.00043948432)
(-0.14498014 0.084604366 0.00045935856)
(-0.15546857 0.075555804 0.00047582411)
(-0.16518214 0.064962752 0.000487554)
(-0.17397175 0.052866567 0.00049319178)
(-0.1816753 0.039340757 0.00049143495)
(-0.18811715 0.02450089 0.00048113213)
(-0.19310911 0.008514007 0.00046139277)
(-0.19645327 -0.0083925671 0.00043170606)
(-0.19794729 -0.025923366 0.00039205776)
(-0.19739265 -0.043708866 0.00034304291)
(-0.19460649 -0.06130252 0.00028595448)
(-0.1894373 -0.078182567 0.00022283388)
(-0.18178453 -0.093760679 0.00015646183)
(-0.17162149 -0.10739972 9.0269049e-05)
(-0.15902009 -0.11844267 2.8152804e-05)
(-0.14417482 -0.12625404 -2.5803195e-05)
(-0.1274219 -0.13027327 -6.7691557e-05)
(-0.1092488 -0.1300771 -9.4194681e-05)
(-0.090288546 -0.12544457 -0.00010299723)
(-0.071294712 -0.11641496 -9.3118615e-05)
(-0.053096436 -0.10332683 -6.5057737e-05)
(-0.036536434 -0.086827868 -2.0762023e-05)
(-0.022388439 -0.067848915 3.6202399e-05)
(-0.011268762 -0.047540428 0.00010114634)
(-0.003721843 -0.02718272 0.0001747173)
(-0.0004569116 -0.0081393814 0.0002444138)
(-0.00055984474 0.014853262 0.00012669727)
(-0.0035453381 0.040221773 0.00020559509)
(-0.0096248091 0.061370774 0.00025169864)
(-0.017792804 0.078574523 0.00028558218)
(-0.027484127 0.092187637 0.00031467675)
(-0.038327158 0.10258894 0.00034074879)
(-0.049997927 0.11014417 0.0003653841)
(-0.0622272 0.11518036 0.00039001481)
(-0.074798405 0.11797047 0.00041554824)
(-0.087535018 0.11872694 0.00044240763)
(-0.10028947 0.11760246 0.00047060523)
(-0.11293389 0.11469632 0.00049978743)
(-0.12535205 0.11006441 0.00052927501)
(-0.13743243 0.10373138 0.00055810287)
(-0.14906227 0.095703593 0.00058506074)
(-0.16012262 0.085982162 0.0006087385)
(-0.17048407 0.074575411 0.00062758057)
(-0.18000324 0.061510784 0.00063995305)
(-0.18852004 0.046846251 0.00064422719)
(-0.19585596 0.030681467 0.00063888144)
(-0.20181373 0.013168864 0.00062262263)
(-0.20617875 -0.0054753475 0.00059452411)
(-0.20872309 -0.024960523 0.00055417392)
(-0.20921262 -0.044912157 0.00050182334)
(-0.20741815 -0.064864851 0.00043852291)
(-0.20313138 -0.084259649 0.00036622479)
(-0.19618605 -0.10244829 0.00028782681)
(-0.18648428 -0.11870744 0.0002071294)
(-0.17402711 -0.13226602 0.0001286778)
(-0.15894667 -0.14234852 5.7472898e-05)
(-0.14153584 -0.14823508 -1.446366e-06)
(-0.12226912 -0.14933665 -4.3520223e-05)
(-0.10180729 -0.14527869 -6.5226892e-05)
(-0.080978722 -0.13598181 -6.4584104e-05)
(-0.060733904 -0.12172371 -4.14469e-05)
(-0.042074313 -0.1031659 2.4167823e-06)
(-0.025950477 -0.081333239 6.3063653e-05)
(-0.01314824 -0.057540536 0.00013497667)
(-0.0043785969 -0.033279403 0.00021876887)
(-0.00054808329 -0.010149842 0.0002987136)
(-0.00056512282 0.016704136 0.00020793276)
(-0.0035848224 0.045047812 0.00029377021)
(-0.0097399832 0.068546097 0.00034071636)
(-0.018014597 0.087565897 0.00037563565)
(-0.027835516 0.10254741 0.00040617259)
(-0.038824727 0.11394789 0.00043422678)
(-0.050653064 0.12220187 0.00046149139)
(-0.063048415 0.12769429 0.00048947771)
(-0.075794271 0.13074478 0.00051914117)
(-0.088717237 0.13160154 0.00055092481)
(-0.10167579 0.13044301 0.00058483463)
(-0.11455071 0.12738526 0.00062048459)
(-0.12723645 0.12249312 0.00065713437)
(-0.13963366 0.11579341 0.00069372414)
(-0.15164252 0.10728887 0.0007289086)
(-0.16315701 0.096971893 0.00076109504)
(-0.17405977 0.084837726 0.00078849096)
(-0.18421763 0.07089708 0.00080916617)
(-0.19347777 0.055188371 0.00082113383)
(-0.2016647 0.03778998 0.00082245452)
(-0.20857841 0.018832873 0.00081136575)
(-0.21399413 -0.0014862889 0.00078643724)
(-0.21766445 -0.022891662 0.00074674943)
(-0.2193246 -0.045015032 0.0006920808)
(-0.21870194 -0.06738415 0.00062309839)
(-0.21553095 -0.089414505 0.00054152246)
(-0.20957471 -0.11040752 0.00045023945)
(-0.20065358 -0.12955895 0.00035332617)
(-0.1886808 -0.14598189 0.00025594426)
(-0.17370326 -0.15874899 0.00016406928)
(-0.15594313 -0.16695711 8.4037559e-05)
(-0.1358334 -0.16981459 2.1926143e-05)
(-0.11403768 -0.16674578 -1.7176315e-05)
(-0.091443303 -0.15750013 -2.9888567e-05)
(-0.069120478 -0.14224564 -1.5053109e-05)
(-0.048244337 -0.1216226 2.6010682e-05)
(-0.029971802 -0.096736571 8.9086522e-05)
(-0.01529662 -0.069077569 0.00016776212)
(-0.0051401269 -0.040378989 0.00026259345)
(-0.00065685495 -0.01251807 0.00035458585)
(-0.00056338829 0.018564535 0.00030217073)
(-0.0035843187 0.049906097 0.0003952183)
(-0.0097519599 0.075776046 0.00044263185)
(-0.018051164 0.096630826 0.0004784006)
(-0.027905938 0.11299473 0.00051029738)
(-0.038934098 0.12540357 0.00054034157)
(-0.050802752 0.13436219 0.00057032865)
(-0.063237892 0.14031586 0.00060184938)
(-0.076023789 0.14363373 0.00063591453)
(-0.08899087 0.1446028 0.00067299911)
(-0.1020045 0.14343008 0.00071311772)
(-0.11495518 0.1402509 0.00075586794)
(-0.12774955 0.13514102 0.00080046431)
(-0.14030233 0.12813081 0.00084576693)
(-0.15252914 0.11922004 0.00089030727)
(-0.16434008 0.10839231 0.00093231687)
(-0.17563382 0.095628825 0.00096976569)