/*--------------------------------*- C++ -*----------------------------------*\
  =========                 |
  \\      /  F ield         | OpenFOAM: The Open Source CFD Toolbox
   \\    /   O peration     | Website:  https://openfoam.org
    \\  /    A nd           | Version:  7
     \\/     M anipulation  |
\*---------------------------------------------------------------------------*/
FoamFile
{
    version     2.0;
    format      ascii;
    class       volVectorField;
    location    "37";
    object      U_0;
}
// * * * * * * * * * * * * * * * * * * * * * * * * * * * * * * * * * * * * * //

dimensions      [0 1 -1 0 0 0 0];

internalField   nonuniform List<vector> 
16000
(
(6.6035711e-05 -6.7341161e-05 -4.1348278e-07)
(0.00016274188 -5.6359422e-05 5.6880135e-06)
(0.00014191872 4.6181839e-07 1.9187898e-05)
(-5.061907e-05 6.1890426e-05 3.6610377e-05)
(-0.00040997166 0.00011563098 5.471892e-05)
(-0.00090902551 0.00015774405 7.1547267e-05)
(-0.001517711 0.00018850506 8.5759362e-05)
(-0.0022068852 0.00020960907 9.6540088e-05)
(-0.0029506001 0.00022287647 0.00010342912)
(-0.0037264637 0.0002298109 0.0001061795)
(-0.0045150496 0.00023147728 0.00010466396)
(-0.0052990123 0.00022850436 9.8819448e-05)
(-0.0060621921 0.00022114767 8.8621313e-05)
(-0.0067888632 0.00020938293 7.4080089e-05)
(-0.0074632156 0.00019301324 5.5254512e-05)
(-0.0080691175 0.00017178011 3.22748e-05)
(-0.008590171 0.00014547159 5.3708497e-06)
(-0.0090100518 0.00011402237 -2.5099448e-05)
(-0.009313104 7.7601902e-05 -5.8626177e-05)
(-0.009485149 3.6687139e-05 -9.4531561e-05)
(-0.0095144479 -7.887669e-06 -0.00013196587)
(-0.0093927295 -5.4925412e-05 -0.00016991796)
(-0.009116225 -0.00010284348 -0.00020724149)
(-0.0086866043 -0.00014974762 -0.00024269874)
(-0.0081116932 -0.00019351004 -0.00027501991)
(-0.0074058945 -0.00023188629 -0.00030297603)
(-0.0065902178 -0.00026266367 -0.00032546062)
(-0.0056918529 -0.00028383011 -0.00034157379)
(-0.0047432637 -0.00029374753 -0.00035070145)
(-0.0037808239 -0.00029130683 -0.00035258215)
(-0.0028430667 -0.00027604212 -0.00034735541)
(-0.0019686486 -0.00024819052 -0.00033558757)
(-0.0011941372 -0.0002087054 -0.00031827404)
(-0.00055166483 -0.00015926687 -0.00029682027)
(-6.6514209e-05 -0.00010240193 -0.00027299629)
(0.0002449122 -4.1743275e-05 -0.00024885946)
(0.00037894439 1.7852016e-05 -0.00022679047)
(0.00034980276 6.7055293e-05 -0.00020922436)
(0.00020620794 8.9827505e-05 -0.00019883366)
(5.7474323e-05 5.7396942e-05 -0.00018438756)
(5.7998851e-05 -0.00016704039 -6.6430066e-06)
(4.0876666e-05 -3.9962529e-05 -3.8886465e-07)
(-0.00029497811 0.00024856488 1.1244578e-05)
(-0.0010110271 0.00056212435 2.561052e-05)
(-0.0020992314 0.00084749742 4.0595462e-05)
(-0.0035140917 0.001083122 5.4603592e-05)
(-0.0051946904 0.001264303 6.6507603e-05)
(-0.0070766336 0.0013940692 7.5555218e-05)
(-0.0090981535 0.0014779613 8.1264673e-05)
(-0.011202308 0.0015215273 8.3336313e-05)
(-0.013337038 0.0015292115 8.1586772e-05)
(-0.015454181 0.0015039765 7.5906038e-05)
(-0.017508154 0.0014473583 6.6235743e-05)
(-0.01945472 0.0013597786 5.2565116e-05)
(-0.021250159 0.0012410019 3.4940275e-05)
(-0.022850978 0.0010906579 1.3482417e-05)
(-0.024214229 0.00090877432 -1.1589452e-05)
(-0.025298436 0.00069627577 -3.9935376e-05)
(-0.02606506 0.0004554153 -7.1074767e-05)
(-0.026480401 0.00019010748 -0.00010437344)
(-0.026517815 -9.3866218e-05 -0.00013904052)
(-0.026159986 -0.00038877814 -0.00017414439)
(-0.025401167 -0.00068509276 -0.00020862917)
(-0.024249169 -0.00097175822 -0.00024136254)
(-0.022726753 -0.0012366901 -0.00027118895)
(-0.020872353 -0.0014674251 -0.00029699684)
(-0.018739912 -0.0016519074 -0.00031779389)
(-0.016397713 -0.0017793569 -0.00033278433)
(-0.013926122 -0.0018411504 -0.00034144128)
(-0.01141432 -0.0018316317 -0.00034356653)
(-0.0089561072 -0.0017487666 -0.00033933133)
(-0.0066450113 -0.0015945817 -0.00032929404)
(-0.0045688912 -0.0013753976 -0.00031439363)
(-0.0028042098 -0.0011019817 -0.00029592063)
(-0.0014100139 -0.00078992664 -0.00027546696)
(-0.00042164786 -0.00046057172 -0.00025484845)
(0.00015574678 -0.00014253421 -0.0002359803)
(0.00035672318 0.00012231877 -0.00022087821)
(0.00027529218 0.0002711045 -0.00021164071)
(9.0144241e-05 0.0002050733 -0.00019544995)
(1.9168876e-06 -0.00014896249 -2.0429013e-05)
(-0.00025605147 0.00029702061 -1.1810282e-05)
(-0.0010504552 0.0010236253 8.7968812e-08)
(-0.0023878307 0.0017975402 1.3067959e-05)
(-0.0042394473 0.0025099041 2.6104115e-05)
(-0.006545566 0.0031100577 3.8055589e-05)
(-0.0092251281 0.0035809267 4.8095369e-05)
(-0.012190003 0.0039234348 5.5662787e-05)
(-0.015352992 0.0041461869 6.037622e-05)
(-0.018631058 0.0042595919 6.1979004e-05)
(-0.021946081 0.0042728155 6.0298193e-05)
(-0.025224258 0.0041924758 5.5215952e-05)
(-0.028394925 0.0040224703 4.665593e-05)
(-0.031389394 0.0037645247 3.4582984e-05)
(-0.034140223 0.0034191709 1.9013226e-05)
(-0.036581146 0.0029869393 3.1196275e-08)
(-0.038647753 0.0024696042 -2.2189227e-05)
(-0.040278947 0.0018713569 -4.7363559e-05)
(-0.041419058 0.0011998072 -7.5078317e-05)
(-0.042020508 0.00046673066 -0.00010477867)
(-0.042046773 -0.00031149872 -0.00013576676)
(-0.041475476 -0.0011138123 -0.0001672073)
(-0.040301319 -0.0019148798 -0.00019815303)
(-0.038538556 -0.0026858664 -0.00022758083)
(-0.036222756 -0.003395679 -0.00025444271)
(-0.03341159 -0.0040126034 -0.00027772833)
(-0.030184438 -0.0045062435 -0.000296535)
(-0.026640649 -0.0048496373 -0.00031013957)
(-0.022896378 -0.0050213965 -0.00031806588)
(-0.019080014 -0.0050076963 -0.00032014031)
(-0.015326331 -0.0048039519 -0.00031652821)
(-0.011769585 -0.0044160551 -0.00030774599)
(-0.0085358496 -0.0038611501 -0.00029464717)
(-0.0057348788 -0.0031681092 -0.00027838429)
(-0.003451685 -0.0023781356 -0.000260351)
(-0.0017379655 -0.0015462004 -0.00024210381)
(-0.00060369496 -0.00074417293 -0.00022525445)
(-8.0611578e-06 -6.6331245e-05 -0.0002113959)
(0.00015540615 0.0003604091 -0.00020221503)
(7.3562688e-05 0.00035436587 -0.00018529792)
(-6.4685e-05 5.0424601e-05 -3.8680909e-05)
(-0.00060838329 0.0010457602 -2.6142188e-05)
(-0.001930543 0.0023817368 -1.2160911e-05)
(-0.0039464444 0.0037565194 1.1318179e-06)
(-0.0065890227 0.0050153143 1.3719966e-05)
(-0.0097792087 0.006080063 2.4844209e-05)
(-0.013417137 0.0069205213 3.3967339e-05)
(-0.017395541 0.0075341132 4.0754028e-05)
(-0.021607752 0.0079313967 4.4968307e-05)
(-0.025950713 0.0081270404 4.6438345e-05)
(-0.030325869 0.0081347679 4.5033362e-05)
(-0.034638819 0.0079650006 4.0647015e-05)
(-0.038798386 0.0076243734 3.3192212e-05)
(-0.042715708 0.0071165066 2.2606655e-05)
(-0.046303777 0.0064435528 8.866644e-06)
(-0.049477695 0.0056081437 -7.993329e-06)
(-0.052155752 0.004615448 -2.7857895e-05)
(-0.054261313 0.0034751092 -5.05079e-05)
(-0.05572544 0.0022028861 -7.5600252e-05)
(-0.056490042 0.00082184982 -0.00010265374)
(-0.056511343 -0.00063696862 -0.0001310439)
(-0.055763447 -0.0021345939 -0.00016000578)
(-0.05424167 -0.0036248139 -0.00018865719)
(-0.051965315 -0.0050556237 -0.00021603089)
(-0.048979659 -0.0063713988 -0.00024112383)
(-0.045356807 -0.0075157214 -0.00026295881)
(-0.041195197 -0.0084347235 -0.00028065404)
(-0.036617544 -0.0090807418 -0.00029349513)
(-0.031767148 -0.0094160243 -0.0003010023)
(-0.026802513 -0.0094162098 -0.00030298582)
(-0.021890407 -0.0090733177 -0.00029958205)
(-0.017197568 -0.0083980431 -0.00029126397)
(-0.012881399 -0.0074212818 -0.00027882271)
(-0.0090800708 -0.0061950067 -0.00026332163)
(-0.0059024806 -0.0047929355 -0.00024602812)
(-0.0034184763 -0.0033118415 -0.00022833101)
(-0.0016495164 -0.0018745511 -0.00021165777)
(-0.00055981099 -0.00063470119 -0.00019740324)
(-5.0130012e-05 0.00021501886 -0.00018680294)
(3.8091682e-05 0.00041383319 -0.00016799583)
(-0.00013086606 0.00044556263 -5.8197161e-05)
(-0.00097095214 0.0022426864 -4.1132223e-05)
(-0.002846216 0.0043591808 -2.4249827e-05)
(-0.0055648185 0.00645721 -9.8175458e-06)
(-0.0090094476 0.0083534728 3.1009199e-06)
(-0.013075466 0.0099514496 1.4080863e-05)
(-0.017642282 0.011211746 2.2859388e-05)
(-0.022584682 0.012129582 2.9331686e-05)
(-0.027779634 0.012717524 3.3420518e-05)
(-0.033108114 0.012994146 3.5053011e-05)
(-0.038455495 0.012977366 3.4151873e-05)
(-0.043711127 0.012681214 3.0628694e-05)
(-0.048767518 0.012115128 2.4386591e-05)
(-0.053519629 0.011284986 1.5332062e-05)
(-0.057864697 0.010195258 3.3937661e-06)
(-0.061702792 0.0088517408 -1.1453838e-05)
(-0.064938227 0.0072644404 -2.9164155e-05)
(-0.067481792 0.005450292 -4.9591903e-05)
(-0.069253699 0.0034354339 -7.2469182e-05)
(-0.070187069 0.0012568402 -9.7387223e-05)
(-0.07023172 -0.001036854 -0.00012378682)
(-0.069358014 -0.003385475 -0.00015095986)
(-0.067560463 -0.0057183921 -0.00017806573)
(-0.064860799 -0.0079566831 -0.0002041627)
(-0.061310197 -0.010016305 -0.00022825574)
(-0.056990357 -0.011812197 -0.00024935849)
(-0.052013147 -0.013263146 -0.00026656539)
(-0.046518563 -0.014297141 -0.00027912711)
(-0.040670861 -0.014856878 -0.00028652151)
(-0.034652774 -0.01490499 -0.00028851169)
(-0.028657892 -0.014428616 -0.00028518373)
(-0.022881391 -0.013442984 -0.00027695779)
(-0.017509475 -0.011993831 -0.00026456854)
(-0.012708071 -0.010158702 -0.00024901437)
(-0.0086114851 -0.0080474798 -0.00023147927)
(-0.005311754 -0.005802959 -0.00021324232)
(-0.0028485016 -0.0036024939 -0.00019561642)
(-0.0012000267 -0.0016605571 -0.00017986792)
(-0.00028881765 -0.00023377515 -0.00016672285)
(-2.4762092e-06 0.00035046976 -0.00014549087)
(-0.00019286558 0.0010313043 -7.6677376e-05)
(-0.0013239884 0.0038925286 -5.4773801e-05)
(-0.0037518601 0.0069679929 -3.4569063e-05)
(-0.0071733041 0.0099108128 -1.847559e-05)
(-0.011414813 0.012527393 -4.6799079e-06)
(-0.016341489 0.014714501 6.682785e-06)
(-0.021809625 0.0164305 1.55996e-05)
(-0.027675882 0.017672016 2.218521e-05)
(-0.0338024 0.018455246 2.6518055e-05)
(-0.04005685 0.018803211 2.8624799e-05)
(-0.046311839 0.018738077 2.8482659e-05)
(-0.052444061 0.018277407 2.6020684e-05)
(-0.058333356 0.017433435 2.1129302e-05)
(-0.063862061 0.016214493 1.3678361e-05)
(-0.06891499 0.014627821 3.5413948e-06)
(-0.0733802 0.012683106 -9.3757475e-06)
(-0.077150612 0.010396209 -2.5103756e-05)
(-0.080126453 0.0077926381 -4.357838e-05)
(-0.082218393 0.0049104463 -6.4611284e-05)
(-0.083351217 0.0018022807 -8.7866357e-05)
(-0.083467818 -0.0014636122 -0.00011284483)
(-0.082533256 -0.004803583 -0.00013888283)
(-0.08053865 -0.0081200475 -0.0001651631)
(-0.077504587 -0.01130433 -0.00019074471)
(-0.073483765 -0.014240825 -0.00021460965)
(-0.068562531 -0.016812391 -0.00023572606)
(-0.062860996 -0.018906789 -0.00025312396)
(-0.056531391 -0.020423867 -0.00026597689)
(-0.049754415 -0.021283047 -0.00027368018)
(-0.042733412 -0.021430597 -0.00027591586)
(-0.035686366 -0.02084611 -0.00027269507)
(-0.028835908 -0.019547679 -0.0002643717)
(-0.022397688 -0.017595409 -0.00025162369)
(-0.016567751 -0.015093177 -0.0002354009)
(-0.011509877 -0.012188847 -0.00021684035)
(-0.0073439146 -0.0090736547 -0.0001971677)
(-0.0041345338 -0.0059816727 -0.00017765546)
(-0.0018815865 -0.0031890502 -0.00015953755)
(-0.00053618936 -0.0010143272 -0.00014314316)
(-4.124706e-05 0.00015895098 -0.0001190517)
(-0.00025011707 0.0017985684 -9.216413e-05)
(-0.0016597745 0.0059841369 -6.5274277e-05)
(-0.004624459 0.010198611 -4.1587959e-05)
(-0.0087321728 0.014107014 -2.3533169e-05)
(-0.013751608 0.017522331 -8.4947906e-06)
(-0.019515084 0.020347113 3.6441604e-06)
(-0.025854149 0.022545921 1.3095447e-05)
(-0.032607013 0.024122 2.0175194e-05)
(-0.039621884 0.025098106 2.5105682e-05)
(-0.046755011 0.025503175 2.8005169e-05)
(-0.053868799 0.025364226 2.8899237e-05)
(-0.060830246 0.024702536 2.7728607e-05)
(-0.067509639 0.023533173 2.4364702e-05)
(-0.073779766 0.021866978 1.8633452e-05)
(-0.079515877 0.019714122 1.0345085e-05)
(-0.084596499 0.017088488 -6.7181264e-07)
(-0.088905124 0.014012231 -1.4533674e-05)
(-0.092332701 0.010520008 -3.1264771e-05)
(-0.094780822 0.0066624829 -5.0761991e-05)
(-0.096165468 0.002508809 -7.2764705e-05)
(-0.09642112 -0.0018521446 -9.6833403e-05)
(-0.095505025 -0.0063119972 -0.00012234177)
(-0.093401426 -0.010744595 -0.00014848316)
(-0.090125475 -0.015009424 -0.00017429811)
(-0.085726506 -0.018956663 -0.00019871993)
(-0.080290347 -0.022433815 -0.00022063945)
(-0.073940283 -0.025293745 -0.00023898498)
(-0.066836233 -0.027403778 -0.00025281123)
(-0.059171742 -0.028655387 -0.00026138771)
(-0.051168504 -0.028973822 -0.00026427497)
(-0.043068258 -0.028326912 -0.00026137698)
(-0.035122208 -0.026732268 -0.0002529612)
(-0.027578335 -0.024262247 -0.00023964293)
(-0.02066733 -0.021046322 -0.00022233373)
(-0.014588342 -0.017270909 -0.00020215279)
(-0.0094958289 -0.013177216 -0.00018032317)
(-0.0054864989 -0.0090579186 -0.00015814882)
(-0.0025879494 -0.0052522189 -0.0001369175)
(-0.00078446235 -0.0021405409 -0.00011663344)
(-7.6871372e-05 -0.00016053984 -8.9428039e-05)
(-0.00030295622 0.002736527 -0.00010298781)
(-0.0019754999 0.0084981007 -7.1017188e-05)
(-0.0054521441 0.014028576 -4.3869393e-05)
(-0.010217976 0.01902139 -2.3724795e-05)
(-0.015985185 0.023311096 -7.2295268e-06)
(-0.022552803 0.026818198 5.9594937e-06)
(-0.029727189 0.029522434 1.625677e-05)
(-0.037328212 0.031439782 2.4160142e-05)
(-0.045190989 0.032603408 3.001973e-05)
(-0.053161894 0.033050378 3.4032485e-05)
(-0.06109525 0.032813697 3.6261545e-05)
(-0.06885086 0.031918828 3.6649751e-05)
(-0.076292141 0.030383788 3.5040544e-05)
(-0.08328499 0.028221864 3.1206973e-05)
(-0.089697551 0.025446023 2.4886659e-05)
(-0.095400891 0.022074173 1.5821241e-05)
(-0.10027057 0.018134569 3.7987445e-06)
(-0.10418903 0.0136708 -1.1303083e-05)
(-0.10704872 0.0087459279 -2.9474937e-05)
(-0.10875573 0.0034454486 -5.0538676e-05)
(-0.10923405 -0.0021211599 -7.4118474e-05)
(-0.10842999 -0.0078205172 -9.9626255e-05)
(-0.10631683 -0.013497152 -0.00012626087)
(-0.10289944 -0.018977292 -0.00015303227)
(-0.098218419 -0.024074609 -0.00017880513)
(-0.09235356 -0.028597957 -0.00020236516)
(-0.085426043 -0.032360972 -0.00022250381)
(-0.077598904 -0.035193188 -0.00023811522)
(-0.069075159 -0.036952168 -0.00024829642)
(-0.060093107 -0.037535865 -0.00025243854)
(-0.050918471 -0.036894263 -0.00025029504)
(-0.041833372 -0.035039205 -0.00024201523)
(-0.033122498 -0.032051368 -0.0002281366)
(-0.025057298 -0.028083649 -0.00020953593)
(-0.017879636 -0.023360693 -0.00018733753)
(-0.011786475 -0.018175004 -0.00016280579)
(-0.0069140753 -0.012880391 -0.00013734223)
(-0.0033238426 -0.0078822568 -0.00011237158)
(-0.0010368604 -0.0036261502 -8.7663968e-05)
(-0.00011093285 -0.00060702222 -5.7223906e-05)
(-0.000351693 0.0038338196 -0.00010768479)
(-0.0022696859 0.011410358 -7.0528468e-05)
(-0.0062274804 0.018427298 -4.0050508e-05)
(-0.011614751 0.024619955 -1.7800098e-05)
(-0.018090319 0.029857559 2.6380569e-07)
(-0.025421023 0.034089876 1.4693159e-05)
(-0.033388717 0.037320711 2.6087447e-05)
(-0.041795673 0.039585245 3.5107429e-05)
(-0.050464969 0.04093144 4.221411e-05)
(-0.059234591 0.041407236 4.7668295e-05)
(-0.067952674 0.041053182 5.1557658e-05)
(-0.076474037 0.039899663 5.3815604e-05)
(-0.084657593 0.037967837 5.4246999e-05)
(-0.092364709 0.035273268 5.2561806e-05)
(-0.099458587 0.031831288 4.8414623e-05)
(-0.10580462 0.027663184 4.1449041e-05)
(-0.11127168 0.022802464 3.1345581e-05)
(-0.11573422 0.017300628 1.7871347e-05)
(-0.11907516 0.011231983 9.2891957e-07)
(-0.12118941 0.0046971922 -1.9398502e-05)
(-0.12198808 -0.0021747087 -4.2809778e-05)
(-0.12140313 -0.0092260622 -6.876378e-05)
(-0.11939247 -0.016272189 -9.6468306e-05)
(-0.11594548 -0.023105289 -0.00012489929)
(-0.11108821 -0.029500587 -0.00015283975)
(-0.1048884 -0.035224945 -0.00017894635)
(-0.097459312 -0.040047906 -0.00020183897)
(-0.088962038 -0.043754907 -0.00022020696)
(-0.07960526 -0.046162106 -0.000232923)
(-0.069641881 -0.047131964 -0.00023915228)
(-0.05936185 -0.046588373 -0.00023844204)
(-0.049080949 -0.044529878 -0.00023077629)
(-0.039125764 -0.041039486 -0.00021658496)
(-0.029815753 -0.036289746 -0.000196703)
(-0.021444138 -0.030542382 -0.00017227644)
(-0.014259499 -0.024142647 -0.00014464974)
(-0.0084461195 -0.017509201 -0.00011538297)
(-0.0041057594 -0.011119099 -8.6117384e-05)
(-0.0013000818 -0.0054896907 -5.6458353e-05)
(-0.00014466069 -0.001181741 -2.2506371e-05)
(-0.0003963925 0.0050786741 -0.00010493583)
(-0.0025408049 0.014693486 -6.2455503e-05)
(-0.0069442141 0.023357978 -2.8849262e-05)
(-0.012909249 0.03086081 -4.5476896e-06)
(-0.02004566 0.03711735 1.5131998e-05)
(-0.028090313 0.042116907 3.0939176e-05)
(-0.036802157 0.045895786 4.3644064e-05)
(-0.045967206 0.048514817 5.405347e-05)
(-0.055397846 0.050041361 6.2723224e-05)
(-0.064925214 0.050537305 6.9963311e-05)
(-0.074393074 0.050052596 7.5872692e-05)
(-0.083653295 0.048623486 8.0363338e-05)
(-0.092562454 0.046274534 8.3190389e-05)
(-0.10097956 0.043023315 8.3989842e-05)
(-0.10876487 0.038886823 8.2321942e-05)
(-0.11577978 0.033888624 7.7719689e-05)
(-0.12188764 0.028066015 6.9741713e-05)
(-0.12695539 0.021476602 5.8028001e-05)
(-0.13085612 0.014203878 4.2356124e-05)
(-0.13347226 0.0063614859 2.2695172e-05)
(-0.13469976 -0.0019040882 -7.4715414e-07)
(-0.13445282 -0.010412652 -2.7495672e-05)
(-0.1326696 -0.01895137 -5.6778821e-05)
(-0.12931855 -0.027278396 -8.7545166e-05)
(-0.12440508 -0.035129033 -0.00011849195)
(-0.11797825 -0.042224895 -0.00014812887)
(-0.11013684 -0.04828617 -0.00017487094)
(-0.10103395 -0.053046894 -0.00019715468)
(-0.09087909 -0.056272734 -0.00021356851)
(-0.079936773 -0.057780323 -0.00022298398)
(-0.068520627 -0.057456696 -0.00022467205)
(-0.056982419 -0.055276934 -0.0002183869)
(-0.045695953 -0.051317907 -0.00020440197)
(-0.035036667 -0.045766089 -0.00018348666)
(-0.025358982 -0.038918045 -0.00015681456)
(-0.016973699 -0.03117332 -0.00012584362)
(-0.010123122 -0.023020497 -9.2350886e-05)
(-0.0049573018 -0.015016291 -5.8271577e-05)
(-0.0015839131 -0.007760169 -2.3099698e-05)
(-0.00018000565 -0.0018919974 1.4764797e-05)
(-0.00043687366 0.0064585692 -9.3538424e-05)
(-0.0027868526 0.018316903 -4.5559391e-05)
(-0.0075959 0.028778324 -9.07499e-06)
(-0.014088641 0.037694911 1.7178959e-05)
(-0.021830808 0.045038215 3.8482763e-05)
(-0.03053227 0.050846279 5.5775034e-05)
(-0.039931319 0.055195698 6.9985014e-05)
(-0.049799509 0.058179124 8.2050739e-05)
(-0.059940133 0.059887927 9.2608576e-05)
(-0.070179116 0.060401154 0.0001020045)
(-0.080357619 0.0597802 0.00011033669)
(-0.090326506 0.058068286 0.00011748461)
(-0.099942079 0.055293693 0.00012314305)
(-0.10906305 0.051475675 0.00012686322)
(-0.11754871 0.046631955 0.00012809914)
(-0.12525817 0.04078689 0.00012625936)
(-0.1320505 0.033979546 0.00012076392)
(-0.1377859 0.026271128 0.00011110539)
(-0.14232754 0.017751401 9.69124e-05)
(-0.14554451 0.0085438156 7.8013023e-05)
(-0.14731571 -0.00119086 5.4493491e-05)
(-0.1475346 -0.011252638 2.6731571e-05)
(-0.14611543 -0.021402753 -4.5427322e-06)
(-0.14300051 -0.031366225 -3.8269089e-05)
(-0.13816826 -0.040837678 -7.3065862e-05)
(-0.13164197 -0.049490594 -0.00010728682)
(-0.1234984 -0.056990438 -0.00013911343)
(-0.1138753 -0.063011816 -0.0001666796)
(-0.10297654 -0.067259344 -0.00018822059)
(-0.09107353 -0.069491272 -0.00020223189)
(-0.078501396 -0.069544177 -0.00020761965)
(-0.06564898 -0.067356341 -0.0002038226)
(-0.052942 -0.062986927 -0.0001908858)
(-0.040820055 -0.05662802 -0.00016946701)
(-0.029709671 -0.048607157 -0.00014075573)
(-0.019996224 -0.039379399 -0.00010634756)
(-0.011992169 -0.029509503 -6.8293447e-05)
(-0.005906021 -0.019644354 -2.8901523e-05)
(-0.0018995932 -0.010479297 1.2407509e-05)
(-0.00021911087 -0.0027504891 5.4745485e-05)
(-0.00047276117 0.0079598528 -7.2401831e-05)
(-0.0030053077 0.022246665 -1.8718345e-05)
(-0.0081754824 0.034640709 2.0358555e-05)
(-0.015139638 0.045066386 4.8439173e-05)
(-0.023425073 0.053560161 7.135432e-05)
(-0.032718089 0.0602169 9.0224969e-05)
(-0.042738979 0.065160512 0.00010612931)
(-0.053246923 0.068521224 0.00012012363)
(-0.064037879 0.070418875 0.0001329127)
(-0.074934237 0.070952913 0.00014486753)
(-0.085776307 0.070198353 0.00015607567)
(-0.096415822 0.068206608 0.00016637493)
(-0.1067108 0.065010084 0.0001753908)
(-0.11652173 0.060629348 0.00018257985)
(-0.12570894 0.05508178 0.00018727817)
(-0.13413109 0.048390749 0.00018875519)
(-0.14164461 0.040594624 0.00018627354)
(-0.14810401 0.031755107 0.00017915464)
(-0.15336319 0.02196458 0.00016684879)
(-0.15727766 0.011352265 0.00014900681)
(-0.15970802 8.9015957e-05 0.00012554937)
(-0.1605249 -0.011609443 9.6737691e-05)
(-0.15961527 -0.023481698 6.3200978e-05)
(-0.1568904 -0.035221787 2.5981388e-05)
(-0.15229556 -0.046484015 -1.3479608e-05)
(-0.14582083 -0.056891681 -5.3382849e-05)
(-0.13751249 -0.06605053 -9.1656311e-05)
(-0.12748403 -0.073567431 -0.00012608405)
(-0.11592512 -0.079074265 -0.00015447314)
(-0.10310686 -0.082256239 -0.00017484472)
(-0.089381236 -0.082882828 -0.00018562825)
(-0.075173053 -0.080838438 -0.00018583379)
(-0.060963171 -0.07614901 -0.00017517713)
(-0.047263081 -0.069000369 -0.00015412984)
(-0.034583088 -0.059744613 -0.0001238613)
(-0.023397401 -0.048892499 -8.6113291e-05)
(-0.014103448 -0.037091891 -4.3264111e-05)
(-0.0069814319 -0.02509262 1.9213931e-06)
(-0.0022590041 -0.013702948 5.0069256e-05)
(-0.00026414532 -0.0037760393 9.7625844e-05)
(-0.0005035511 0.0095674411 -4.0556383e-05)
(-0.0031932765 0.026445188 1.9059959e-05)
(-0.0086754059 0.040892099 6.0415706e-05)
(-0.016048495 0.052912584 9.0181249e-05)
(-0.024807364 0.062615415 0.00011468521)
(-0.034618418 0.070159219 0.00013522388)
(-0.045186793 0.075721401 0.00015301522)
(-0.056261501 0.079475002 0.00016922247)
(-0.067632969 0.081572544 0.00018460899)
(-0.07912171 0.082137089 0.00019956268)
(-0.090568868 0.081259512 0.00021415342)
(-0.10182885 0.079000767 0.0002281711)
(-0.11276335 0.075397887 0.00024116546)
(-0.12323669 0.070472446 0.00025249071)
(-0.13311239 0.064240357 0.00026135452)
(-0.14225078 0.05672207 0.0002668726)
(-0.1505076 0.047952508 0.00026813015)
(-0.15773346 0.037990332 0.00026425073)
(-0.16377428 0.026926303 0.00025447216)
(-0.16847278 0.014890608 0.00023822693)
(-0.17167132 0.002059038 0.00021522461)
(-0.17321661 -0.011342251 0.00018554147)
(-0.17296593 -0.025033765 0.00014966604)
(-0.1707957 -0.03868225 0.00010856948)
(-0.16661243 -0.051903619 6.3714208e-05)
(-0.1603655 -0.064270371 1.7032798e-05)
(-0.15206157 -0.075324594 -2.9142821e-05)
(-0.14177939 -0.084597512 -7.2207747e-05)
(-0.12968347 -0.091636043 -0.00010946498)
(-0.11603434 -0.09603595 -0.00013835024)
(-0.10119274 -0.097479893 -0.000156679)
(-0.085615087 -0.095777094 -0.00016288482)
(-0.069838052 -0.090899824 -0.00015621468)
(-0.054451417 -0.083010926 -0.00013684175)
(-0.040061177 -0.072476746 -0.0001058466)
(-0.027246484 -0.059861711 -6.5102773e-05)
(-0.016507707 -0.045903611 -1.7361443e-05)
(-0.0082137723 -0.031469863 3.4066038e-05)
(-0.0026743196 -0.017501842 8.9831946e-05)
(-0.00031729524 -0.0049938553 0.00014354937)
(-0.00052868047 0.011264647 2.8281513e-06)
(-0.0033477387 0.030871102 6.8619973e-05)
(-0.0090880532 0.047474049 0.00011191797)
(-0.016801586 0.061164142 0.00014321693)
(-0.025956888 0.072128392 0.00016928322)
(-0.036204179 0.080594904 0.00019158025)
(-0.047236292 0.086799855 0.00021145703)
(-0.058794241 0.09096376 0.00023017395)
(-0.070664653 0.09327576 0.00024854577)
(-0.082667718 0.093885664 0.00026697227)
(-0.094646993 0.09290252 0.00028550211)
(-0.10646127 0.090398316 0.00030387444)
(-0.11797781 0.086415372 0.00032156016)
(-0.12906689 0.0809761 0.00033780639)
(-0.13959748 0.074093912 0.00035168443)
(-0.14943401 0.065784413 0.00036214319)
(-0.15843404 0.056076244 0.00036807055)
(-0.1664467 0.045021272 0.00036836395)
(-0.17331223 0.032704002 0.00036201092)
(-0.17886252 0.019250181 0.00034817821)
(-0.18292317 0.0048345365 0.00032630796)
(-0.18531738 -0.010312565 0.00029621952)
(-0.18587199 -0.025899801 0.00025819473)
(-0.18442618 -0.041572072 0.00021306242)
(-0.18084314 -0.056910857 0.00016224469)
(-0.17502465 -0.071439353 0.00010776514)
(-0.16692827 -0.084633982 5.2201613e-05)
(-0.15658627 -0.095943778 -1.4281418e-06)
(-0.14412461 -0.10481882 -4.9853641e-05)
(-0.12977947 -0.11074796 -8.9807537e-05)
(-0.11390799 -0.11330453 -0.00011833111)
(-0.096989364 -0.11219671 -0.00013309478)
(-0.079612829 -0.10731674 -0.00013268807)
(-0.062450285 -0.098781319 -0.00011682253)
(-0.046214677 -0.086954991 -8.6375979e-05)
(-0.031607741 -0.072449908 -4.3306306e-05)
(-0.019254151 -0.056099261 9.2311605e-06)
(-0.0096331391 -0.038903924 6.7283838e-05)
(-0.0031578302 -0.021961651 0.00013151149)
(-0.00038078522 -0.0064355921 0.00019253794)
(-0.00054759912 0.013033167 5.8419282e-05)
(-0.0034658576 0.03547937 0.00013063683)
(-0.0094063971 0.054322966 0.00017552195)
(-0.017386396 0.069745283 0.00020819584)
(-0.026854435 0.082015887 0.00023579475)
(-0.037448152 0.091436747 0.00025993936)
(-0.048850772 0.09830714 0.00028210119)
(-0.060797321 0.10289912 0.00030362966)
(-0.073072175 0.10544207 0.00032538646)
(-0.085496589 0.1061156 0.00034778183)
(-0.097917945 0.10504935 0.0003708437)
(-0.110201 0.10232798 0.00039426175)
(-0.12222042 0.098000025 0.00041742897)
(-0.13385451 0.092088781 0.00043948461)
(-0.14498014 0.084604365 0.00045935918)
(-0.15546857 0.075555804 0.00047582483)
(-0.16518214 0.064962754 0.00048755432)
(-0.17397175 0.052866569 0.00049319139)
(-0.1816753 0.039340757 0.00049143415)
(-0.18811715 0.024500887 0.0004811317)
(-0.19310911 0.0085140037 0.00046139328)
(-0.19645327 -0.0083925668 0.00043170714)
(-0.19794729 -0.025923361 0.00039205833)
(-0.19739265 -0.043708861 0.00034304226)
(-0.19460649 -0.06130252 0.00028595319)
(-0.1894373 -0.078182573 0.0002228334)
(-0.18178453 -0.093760684 0.00015646284)
(-0.17162149 -0.10739971 9.02705e-05)
(-0.15902009 -0.11844266 2.8152971e-05)
(-0.14417482 -0.12625404 -2.5804577e-05)
(-0.1274219 -0.13027328 -6.7692903e-05)
(-0.10924879 -0.1300771 -9.4194631e-05)
(-0.090288545 -0.12544457 -0.00010299634)
(-0.071294716 -0.11641495 -9.3118247e-05)
(-0.053096439 -0.10332683 -6.5058206e-05)
(-0.036536434 -0.086827868 -2.0762527e-05)
(-0.022388438 -0.067848917 3.6202457e-05)
(-0.011268761 -0.047540429 0.00010114676)
(-0.0037218437 -0.02718272 0.00017471768)
(-0.00045691194 -0.0081393809 0.00024441404)
(-0.00055984494 0.014853263 0.00012669729)
(-0.0035453382 0.040221773 0.00020559499)
(-0.0096248087 0.061370774 0.00025169853)
(-0.017792803 0.078574523 0.00028558209)
(-0.027484127 0.092187637 0.00031467657)
(-0.038327159 0.10258895 0.00034074846)
(-0.049997928 0.11014417 0.00036538368)
(-0.0622272 0.11518036 0.00039001441)
(-0.074798405 0.11797047 0.00041554799)
(-0.087535017 0.11872694 0.00044240767)
(-0.10028947 0.11760246 0.00047060554)
(-0.11293389 0.11469632 0.00049978779)
(-0.12535205 0.11006441 0.00052927521)
(-0.13743243 0.10373138 0.00055810292)
(-0.14906227 0.095703592 0.00058506089)
(-0.16012262 0.08598216 0.00060873895)
(-0.17048407 0.074575411 0.00062758117)
(-0.18000324 0.061510787 0.00063995329)
(-0.18852004 0.046846253 0.00064422668)
(-0.19585596 0.030681468 0.00063888043)
(-0.20181372 0.013168861 0.00062262196)
(-0.20617874 -0.0054753513 0.00059452444)
(-0.20872309 -0.024960524 0.00055417497)
(-0.20921262 -0.044912153 0.00050182399)
(-0.20741816 -0.064864846 0.00043852233)
(-0.20313138 -0.084259648 0.00036622342)
(-0.19618604 -0.1024483 0.00028782605)
(-0.18648428 -0.11870744 0.00020712998)
(-0.17402711 -0.13226602 0.00012867883)
(-0.15894668 -0.14234852 5.7472924e-05)
(-0.14153584 -0.14823508 -1.4475412e-06)
(-0.12226911 -0.14933666 -4.3521354e-05)
(-0.10180729 -0.14527869 -6.522701e-05)
(-0.080978722 -0.13598181 -6.4583572e-05)
(-0.060733906 -0.12172371 -4.1446603e-05)
(-0.042074315 -0.10316589 2.4166237e-06)
(-0.025950477 -0.081333239 6.3063473e-05)
(-0.01314824 -0.057540537 0.0001349768)
(-0.0043785968 -0.033279404 0.00021876921)
(-0.00054808337 -0.010149842 0.00029871392)
(-0.00056512313 0.016704136 0.00020793297)
(-0.0035848229 0.045047812 0.00029377025)
(-0.0097399832 0.068546097 0.00034071623)
(-0.018014596 0.087565897 0.00037563548)
(-0.027835515 0.10254741 0.00040617239)
(-0.038824727 0.11394789 0.00043422651)
(-0.050653064 0.12220187 0.00046149104)
(-0.063048415 0.12769429 0.00048947731)
(-0.075794271 0.13074478 0.00051914079)
(-0.088717237 0.13160154 0.00055092463)
(-0.10167579 0.13044301 0.0005848348)
(-0.11455071 0.12738526 0.00062048506)
(-0.12723646 0.12249312 0.00065713486)
(-0.13963366 0.11579341 0.00069372436)
(-0.15164252 0.10728887 0.00072890849)
(-0.163157 0.096971892 0.00076109488)
(-0.17405976 0.084837724 0.00078849109)
(-0.18421763 0.07089708 0.00080916655)
(-0.19347778 0.055188373 0.00082113397)
(-0.20166471 0.037789983 0.00082245396)
(-0.20857841 0.018832874 0.00081136464)
(-0.21399412 -0.0014862916 0.00078643638)
(-0.21766445 -0.022891666 0.00074674956)
(-0.2193246 -0.045015033 0.00069208172)
(-0.21870194 -0.067384147 0.00062309901)
(-0.21553096 -0.0894145 0.00054152191)
(-0.20957471 -0.11040752 0.00045023809)
(-0.20065357 -0.12955895 0.00035332525)
(-0.18868079 -0.14598189 0.00025594446)
(-0.17370326 -0.15874899 0.00016406992)
(-0.15594313 -0.16695711 8.403751e-05)
(-0.1358334 -0.16981459 2.1925265e-05)
(-0.11403767 -0.16674578 -1.7177174e-05)
(-0.091443302 -0.15750014 -2.9888753e-05)
(-0.069120478 -0.14224564 -1.5052815e-05)
(-0.048244338 -0.1216226 2.6010923e-05)
(-0.029971803 -0.09673657 8.9086539e-05)
(-0.01529662 -0.069077569 0.00016776212)
(-0.0051401266 -0.040378989 0.00026259361)
(-0.00065685483 -0.01251807 0.0003545861)
(-0.00056338837 0.018564535 0.00030217105)
(-0.0035843192 0.049906098 0.00039521855)
(-0.0097519604 0.075776047 0.00044263184)
(-0.018051164 0.096630826 0.0004784004)
(-0.027905938 0.11299473 0.00051029708)
(-0.038934098 0.12540357 0.00054034125)
(-0.050802752 0.13436219 0.00057032834)
(-0.063237893 0.14031586 0.00060184908)
(-0.07602379 0.14363373 0.00063591421)
(-0.088990871 0.1446028 0.00067299883)
(-0.1020045 0.14343008 0.00071311762)
(-0.11495518 0.1402509 0.00075586818)
(-0.12774955 0.13514101 0.00080046485)
(-0.14030233 0.12813081 0.00084576745)
(-0.15252914 0.11922004 0.00089030739)
(-0.16434008 0.10839231 0.00093231651)
(-0.17563382 0.095628824 0.00096976516)