/*--------------------------------*- C++ -*----------------------------------*\
  =========                 |
  \\      /  F ield         | OpenFOAM: The Open Source CFD Toolbox
   \\    /   O peration     | Website:  https://openfoam.org
    \\  /    A nd           | Version:  7
     \\/     M anipulation  |
\*---------------------------------------------------------------------------*/
FoamFile
{
    version     2.0;
    format      ascii;
    class       volScalarField;
    location    "6.2";
    object      p;
}
// * * * * * * * * * * * * * * * * * * * * * * * * * * * * * * * * * * * * * //

dimensions      [1 -1 -2 0 0 0 0];

internalField   nonuniform List<scalar> 
19968
(
1
1
1
1
1
1
1
1
1
1
1
1
1
1
1
1
1
1
1
1
1
1
1
1
1
1
1
1
1
1
1
1
1
1
1
1
1
1
1
1
1
1
1
1
1
1
1
1
1.57037
8.06926
10.4253
10.438
10.5101
10.5666
10.6291
10.6926
10.7548
10.8128
10.8655
10.9134
10.9597
11.0086
11.0602
11.1124
11.1639
11.2126
11.2572
11.299
11.3412
11.3859
11.4322
11.4777
11.5198
11.557
11.5895
11.619
11.6483
11.6798
11.7145
11.7512
11.7875
11.821
11.8507
11.8769
11.9008
11.923
11.9431
11.9602
11.9738
11.9847
11.9946
12.0049
12.0158
12.0261
12.0349
12.0411
1
1
1
1
1
1
1
1
1
1
1
1
1
1
1
1
1
1
1
1
1
1
1
1
1
1
1
1
1
1
1
1
1
1
1
1
1
1
1
1
1
1
1
1
1
1
1
1
1.53315
7.9822
10.4101
10.4476
10.5118
10.5688
10.63
10.6925
10.7544
10.8122
10.8648
10.9129
10.9588
11.007
11.0578
11.1101
11.1615
11.2102
11.2546
11.2964
11.3385
11.383
11.4291
11.4744
11.5163
11.5531
11.5853
11.6147
11.6442
11.676
11.7107
11.7472
11.7831
11.8161
11.8454
11.8714
11.8951
11.9172
11.9373
11.9545
11.9682
11.9792
11.989
11.999
12.0094
12.0191
12.0273
12.0332
1
1
1
1
1
1
1
1
1
1
1
1
1
1
1
1
1
1
1
1
1
1
1
1
1
1
1
1
1
1
1
1
1
1
1
1
1
1
1
1
1
1
1
1
1
1
1
1
1.45222
7.80636
10.4103
10.4463
10.5076
10.5651
10.625
10.6867
10.7484
10.8064
10.8594
10.908
10.9534
11.0012
11.0512
11.1035
11.1551
11.2038
11.2483
11.29
11.3321
11.3765
11.4224
11.4674
11.5087
11.5451
11.5771
11.6067
11.6366
11.6686
11.7033
11.7393
11.7744
11.8068
11.8357
11.8615
11.8853
11.9075
11.9278
11.9452
11.9593
11.9706
11.9805
11.9901
11.9999
12.0088
12.0163
12.0215
1
1
1
1
1
1
1
1
1
1
1
1
1
1
1
1
1
1
1
1
1
1
1
1
1
1
1
1
1
1
1
1
1
1
1
1
1
1
1
1
1
1
1
1
1
1
1
1
1.33879
7.53357
10.4091
10.4475
10.5035
10.5598
10.618
10.6787
10.7401
10.7986
10.8521
10.9012
10.9462
10.9933
11.0422
11.0943
11.1458
11.1945
11.2388
11.2805
11.3226
11.3669
11.4124
11.4568
11.4975
11.5333
11.565
11.5949
11.6253
11.6576
11.6921
11.7274
11.7615
11.7928
11.8209
11.8461
11.8695
11.8915
11.9117
11.9293
11.9437
11.9554
11.9655
11.9749
11.9841
11.9923
11.9991
12.0039
1
1
1
1
1
1
1
1
1
1
1
1
1
1
1
1
1
1
1
1
1
1
1
1
1
1
1
1
1
1
1
1
1
1
1
1
1
1
1
1
1
1
1
1
1
1
1
1
1.20587
7.1966
10.4123
10.4472
10.4963
10.5501
10.6061
10.6656
10.7268
10.7859
10.8407
10.8911
10.9365
10.9833
11.0314
11.0828
11.134
11.1822
11.2261
11.2677
11.3098
11.3541
11.3993
11.4431
11.4831
11.5184
11.55
11.5804
11.6114
11.6443
11.6787
11.7132
11.7462
11.7765
11.8039
11.8286
11.8516
11.8732
11.8932
11.9106
11.9248
11.936
11.9451
11.9531
11.9604
11.9669
11.9724
11.9762
1
1
1
1
1
1
1
1
1
1
1
1
1
1
1
1
1
1
1
1
1
1
1
1
1
1
1
1
1
1
1
1
1
1
1
1
1
1
1
1
1
1
1
1
1
1
1
1
1.00862
6.68498
10.3916
10.4367
10.4867
10.5427
10.5987
10.6573
10.7174
10.7764
10.8319
10.8828
10.9284
10.9745
11.0212
11.0707
11.1202
11.1669
11.2096
11.2504
11.2921
11.3357
11.38
11.4225
11.4611
11.4951
11.5259
11.5559
11.5872
11.6202
11.6543
11.6879
11.7196
11.7486
11.775
11.7992
11.8219
11.8437
11.8641
11.8823
11.8974
11.9092
11.9184
11.9258
11.9322
11.9377
11.9421
11.9452
1
1
1
1
1
1
1
1
1
1
1
1
1
1
1
1
1
1
1
1
1
1
1
1
1
1
1
1
1
1
1
1
1
1
1
1
1
1
1
1
1
1
1
1
1
1
1
1
1.00004
5.98767
10.311
10.3877
10.4385
10.4961
10.5533
10.6128
10.6736
10.7336
10.7903
10.8424
10.8891
10.9358
10.983
11.0323
11.0821
11.1289
11.1716
11.2124
11.2542
11.2978
11.3419
11.3841
11.4221
11.4554
11.4858
11.5159
11.5479
11.5819
11.6166
11.65
11.6809
11.7089
11.7345
11.7582
11.781
11.8031
11.824
11.8429
11.8587
11.8708
11.8799
11.8867
11.8921
11.8966
11.9
11.9022
1
1
1
1
1
1
1
1
1
1
1
1
1
1
1
1
1
1
1
1
1
1
1
1
1
1
1
1
1
1
1
1
1
1
1
1
1
1
1
1
1
1
1
1
1
1
1
1
1
5.08445
10.1818
10.3506
10.4054
10.4666
10.5241
10.5834
10.6439
10.704
10.7607
10.8126
10.8594
10.9057
10.9526
11.0005
11.049
11.0949
11.1367
11.1767
11.2177
11.2603
11.3034
11.3446
11.3816
11.414
11.4434
11.4729
11.505
11.5395
11.5747
11.608
11.6379
11.6644
11.6883
11.711
11.7332
11.755
11.776
11.795
11.8108
11.8227
11.8315
11.8376
11.8423
11.8458
11.8482
11.8497
1
1
1
1
1
1
1
1
1
1
1
1
1
1
1
1
1
1
1
1
1
1
1
1
1
1
1
1
1
1
1
1
1
1
1
1
1
1
1
1
1
1
1
1
1
1
1
1
1
4.0213
9.91025
10.3127
10.3698
10.4348
10.4923
10.5511
10.6101
10.6689
10.7248
10.7763
10.8233
10.8691
10.9158
10.9623
11.0089
11.0527
11.0927
11.1309
11.1703
11.2112
11.2525
11.292
11.3274
11.3581
11.386
11.4145
11.4462
11.4812
11.517
11.5502
11.5791
11.6038
11.6257
11.6467
11.6679
11.6894
11.7105
11.7296
11.7454
11.7574
11.7662
11.7725
11.7772
11.7805
11.7824
11.7838
1
1
1
1
1
1
1
1
1
1
1
1
1
1
1
1
1
1
1
1
1
1
1
1
1
1
1
1
1
1
1
1
1
1
1
1
1
1
1
1
1
1
1
1
1
1
1
1
1
2.89808
9.35666
10.2955
10.3518
10.4178
10.4746
10.5316
10.5875
10.643
10.6961
10.745
10.7904
10.8341
10.879
10.9235
10.9676
11.0087
11.0464
11.0827
11.1201
11.1591
11.1976
11.2344
11.2669
11.2951
11.3203
11.3465
11.3765
11.4105
11.4456
11.478
11.5055
11.5283
11.5481
11.5673
11.5874
11.6084
11.6291
11.6477
11.6625
11.6733
11.6811
11.6867
11.6911
11.6944
11.6962
11.6977
1
1
1
1
1
1
1
1
1
1
1
1
1
1
1
1
1
1
1
1
1
1
1
1
1
1
1
1
1
1
1
1
1
1
1
1
1
1
1
1
1
1
1
1
1
1
1
1
1
1.84529
8.39209
10.3238
10.3223
10.3898
10.4384
10.4938
10.5485
10.603
10.6555
10.7043
10.7495
10.7924
10.8351
10.8775
10.9191
10.9582
10.9946
11.0299
11.0656
11.1029
11.1392
11.1736
11.2038
11.2298
11.2529
11.2765
11.3035
11.3344
11.3664
11.3957
11.4195
11.438
11.4533
11.4678
11.4836
11.5012
11.5195
11.5363
11.55
11.56
11.5677
11.5738
11.5791
11.5841
11.5874
11.5899
1
1
1
1
1
1
1
1
1
1
1
1
1
1
1
1
1
1
1
1
1
1
1
1
1
1
1
1
1
1
1
1
1
1
1
1
1
1
1
1
1
1
1
1
1
1
1
1
1
1.03295
6.69923
10.343
10.3618
10.394
10.4339
10.4806
10.5301
10.5798
10.6271
10.6703
10.7102
10.7481
10.7855
10.824
10.8616
10.8962
10.9284
10.9604
10.9926
11.0269
11.06
11.0911
11.1188
11.1427
11.164
11.1851
11.2088
11.2359
11.2643
11.2903
11.3112
11.3269
11.3391
11.3503
11.3628
11.3774
11.393
11.4073
11.4177
11.4235
11.4258
11.4262
11.4266
11.4287
11.4313
11.434
1
1
1
1
1
1
1
1
1
1
1
1
1
1
1
1
1
1
1
1
1
1
1
1
1
1
1
1
1
1
1
1
1
1
1
1
1
1
1
1
1
1
1
1
1
1
1
1
1
1.00006
4.59597
9.90175
10.2098
10.267
10.3296
10.3818
10.4334
10.4836
10.5309
10.5739
10.6132
10.6509
10.6874
10.7235
10.7588
10.7914
10.8215
10.8524
10.8841
10.9173
10.9496
10.9792
11.0057
11.0288
11.0492
11.0684
11.0888
11.1113
11.1346
11.1558
11.1723
11.1833
11.1905
11.1953
11.1994
11.2045
11.2107
11.2166
11.2202
11.221
11.2203
11.2199
11.221
11.2254
11.2296
11.2342
1
1
1
1
1
1
1
1
1
1
1
1
1
1
1
1
1
1
1
1
1
1
1
1
1
1
1
1
1
1
1
1
1
1
1
1
1
1
1
1
1
1
1
1
1
1
1
1
1
1
2.39459
8.7586
10.1524
10.2013
10.2745
10.3273
10.3775
10.4256
10.471
10.5123
10.5494
10.5847
10.6188
10.6513
10.6826
10.7114
10.7371
10.7634
10.7914
10.8197
10.848
10.8729
10.895
10.9139
10.9302
10.9447
10.959
10.9739
10.9892
11.0022
11.0111
11.0158
11.0166
11.0132
11.0083
11.0037
11.0007
10.9995
10.998
10.9939
10.9846
10.9708
10.9509
10.9287
10.9062
10.8874
1
1
1
1
1
1
1
1
1
1
1
1
1
1
1
1
1
1
1
1
1
1
1
1
1
1
1
1
1
1
1
1
1
1
1
1
1
1
1
1
1
1
1
1
1
1
1
1
1
1
1.0596
6.37297
10.2093
10.2283
10.2392
10.273
10.3121
10.3544
10.3951
10.432
10.4642
10.4934
10.522
10.5497
10.5764
10.6017
10.6237
10.6446
10.6677
10.691
10.7139
10.7337
10.7496
10.763
10.7742
10.7838
10.7917
10.7986
10.805
10.8091
10.809
10.8045
10.7951
10.7802
10.7604
10.7366
10.7098
10.6813
10.6499
10.6132
10.5695
10.5205
10.4762
10.4369
10.4174
10.409
1
1
1
1
1
1
1
1
1
1
1
1
1
1
1
1
1
1
1
1
1
1
1
1
1
1
1
1
1
1
1
1
1
1
1
1
1
1
1
1
1
1
1
1
1
1
1
1
1
1
1.00009
3.266
9.23164
10.0493
10.09
10.1479
10.1917
10.2357
10.2776
10.3157
10.3489
10.3782
10.4055
10.4315
10.4552
10.4769
10.4962
10.5141
10.5333
10.5531
10.57
10.5829
10.5913
10.5959
10.5989
10.6001
10.5985
10.5967
10.5934
10.5865
10.5739
10.5551
10.5299
10.4983
10.4592
10.4118
10.3566
10.2971
10.2364
10.1751
10.1103
10.0399
9.95249
9.8659
9.74594
9.83922
1
1
1
1
1
1
1
1
1
1
1
1
1
1
1
1
1
1
1
1
1
1
1
1
1
1
1
1
1
1
1
1
1
1
1
1
1
1
1
1
1
1
1
1
1
1
1
1
1
1
1
1.19787
7.19579
10.1313
10.0967
10.1227
10.1502
10.1802
10.2111
10.2397
10.2652
10.288
10.3083
10.3274
10.3451
10.3612
10.3764
10.3904
10.4047
10.4197
10.4316
10.4385
10.4404
10.437
10.4307
10.4221
10.4117
10.3998
10.3862
10.3685
10.3434
10.3096
10.2672
10.2167
10.1564
10.0833
9.99445
9.89074
9.77049
9.63078
9.4485
9.20158
8.82745
8.26954
7.3457
5.48329
1
1
1
1
1
1
1
1
1
1
1
1
1
1
1
1
1
1
1
1
1
1
1
1
1
1
1
1
1
1
1
1
1
1
1
1
1
1
1
1
1
1
1
1
1
1
1
1
1
1
1
1.00133
4.55174
9.6705
9.92473
9.98343
10.0241
10.0639
10.1017
10.1333
10.1594
10.1813
10.2011
10.2207
10.239
10.254
10.2649
10.2726
10.2794
10.2889
10.2983
10.3031
10.3017
10.2935
10.28
10.2637
10.2451
10.2232
10.1996
10.1718
10.1365
10.0905
10.0329
9.96428
9.88286
9.78585
9.66586
9.52246
9.34608
9.13677
8.86004
8.50429
7.98903
7.34347
6.10586
4.49885
1
1
1
1
1
1
1
1
1
1
1
1
1
1
1
1
1
1
1
1
1
1
1
1
1
1
1
1
1
1
1
1
1
1
1
1
1
1
1
1
1
1
1
1
1
1
1
1
1
1
1
0.999997
1.91836
8.21506
9.89645
9.91864
9.95514
9.99083
10.0264
10.0549
10.0775
10.0958
10.1128
10.1302
10.1467
10.1592
10.1668
10.1695
10.1701
10.1715
10.1731
10.1719
10.1637
10.1493
10.1289
10.1046
10.0772
10.0456
10.0102
9.96997
9.92249
9.86469
9.79254
9.70674
9.60351
9.48245
9.33382
9.15677
8.93923
8.67735
8.35152
7.93297
7.40751
6.63924
5.63151
4.51444
1
1
1
1
1
1
1
1
1
1
1
1
1
1
1
1
1
1
1
1
1
1
1
1
1
1
1
1
1
1
1
1
1
1
1
1
1
1
1
1
1
1
1
1
1
1
1
1
1
1
1
0.999999
1.03062
5.37773
9.74996
9.84511
9.87292
9.90442
9.93975
9.96756
9.98951
10.007
10.0224
10.0334
10.042
10.0488
10.0537
10.0558
10.0556
10.0523
10.0468
10.0367
10.0197
9.99757
9.97089
9.94077
9.90656
9.86656
9.81936
9.76583
9.70442
9.6341
9.5493
9.44977
9.32951
9.18835
9.018
8.81628
8.57463
8.28558
7.94069
7.51025
6.9986
6.3132
5.54223
4.72671
1
1
1
1
1
1
1
1
1
1
1
1
1
1
1
1
1
1
1
1
1
1
1
1
1
1
1
1
1
1
1
1
1
1
1
1
1
1
1
1
1
1
1
1
1
1
1
1
1
1
1
1
1
2.22206
8.4597
9.77807
9.79589
9.82782
9.85623
9.88326
9.90575
9.92538
9.94208
9.94445
9.94224
9.93998
9.93952
9.94164
9.94332
9.93975
9.92911
9.90936
9.88169
9.84926
9.81495
9.77931
9.7395
9.69324
9.6367
9.57084
9.49457
9.40969
9.31256
9.20177
9.07074
8.91652
8.73289
8.5172
8.26527
7.96966
7.6273
7.21392
6.74811
6.1895
5.58106
4.94083
1
1
1
1
1
1
1
1
1
1
1
1
1
1
1
1
1
1
1
1
1
1
1
1
1
1
1
1
1
1
1
1
1
1
1
1
1
1
1
1
1
1
1
1
1
1
1
1
1
1
1
1
0.999999
1.04878
5.50123
9.64042
9.74045
9.76369
9.77976
9.7997
9.8175
9.83867
9.86034
9.86255
9.85387
9.84336
9.83397
9.83051
9.82859
9.82282
9.80838
9.78251
9.74746
9.7069
9.66444
9.62162
9.57509
9.523
9.46013
9.38584
9.29816
9.19954
9.08976
8.96793
8.82921
8.66861
8.47992
8.26101
8.01093
7.72132
7.39518
7.01432
6.60494
6.1428
5.65433
5.12582
1
1
1
1
1
1
1
1
1
1
1
1
1
1
1
1
1
1
1
1
1
1
1
1
1
1
1
1
1
1
1
1
1
1
1
1
1
1
1
1
1
1
1
1
1
1
1
1
1
1
1
1
1
1.00005
2.06968
8.24516
9.66904
9.68887
9.70365
9.71115
9.72141
9.73788
9.75425
9.7552
9.74723
9.7391
9.72898
9.72178
9.71339
9.70212
9.68231
9.65161
9.61144
9.56555
9.51645
9.4671
9.41432
9.35625
9.28865
9.20946
9.11605
9.00869
8.88855
8.75712
8.61238
8.44935
8.26192
8.04717
7.8073
7.5291
7.22638
6.88329
6.52476
6.12956
5.72242
5.27361
1
1
1
1
1
1
1
1
1
1
1
1
1
1
1
1
1
1
1
1
1
1
1
1
1
1
1
1
1
1
1
1
1
1
1
1
1
1
1
1
1
1
1
1
1
1
1
1
1
1
1
1
1
1
1.0352
4.92976
9.37023
9.61227
9.60933
9.61995
9.63445
9.65343
9.66621
9.66587
9.65734
9.64652
9.63406
9.62096
9.60419
9.58602
9.5612
9.52663
9.48399
9.43507
9.38032
9.32392
9.26331
9.1972
9.12352
9.04047
8.94528
8.8353
8.70953
8.57124
8.42116
8.25638
8.07335
7.86637
7.6399
7.37915
7.10091
6.7977
6.4802
6.13391
5.78637
5.40234
1
1
1
1
1
1
1
1
1
1
1
1
1
1
1
1
1
1
1
1
1
1
1
1
1
1
1
1
1
1
1
1
1
1
1
1
1
1
1
1
1
1
1
1
1
1
1
1
1
1
1
1
1
1
1.00003
1.52736
7.56501
9.63177
9.58874
9.57828
9.56382
9.56363
9.56296
9.55967
9.55278
9.54118
9.52665
9.50823
9.48445
9.4607
9.43338
9.39585
9.35242
9.30284
9.24438
9.18378
9.11771
9.04514
8.96551
8.87847
8.78259
8.67434
8.5493
8.41052
8.25942
8.09446
7.91671
7.71706
7.50342
7.26318
7.00626
6.73896
6.45358
6.15067
5.84298
5.51076
1
1
1
1
1
1
1
1
1
1
1
1
1
1
1
1
1
1
1
1
1
1
1
1
1
1
1
1
1
1
1
1
1
1
1
1
1
1
1
1
1
1
1
1
1
1
1
1
1
1
1
1
1
1
1
1.00831
3.89469
8.94936
9.41804
9.45
9.46304
9.45972
9.45254
9.44311
9.43562
9.42565
9.41068
9.38994
9.36306
9.33555
9.30785
9.26911
9.22461
9.17569
9.11653
9.05417
8.98429
8.90669
8.82148
8.7292
8.63005
8.52236
8.40105
8.26679
8.11998
7.95693
7.78456
7.59127
7.39082
7.1689
6.93246
6.69439
6.43702
6.17384
5.89586
5.60686
1
1
1
1
1
1
1
1
1
1
1
1
1
1
1
1
1
1
1
1
1
1
1
1
1
1
1
1
1
1
1
1
1
1
1
1
1
1
1
1
1
1
1
1
1
1
1
1
1
1
1
1
1
1
1
1
1.22287
6.22118
9.37133
9.38977
9.39302
9.37327
9.36156
9.34802
9.33774
9.32816
9.31272
9.29089
9.26183
9.22884
9.19748
9.15545
9.10764
9.05662
8.99783
8.93375
8.86027
8.7793
8.69092
8.59442
8.49177
8.38316
8.26703
8.13735
7.99787
7.8397
7.67354
7.48757
7.30005
7.09305
6.87592
6.65933
6.42572
6.19526
5.94205
5.6875
1
1
1
1
1
1
1
1
1
1
1
1
1
1
1
1
1
1
1
1
1
1
1
1
1
1
1
1
1
1
1
1
1
1
1
1
1
1
1
1
1
1
1
1
1
1
1
1
1
1
1
1
1
1
1
1
1.00152
2.14361
7.98386
9.33023
9.25812
9.26798
9.26298
9.25285
9.24042
9.22976
9.21404
9.19069
9.16009
9.12265
9.08595
9.04183
8.99048
8.93603
8.87697
8.81301
8.73915
8.65874
8.57016
8.47376
8.36662
8.25937
8.14279
8.01593
7.8825
7.73298
7.57553
7.39962
7.22485
7.03155
6.83315
6.63228
6.41943
6.21233
5.98131
5.7546
1
1
1
1
1
1
1
1
1
1
1
1
1
1
1
1
1
1
1
1
1
1
1
1
1
1
1
1
1
1
1
1
1
1
1
1
1
1
1
1
1
1
1
1
1
1
1
1
1
1
1
1
1
1
1
1
1
1.03702
4.13841
8.89152
9.16155
9.17021
9.1783
9.17001
9.15655
9.14167
9.12339
9.09802
9.06597
9.02588
8.98369
8.93848
8.88289
8.82403
8.76333
8.69856
8.6263
8.54761
8.46154
8.36754
8.26145
8.1498
8.0331
7.90887
7.77957
7.63865
7.48959
7.32433
7.16126
6.98163
6.80053
6.61261
6.41615
6.22492
6.01385
5.80953
1
1
1
1
1
1
1
1
1
1
1
1
1
1
1
1
1
1
1
1
1
1
1
1
1
1
1
1
1
1
1
1
1
1
1
1
1
1
1
1
1
1
1
1
1
1
1
1
1
1
1
1
1
1
1
1
1
1.00007
1.25127
5.70118
9.02849
9.16083
9.13154
9.11868
9.09765
9.07121
9.0444
9.01429
8.97958
8.93648
8.89006
8.84357
8.78719
8.72524
8.66134
8.59394
8.52137
8.44319
8.35887
8.26735
8.16384
8.05424
7.93751
7.81443
7.687
7.5535
7.41264
7.25869
7.10571
6.93903
6.77188
6.59651
6.41461
6.23546
6.04129
5.85376
1
1
1
1
1
1
1
1
1
1
1
1
1
1
1
1
1
1
1
1
1
1
1
1
1
1
1
1
1
1
1
1
1
1
1
1
1
1
1
1
1
1
1
1
1
1
1
1
1
1
1
1
1
1
1
1
1
1
1.00199
1.61297
7.25152
9.16281
9.09999
9.06575
9.02171
8.98317
8.94889
8.91754
8.88453
8.84082
8.79322
8.74632
8.69147
8.63045
8.56485
8.49723
8.42406
8.34658
8.26291
8.17337
8.0718
7.96676
7.85416
7.73565
7.61144
7.4834
7.34891
7.20434
7.06004
6.90419
6.74785
6.58364
6.41459
6.24532
6.06584
5.89187
1
1
1
1
1
1
1
1
1
1
1
1
1
1
1
1
1
1
1
1
1
1
1
1
1
1
1
1
1
1
1
1
1
1
1
1
1
1
1
1
1
1
1
1
1
1
1
1
1
1
1
1
1
1
1
1
1
1
1
1.01082
3.01661
8.30354
8.96229
8.90034
8.87033
8.84423
8.82129
8.79698
8.77101
8.73442
8.69516
8.65258
8.60111
8.54377
8.47878
8.4081
8.33549
8.25709
8.17443
8.0843
7.98743
7.88671
7.77996
7.66749
7.54895
7.42588
7.2966
7.15885
7.02115
6.87378
6.72597
6.57151
6.41389
6.25238
6.08662
5.92332
1
1
1
1
1
1
1
1
1
1
1
1
1
1
1
1
1
1
1
1
1
1
1
1
1
1
1
1
1
1
1
1
1
1
1
1
1
1
1
1
1
1
1
1
1
1
1
1
1
1
1
1
1
1
1
1
1
1
1
1.00001
1.1061
4.34768
8.6062
8.79616
8.77049
8.76958
8.75453
8.73021
8.70087
8.66399
8.62509
8.58125
8.52929
8.47128
8.4065
8.33303
8.25724
8.18235
8.09695
8.00801
7.91198
7.81405
7.71217
7.60587
7.49464
7.37818
7.2549
7.12362
6.99076
6.85072
6.70958
6.56332
6.41524
6.2605
6.10649
5.95133
1
1
1
1
1
1
1
1
1
1
1
1
1
1
1
1
1
1
1
1
1
1
1
1
1
1
1
1
1
1
1
1
1
1
1
1
1
1
1
1
1
1
1
1
1
1
1
1
1
1
1
1
1
1
1
1
1
1
1
1
1.00049
1.29058
5.18456
8.58977
8.71748
8.7166
8.70446
8.67711
8.64395
8.6037
8.56076
8.51266
8.45957
8.4006
8.33563
8.26317
8.18478
8.1093
8.02753
7.93922
7.84547
7.74906
7.65035
7.54873
7.44309
7.33226
7.215
7.09014
6.96217
6.83022
6.69497
6.5562
6.41608
6.26867
6.12367
5.97675
1
1
1
1
1
1
1
1
1
1
1
1
1
1
1
1
1
1
1
1
1
1
1
1
1
1
1
1
1
1
1
1
1
1
1
1
1
1
1
1
1
1
1
1
1
1
1
1
1
1
1
1
1
1
1
1
1
1
1
1
1
1.00276
1.48799
5.85837
8.58629
8.69122
8.65936
8.62734
8.59036
8.54709
8.50085
8.45124
8.39708
8.33591
8.26938
8.19783
8.12141
8.04522
7.96647
7.88099
7.79008
7.69588
7.59926
7.50026
7.3978
7.28991
7.17683
7.05672
6.93258
6.80829
6.67953
6.54937
6.41747
6.27902
6.14094
6.00242
1
1
1
1
1
1
1
1
1
1
1
1
1
1
1
1
1
1
1
1
1
1
1
1
1
1
1
1
1
1
1
1
1
1
1
1
1
1
1
1
1
1
1
1
1
1
1
1
1
1
1
1
1
1
1
1
1
1
1
1
1
1
1.00713
1.71403
6.43214
8.56141
8.60943
8.57867
8.53694
8.49247
8.44252
8.3903
8.33372
8.27204
8.20571
8.13476
8.06092
7.98599
7.90795
7.82453
7.73684
7.64631
7.55285
7.45629
7.35603
7.25011
7.13996
7.02352
6.90302
6.78528
6.66441
6.54255
6.41864
6.2889
6.15731
6.02684
1
1
1
1
1
1
1
1
1
1
1
1
1
1
1
1
1
1
1
1
1
1
1
1
1
1
1
1
1
1
1
1
1
1
1
1
1
1
1
1
1
1
1
1
1
1
1
1
1
1
1
1
1
1
1
1
1
1
1
1
1
1
1.00001
1.01443
1.97161
6.86259
8.52942
8.53676
8.50036
8.44876
8.39672
8.34
8.2777
8.21397
8.14702
8.07641
8.00466
7.93178
7.85576
7.77535
7.6911
7.60371
7.51262
7.41749
7.31808
7.2139
7.10678
6.99459
6.87947
6.76919
6.65597
6.53975
6.42193
6.29913
6.17401
6.04991
1
1
1
1
1
1
1
1
1
1
1
1
1
1
1
1
1
1
1
1
1
1
1
1
1
1
1
1
1
1
1
1
1
1
1
1
1
1
1
1
1
1
1
1
1
1
1
1
1
1
1
1
1
1
1
1
1
1
1
1
1
1
1
1.00003
1.02583
2.2242
7.23546
8.49114
8.4566
8.4075
8.34659
8.28462
8.22156
8.15734
8.08917
8.01995
7.95034
7.87944
7.80563
7.72785
7.64619
7.56095
7.47174
7.37849
7.28157
7.18092
7.07796
6.97121
6.86186
6.757
6.65038
6.53901
6.42515
6.30743
6.18805
6.06908
1
1
1
1
1
1
1
1
1
1
1
1
1
1
1
1
1
1
1
1
1
1
1
1
1
1
1
1
1
1
1
1
1
1
1
1
1
1
1
1
1
1
1
1
1
1
1
1
1
1
1
1
1
1
1
1
1
1
1
1
1
1
1
1
1.00008
1.04037
2.57898
7.4805
8.39019
8.33954
8.29309
8.22987
8.16517
8.10217
8.03812
7.9734
7.90677
7.83735
7.7643
7.68719
7.60621
7.52151
7.43341
7.34285
7.24976
7.15336
7.05486
6.95368
6.84994
6.7484
6.64628
6.53896
6.42748
6.31362
6.19925
6.08535
1
1
1
1
1
1
1
1
1
1
1
1
1
1
1
1
1
1
1
1
1
1
1
1
1
1
1
1
1
1
1
1
1
1
1
1
1
1
1
1
1
1
1
1
1
1
1
1
1
1
1
1
1
1
1
1
1
1
1
1
1
1
1
1
1
1.00014
1.06617
2.8749
7.54886
8.27733
8.22139
8.16605
8.1117
8.05345
7.99459
7.93271
7.86752
7.79893
7.72644
7.65011
7.57024
7.48716
7.40121
7.31296
7.2225
7.12947
7.03467
6.93796
6.83904
6.73981
6.64057
6.53693
6.42841
6.31795
6.20857
6.09976
1
1
1
1
1
1
1
1
1
1
1
1
1
1
1
1
1
1
1
1
1
1
1
1
1
1
1
1
1
1
1
1
1
1
1
1
1
1
1
1
1
1
1
1
1
1
1
1
1
1
1
1
1
1
1
1
1
1
1
1
1
1
1
1
1
1
1.0003
1.09372
2.98369
7.48396
8.16544
8.11744
8.06792
8.0165
7.96107
7.9012
7.83642
7.76668
7.69354
7.61767
7.5387
7.45692
7.37286
7.28685
7.19906
7.10877
7.01654
6.92263
6.82735
6.73017
6.63289
6.53246
6.42767
6.32055
6.21608
6.11181
1
1
1
1
1
1
1
1
1
1
1
1
1
1
1
1
1
1
1
1
1
1
1
1
1
1
1
1
1
1
1
1
1
1
1
1
1
1
1
1
1
1
1
1
1
1
1
1
1
1
1
1
1
1
1
1
1
1
1
1
1
1
1
1
1
1
1
1.00052
1.1069
2.93462
7.3614
8.08161
8.03836
7.99014
7.93243
7.8702
7.80419
7.7337
7.66038
7.58516
7.50787
7.42834
7.34668
7.26285
7.17713
7.08904
6.99902
6.90739
6.8149
6.72028
6.62471
6.52764
6.42683
6.32423
6.22312
6.12351
1
1
1
1
1
1
1
1
1
1
1
1
1
1
1
1
1
1
1
1
1
1
1
1
1
1
1
1
1
1
1
1
1
1
1
1
1
1
1
1
1
1
1
1
1
1
1
1
1
1
1
1
1
1
1
1
1
1
1
1
1
1
1
1
1
1
1
1
1.00066
1.10337
2.86263
7.18565
7.99075
7.95649
7.8966
7.83491
7.7669
7.69803
7.62722
7.55327
7.4775
7.40046
7.32145
7.24014
7.15643
7.07045
6.98257
6.89311
6.80302
6.71103
6.61763
6.52299
6.42589
6.32762
6.22844
6.1305
1
1
1
1
1
1
1
1
1
1
1
1
1
1
1
1
1
1
1
1
1
1
1
1
1
1
1
1
1
1
1
1
1
1
1
1
1
1
1
1
1
1
1
1
1
1
1
1
1
1
1
1
1
1
1
1
1
1
1
1
1
1
1
1
1
1
1
1
1
1.00063
1.09614
2.7371
6.94083
7.89038
7.86527
7.79899
7.73401
7.66503
7.59586
7.52393
7.44974
7.37395
7.29647
7.21682
7.13517
7.05125
6.96612
6.87923
6.79183
6.70245
6.61169
6.51958
6.42355
6.3274
6.22997
6.13625
1
1
1
1
1
1
1
1
1
1
1
1
1
1
1
1
1
1
1
1
1
1
1
1
1
1
1
1
1
1
1
1
1
1
1
1
1
1
1
1
1
1
1
1
1
1
1
1
1
1
1
1
1
1
1
1
1
1
1
1
1
1
1
1
1
1
1
1
1
1
1.00057
1.08376
2.55287
6.61492
7.77229
7.7666
7.69874
7.63649
7.56775
7.49712
7.42422
7.34939
7.27261
7.19428
7.11399
7.03286
6.95022
6.86686
6.78205
6.69529
6.60531
6.51464
6.42229
6.33133
6.23751
6.15388
1
1
1
1
1
1
1
1
1
1
1
1
1
1
1
1
1
1
1
1
1
1
1
1
1
1
1
1
1
1
1
1
1
1
1
1
1
1
1
1
1
1
1
1
1
1
1
1
1
1
1
1
1
1
1
1
1
1
1
1
1
1
1
1
1
1
1
1
1
1
1
1.00047
1.06714
2.32584
6.1703
7.64152
7.67829
7.60706
7.54244
7.47087
7.39914
7.32534
7.2498
7.17318
7.09544
7.01666
6.93774
6.85518
6.77283
6.68695
6.60276
6.51281
6.42578
6.3574
6.31295
6.30112
1
1
1
1
1
1
1
1
1
1
1
1
1
1
1
1
1
1
1
1
1
1
1
1
1
1
1
1
1
1
1
1
1
1
1
1
1
1
1
1
1
1
1
1
1
1
1
1
1
1
1
1
1
1
1
1
1
1
1
1
1
1
1
1
1
1
1
1
1
1
1
1
1.00034
1.04941
2.06481
5.59517
7.48688
7.60249
7.50917
7.44108
7.37127
7.29937
7.22715
7.15423
7.08021
7.00533
6.92659
6.84742
6.76667
6.68238
6.61072
6.55176
6.52398
6.56181
6.6982
6.95583
1
1
1
1
1
1
1
1
1
1
1
1
1
1
1
1
1
1
1
1
1
1
1
1
1
1
1
1
1
1
1
1
1
1
1
1
1
1
1
1
1
1
1
1
1
1
1
1
1
1
1
1
1
1
1
1
1
1
1
1
1
1
1
1
1
1
1
1
1
1
1
1
1
1.00022
1.03266
1.79328
4.86061
7.30508
7.49722
7.41546
7.35268
7.28708
7.22259
7.15372
7.07966
7.00278
6.92537
6.84498
6.78328
6.73779
6.73865
6.83469
7.06719
7.38017
7.75877
8.06063
1
1
1
1
1
1
1
1
1
1
1
1
1
1
1
1
1
1
1
1
1
1
1
1
1
1
1
1
1
1
1
1
1
1
1
1
1
1
1
1
1
1
1
1
1
1
1
1
1
1
1
1
1
1
1
1
1
1
1
1
1
1
1
1
1
1
1
1
1
1
1
1
1
1
1.00012
1.01917
1.5296
4.08408
7.00028
7.39754
7.34029
7.28281
7.22118
7.14345
7.07361
6.99563
6.93791
6.91171
6.95044
7.11526
7.43629
7.8735
8.27803
8.48521
8.63391
8.64194
1
1
1
1
1
1
1
1
1
1
1
1
1
1
1
1
1
1
1
1
1
1
1
1
1
1
1
1
1
1
1
1
1
1
1
1
1
1
1
1
1
1
1
1
1
1
1
1
1
1
1
1
1
1
1
1
1
1
1
1
1
1
1
1
1
1
1
1
1
1
1
1
1
1
1
1.00006
1.00962
1.31855
3.32763
6.56684
7.28823
7.31987
7.22041
7.12621
7.06111
7.05047
7.14358
7.406
7.81478
8.33255
8.75069
9.01059
9.11928
9.06532
8.98833
8.87256
1
1
1
1
1
1
1
1
1
1
1
1
1
1
1
1
1
1
1
1
1
1
1
1
1
1
1
1
1
1
1
1
1
1
1
1
1
1
1
1
1
1
1
1
1
1
1
1
1
1
1
1
1
1
1
1
1
1
1
1
1
1
1
1
1
1
1
1
1
1
1
1
1
1
1
1
1.00002
1.00416
1.17249
2.66648
5.89336
7.17882
7.15714
7.17752
7.35639
7.70037
8.25209
8.83425
9.23641
9.47207
9.48602
9.4023
9.32784
9.22788
9.09355
8.96168
1
1
1
1
1
1
1
1
1
1
1
1
1
1
1
1
1
1
1
1
1
1
1
1
1
1
1
1
1
1
1
1
1
1
1
1
1
1
1
1
1
1
1
1
1
1
1
1
1
1
1
1
1
1
1
1
1
1
1
1
1
1
1
1
1
1
1
1
1
1
1
1
1
1
1
1
1
1.00001
1.00158
1.08446
2.10263
5.07834
6.86861
8.04779
8.64644
9.24211
9.66964
9.85193
9.8975
9.84023
9.71793
9.54451
9.41512
9.30882
9.17072
9.03946
1
1
1
1
1
1
1
1
1
1
1
1
1
1
1
1
1
1
1
1
1
1
1
1
1
1
1
1
1
1
1
1
1
1
1
1
1
1
1
1
1
1
1
1
1
1
1
1
1
1
1
1
1
1
1
1
1
1
1
1
1
1
1
1
1
1
1
1
1
1
1
1
1
1
1
1
1
1
1
1.00051
1.03802
1.63366
5.37789
10.0312
10.2988
10.3394
10.2906
10.1763
10.052
9.91115
9.74273
9.58727
9.47717
9.3931
9.28299
9.18256
1
1
1
1
1
1
1
1
1
1
1
1
1
1
1
1
1
1
1
1
1
1
1
1
1
1
1
1
1
1
1
1
1
1
1
1
1
1
1
1
1
1
1
1
1
1
1
1
1
1
1
1
1
1
1
1
1
1
1
1
1
1
1
1
1
1
1
1
1
1
1
1
1
1
1
1
1
1
1
1
1.00017
1.01312
3.76902
10.5724
10.8146
10.5953
10.4002
10.2093
10.0537
9.91261
9.79611
9.68968
9.59561
9.50768
9.39576
9.31389
1
1
1
1
1
1
1
1
1
1
1
1
1
1
1
1
1
1
1
1
1
1
1
1
1
1
1
1
1
1
1
1
1
1
1
1
1
1
1
1
1
1
1
1
1
1
1
1
1
1
1
1
1
1
1
1
1
1
1
1
1
1
1
1
1
1
1
1
1
1
1
1
1
1
1
1
1
1
1
1
1
1.00003
2.56743
9.36425
10.4574
10.2931
10.2087
10.1021
10.0158
9.92659
9.84435
9.75377
9.66927
9.59581
9.53695
9.4908
1
1
1
1
1
1
1
1
1
1
1
1
1
1
1
1
1
1
1
1
1
1
1
1
1
1
1
1
1
1
1
1
1
1
1
1
1
1
1
1
1
1
1
1
1
1
1
1
1
1
1
1
1
1
1
1
1
1
1
1
1
1
1
1
1
1
1
1
1
1
1
1
1
1
1
1
1
1
1
1
1
1
1.51403
7.97488
10.3604
10.2374
10.2041
10.1399
10.0884
10.0219
9.958
9.89252
9.82718
9.76822
9.70693
9.64061
1
1
1
1
1
1
1
1
1
1
1
1
1
1
1
1
1
1
1
1
1
1
1
1
1
1
1
1
1
1
1
1
1
1
1
1
1
1
1
1
1
1
1
1
1
1
1
1
1
1
1
1
1
1
1
1
1
1
1
1
1
1
1
1
1
1
1
1
1
1
1
1
1
1
1
1
1
1
1
1
1
1
1.01341
5.89019
10.1143
10.1941
10.1786
10.1491
10.1167
10.0647
10.0037
9.94569
9.88718
9.82799
9.76164
9.69311
1
1
1
1
1
1
1
1
1
1
1
1
1
1
1
1
1
1
1
1
1
1
1
1
1
1
1
1
1
1
1
1
1
1
1
1
1
1
1
1
1
1
1
1
1
1
1
1
1
1
1
1
1
1
1
1
1
1
1
1
1
1
1
1
1
1
1
1
1
1
1
1
1
1
1
1
1
1
1
1
1
1
1.00001
3.84351
9.56789
10.2023
10.1521
10.1186
10.0819
10.044
10.0075
9.96714
9.91929
9.87345
9.82376
9.77126
1
1
1
1
1
1
1
1
1
1
1
1
1
1
1
1
1
1
1
1
1
1
1
1
1
1
1
1
1
1
1
1
1
1
1
1
1
1
1
1
1
1
1
1
1
1
1
1
1
1
1
1
1
1
1
1
1
1
1
1
1
1
1
1
1
1
1
1
1
1
1
1
1
1
1
1
1
1
1
1
1
1
1
2.12588
8.59927
10.2788
10.2095
10.1699
10.132
10.0948
10.0567
10.019
9.9741
9.9245
9.8708
9.81476
1
1
1
1
1
1
1
1
1
1
1
1
1
1
1
1
1
1
1
1
1
1
1
1
1
1
1
1
1
1
1
1
1
1
1
1
1
1
1
1
1
1
1
1
1
1
1
1
1
1
1
1
1
1
1
1
1
1
1
1
1
1
1
1
1
1
1
1
1
1
1
1
1
1
1
1
1
1
1
1
1
1
1
1.05761
6.99028
10.3216
10.2681
10.2002
10.1523
10.1083
10.0675
10.027
9.98564
9.94395
9.90157
9.85481
1
1
1
1
1
1
1
1
1
1
1
1
1
1
1
1
1
1
1
1
1
1
1
1
1
1
1
1
1
1
1
1
1
1
1
1
1
1
1
1
1
1
1
1
1
1
1
1
1
1
1
1
1
1
1
1
1
1
1
1
1
1
1
1
1
1
1
1
1
1
1
1
1
1
1
1
1
1
1
1
1
1
1
1.00009
5.21358
10.0373
10.2219
10.1953
10.175
10.1392
10.0972
10.0538
10.0099
9.96517
9.92028
9.87371
1
1
1
1
1
1
1
1
1
1
1
1
1
1
1
1
1
1
1
1
1
1
1
1
1
1
1
1
1
1
1
1
1
1
1
1
1
1
1
1
1
1
1
1
1
1
1
1
1
1
1
1
1
1
1
1
1
1
1
1
1
1
1
1
1
1
1
1
1
1
1
1
1
1
1
1
1
1
1
1
1
1
1
1
3.51731
9.49932
10.2602
10.2072
10.1782
10.1388
10.0992
10.0591
10.0177
9.97514
9.93098
9.88541
1
1
1
1
1
1
1
1
1
1
1
1
1
1
1
1
1
1
1
1
1
1
1
1
1
1
1
1
1
1
1
1
1
1
1
1
1
1
1
1
1
1
1
1
1
1
1
1
1
1
1
1
1
1
1
1
1
1
1
1
1
1
1
1
1
1
1
1
1
1
1
1
1
1
1
1
1
1
1
1
1
1
1
1
2.18086
8.76059
10.353
10.2751
10.2333
10.1872
10.1434
10.1
10.0556
10.0113
9.9649
9.9178
1
1
1
1
1
1
1
1
1
1
1
1
1
1
1
1
1
1
1
1
1
1
1
1
1
1
1
1
1
1
1
1
1
1
1
1
1
1
1
1
1
1
1
1
1
1
1
1
1
1
1
1
1
1
1
1
1
1
1
1
1
1
1
1
1
1
1
1
1
1
1
1
1
1
1
1
1
1
1
1
1
1
1
1
1.29077
7.5443
10.3961
10.3045
10.2439
10.1967
10.1539
10.112
10.0692
10.0271
9.98286
9.93761
1
1
1
1
1
1
1
1
1
1
1
1
1
1
1
1
1
1
1
1
1
1
1
1
1
1
1
1
1
1
1
1
1
1
1
1
1
1
1
1
1
1
1
1
1
1
1
1
1
1
1
1
1
1
1
1
1
1
1
1
1
1
1
1
1
1
1
1
1
1
1
1
1
1
1
1
1
1
1
1
1
1
1
1
1.00435
6.22777
10.2901
10.3191
10.262
10.2221
10.1787
10.1353
10.0914
10.0484
10.0042
9.95897
1
1
1
1
1
1
1
1
1
1
1
1
1
1
1
1
1
1
1
1
1
1
1
1
1
1
1
1
1
1
1
1
1
1
1
1
1
1
1
1
1
1
1
1
1
1
1
1
1
1
1
1
1
1
1
1
1
1
1
1
1
1
1
1
1
1
1
1
1
1
1
1
1
1
1
1
1
1
1
1
1
1
1
1
1
4.93118
10.05
10.3121
10.2588
10.2271
10.1874
10.1475
10.1064
10.065
10.0219
9.9776
1
1
1
1
1
1
1
1
1
1
1
1
1
1
1
1
1
1
1
1
1
1
1
1
1
1
1
1
1
1
1
1
1
1
1
1
1
1
1
1
1
1
1
1
1
1
1
1
1
1
1
1
1
1
1
1
1
1
1
1
1
1
1
1
1
1
1
1
1
1
1
1
1
1
1
1
1
1
1
1
1
1
1
1
1
3.73344
9.70305
10.3554
10.2901
10.2594
10.2205
10.1812
10.1387
10.0942
10.0483
10.0029
1
1
1
1
1
1
1
1
1
1
1
1
1
1
1
1
1
1
1
1
1
1
1
1
1
1
1
1
1
1
1
1
1
1
1
1
1
1
1
1
1
1
1
1
1
1
1
1
1
1
1
1
1
1
1
1
1
1
1
1
1
1
1
1
1
1
1
1
1
1
1
1
1
1
1
1
1
1
1
1
1
1
1
1
1
2.71678
9.26384
10.3827
10.3036
10.2709
10.2324
10.1937
10.1528
10.1107
10.0671
10.0236
1
1
1
1
1
1
1
1
1
1
1
1
1
1
1
1
1
1
1
1
1
1
1
1
1
1
1
1
1
1
1
1
1
1
1
1
1
1
1
1
1
1
1
1
1
1
1
1
1
1
1
1
1
1
1
1
1
1
1
1
1
1
1
1
1
1
1
1
1
1
1
1
1
1
1
1
1
1
1
1
1
1
1
1
1
1.96339
8.63372
10.4064
10.3249
10.2864
10.2463
10.2069
10.1668
10.1257
10.0834
10.0408
1
1
1
1
1
1
1
1
1
1
1
1
1
1
1
1
1
1
1
1
1
1
1
1
1
1
1
1
1
1
1
1
1
1
1
1
1
1
1
1
1
1
1
1
1
1
1
1
1
1
1
1
1
1
1
1
1
1
1
1
1
1
1
1
1
1
1
1
1
1
1
1
1
1
1
1
1
1
1
1
1
1
1
1
1
1.48799
7.90468
10.4199
10.3522
10.3061
10.2645
10.2231
10.1827
10.1418
10.1001
10.0578
1
1
1
1
1
1
1
1
1
1
1
1
1
1
1
1
1
1
1
1
1
1
1
1
1
1
1
1
1
1
1
1
1
1
1
1
1
1
1
1
1
1
1
1
1
1
1
1
1
1
1
1
1
1
1
1
1
1
1
1
1
1
1
1
1
1
1
1
1
1
1
1
1
1
1
1
1
1
1
1
1
1
1
1
1
1.14427
7.08995
10.3876
10.3678
10.3159
10.2782
10.2372
10.1983
10.1591
10.119
10.0771
1
1
1
1
1
1
1
1
1
1
1
1
1
1
1
1
1
1
1
1
1
1
1
1
1
1
1
1
1
1
1
1
1
1
1
1
1
1
1
1
1
1
1
1
1
1
1
1
1
1
1
1
1
1
1
1
1
1
1
1
1
1
1
1
1
1
1
1
1
1
1
1
1
1
1
1
1
1
1
1
1
1
1
1
1
1.00215
6.33589
10.3314
10.3848
10.3229
10.2862
10.2445
10.2042
10.1639
10.1229
10.0807
1
1
1
1
1
1
1
1
1
1
1
1
1
1
1
1
1
1
1
1
1
1
1
1
1
1
1
1
1
1
1
1
1
1
1
1
1
1
1
1
1
1
1
1
1
1
1
1
1
1
1
1
1
1
1
1
1
1
1
1
1
1
1
1
1
1
1
1
1
1
1
1
1
1
1
1
1
1
1
1
1
1
1
1
1
1
5.54609
10.2384
10.3928
10.3309
10.298
10.2589
10.2205
10.1812
10.1406
10.0987
1
1
1
1
1
1
1
1
1
1
1
1
1
1
1
1
1
1
1
1
1
1
1
1
1
1
1
1
1
1
1
1
1
1
1
1
1
1
1
1
1
1
1
1
1
1
1
1
1
1
1
1
1
1
1
1
1
1
1
1
1
1
1
1
1
1
1
1
1
1
1
1
1
1
1
1
1
1
1
1
1
1
1
1
1
1
4.87426
10.1246
10.4074
10.3416
10.3082
10.2679
10.2285
10.1883
10.1472
10.1055
1
1
1
1
1
1
1
1
1
1
1
1
1
1
1
1
1
1
1
1
1
1
1
1
1
1
1
1
1
1
1
1
1
1
1
1
1
1
1
1
1
1
1
1
1
1
1
1
1
1
1
1
1
1
1
1
1
1
1
1
1
1
1
1
1
1
1
1
1
1
1
1
1
1
1
1
1
1
1
1
1
1
1
1
1
1
4.3338
9.98557
10.4195
10.3491
10.3148
10.2739
10.2342
10.1933
10.152
10.1107
1
1
1
1
1
1
1
1
1
1
1
1
1
1
1
1
1
1
1
1
1
1
1
1
1
1
1
1
1
1
1
1
1
1
1
1
1
1
1
1
1
1
1
1
1
1
1
1
1
1
1
1
1
1
1
1
1
1
1
1
1
1
1
1
1
1
1
1
1
1
1
1
1
1
1
1
1
1
1
1
1
1
1
1
1
1
3.90941
9.83921
10.4294
10.3542
10.3186
10.2778
10.2384
10.1974
10.1566
10.1161
1
1
1
1
1
1
1
1
1
1
1
1
1
1
1
1
1
1
1
1
1
1
1
1
1
1
1
1
1
1
1
1
1
1
1
1
1
1
1
1
1
1
1
1
1
1
1
1
1
1
1
1
1
1
1
1
1
1
1
1
1
1
1
1
1
1
1
1
1
1
1
1
1
1
1
1
1
1
1
1
1
1
1
1
1
1
3.58364
9.70781
10.4374
10.3622
10.3251
10.283
10.2429
10.2016
10.1608
10.1196
1
1
1
1
1
1
1
1
1
1
1
1
1
1
1
1
1
1
1
1
1
1
1
1
1
1
1
1
1
1
1
1
1
1
1
1
1
1
1
1
1
1
1
1
1
1
1
1
1
1
1
1
1
1
1
1
1
1
1
1
1
1
1
1
1
1
1
1
1
1
1
1
1
1
1
1
1
1
1
1
1
1
1
1
1
1
3.33504
9.64008
10.4391
10.3605
10.3242
10.2832
10.2437
10.2032
10.163
10.1224
1
1
1
1
1
1
1
1
1
1
1
1
1
1
1
1
1
1
1
1
1
1
1
1
1
1
1
1
1
1
1
1
1
1
1
1
1
1
1
1
1
1
1
1
1
1
1
1
1
1
1
1
1
1
1
1
1
1
1
1
1
1
1
1
1
1
1
1
1
1
1
1
1
1
1
1
1
1
1
1
1
1
1
1
1
1
3.17665
9.57793
10.4365
10.3591
10.3234
10.2834
10.2441
10.2043
10.1637
10.1224
1
1
1
1
1
1
1
1
1
1
1
1
1
1
1
1
1
1
1
1
1
1
1
1
1
1
1
1
1
1
1
1
1
1
1
1
1
1
1
1
1
1
1
1
1
1
1
1
1
1
1
1
1
1
1
1
1
1
1
1
1
1
1
1
1
1
1
1
1
1
1
1
1
1
1
1
1
1
1
1
1
1
1
1
1
1
3.10763
9.53218
10.4312
10.3568
10.3231
10.2842
10.245
10.2061
10.165
10.1235
1.10332
0.115619
0.0506842
0.0721326
0.0727747
0.0672515
0.077484
0.115601
0.161807
0.216913
0.292671
0.38301
0.467765
0.555925
0.623392
0.703797
0.779243
0.859273
0.893376
0.901409
0.936048
0.963224
0.98908
1.01867
1.0377
1.05219
1.07253
1.09678
1.1205