/*--------------------------------*- C++ -*----------------------------------*\
  =========                 |
  \\      /  F ield         | OpenFOAM: The Open Source CFD Toolbox
   \\    /   O peration     | Website:  https://openfoam.org
    \\  /    A nd           | Version:  7
     \\/     M anipulation  |
\*---------------------------------------------------------------------------*/
FoamFile
{
    version     2.0;
    format      ascii;
    class       volScalarField;
    location    "6.2";
    object      T;
}
// * * * * * * * * * * * * * * * * * * * * * * * * * * * * * * * * * * * * * //

dimensions      [0 0 0 1 0 0 0];

internalField   nonuniform List<scalar> 
19968
(
1
1
1
1
1
1
1
1
1
1
1
1
1
1
1
1
1
1
1
1
1
1
1
1
1
1
1
1
1
1
1
1
1
1
1
1
1
1
1
1
1
1
1
1
1
1
1
1
1.27917
2.4607
2.6875
2.69088
2.69824
2.70316
2.70755
2.71115
2.71426
2.71727
2.72061
2.72452
2.7289
2.73342
2.73747
2.74077
2.74354
2.74621
2.74915
2.75249
2.75608
2.75959
2.76273
2.76549
2.768
2.77045
2.77285
2.77513
2.77727
2.77936
2.78154
2.78389
2.78631
2.78863
2.79071
2.79252
2.79414
2.79561
2.79695
2.7981
2.79901
2.79973
2.80039
2.80107
2.80181
2.80251
2.80311
2.80352
1
1
1
1
1
1
1
1
1
1
1
1
1
1
1
1
1
1
1
1
1
1
1
1
1
1
1
1
1
1
1
1
1
1
1
1
1
1
1
1
1
1
1
1
1
1
1
1
1.26389
2.45147
2.68676
2.69204
2.69837
2.70319
2.70739
2.71092
2.71408
2.7172
2.72064
2.72458
2.7289
2.7333
2.73723
2.74051
2.7433
2.746
2.74896
2.75232
2.7559
2.75939
2.76251
2.76524
2.76775
2.77017
2.77256
2.77484
2.77699
2.77909
2.78128
2.78362
2.78601
2.7883
2.79035
2.79215
2.79375
2.79523
2.79657
2.79771
2.79863
2.79936
2.80001
2.80067
2.80138
2.80204
2.8026
2.80299
1
1
1
1
1
1
1
1
1
1
1
1
1
1
1
1
1
1
1
1
1
1
1
1
1
1
1
1
1
1
1
1
1
1
1
1
1
1
1
1
1
1
1
1
1
1
1
1
1.22868
2.43064
2.68732
2.69224
2.6979
2.70238
2.70633
2.70994
2.71343
2.71691
2.72058
2.72457
2.7287
2.73285
2.73657
2.73981
2.74265
2.74547
2.74853
2.75194
2.75551
2.75895
2.76203
2.76473
2.76721
2.76962
2.772
2.77429
2.77646
2.77859
2.78078
2.78309
2.78544
2.78768
2.78971
2.79149
2.79309
2.79457
2.79593
2.79709
2.79803
2.79878
2.79943
2.80008
2.80074
2.80135
2.80185
2.80221
1
1
1
1
1
1
1
1
1
1
1
1
1
1
1
1
1
1
1
1
1
1
1
1
1
1
1
1
1
1
1
1
1
1
1
1
1
1
1
1
1
1
1
1
1
1
1
1
1.17679
2.39876
2.68792
2.69235
2.69702
2.70101
2.70478
2.70867
2.71276
2.71684
2.72078
2.7247
2.72847
2.73223
2.73566
2.73885
2.7418
2.74479
2.74798
2.75143
2.75496
2.75833
2.76134
2.76401
2.76646
2.76884
2.77121
2.77351
2.77571
2.77786
2.78006
2.78232
2.7846
2.78677
2.78874
2.79048
2.79205
2.79351
2.79486
2.79603
2.79699
2.79776
2.79842
2.79905
2.79967
2.80023
2.8007
2.80102
1
1
1
1
1
1
1
1
1
1
1
1
1
1
1
1
1
1
1
1
1
1
1
1
1
1
1
1
1
1
1
1
1
1
1
1
1
1
1
1
1
1
1
1
1
1
1
1
1.11173
2.3587
2.68859
2.69207
2.69582
2.69952
2.70333
2.70756
2.71215
2.71669
2.72089
2.7247
2.72811
2.73147
2.73465
2.73782
2.74095
2.74413
2.74742
2.75084
2.75427
2.75754
2.76049
2.76314
2.76558
2.76794
2.77028
2.77258
2.77482
2.77702
2.77923
2.78145
2.78366
2.78575
2.78765
2.78934
2.79088
2.79232
2.79364
2.7948
2.79574
2.79646
2.79705
2.79758
2.79808
2.79853
2.7989
2.79916
1
1
1
1
1
1
1
1
1
1
1
1
1
1
1
1
1
1
1
1
1
1
1
1
1
1
1
1
1
1
1
1
1
1
1
1
1
1
1
1
1
1
1
1
1
1
1
1
1.00422
2.29504
2.68747
2.69089
2.69451
2.6986
2.70288
2.70751
2.71231
2.71701
2.72129
2.72495
2.72797
2.73084
2.73372
2.73686
2.74019
2.74356
2.74688
2.75014
2.75333
2.7564
2.75925
2.76185
2.76425
2.76653
2.76878
2.77101
2.77324
2.77547
2.77768
2.77986
2.78197
2.78396
2.78577
2.78742
2.78894
2.79038
2.79173
2.79293
2.79392
2.79468
2.79527
2.79576
2.79618
2.79656
2.79686
2.79707
1
1
1
1
1
1
1
1
1
1
1
1
1
1
1
1
1
1
1
1
1
1
1
1
1
1
1
1
1
1
1
1
1
1
1
1
1
1
1
1
1
1
1
1
1
1
1
1
1.00002
2.21115
2.68341
2.68703
2.69034
2.69467
2.69933
2.70433
2.70939
2.71426
2.71861
2.72222
2.72506
2.72773
2.73059
2.73391
2.7376
2.74127
2.74466
2.7478
2.75081
2.75376
2.75661
2.75928
2.76173
2.764
2.76618
2.76837
2.77063
2.77294
2.77523
2.77742
2.77948
2.78138
2.78311
2.78472
2.78624
2.7877
2.78909
2.79033
2.79135
2.79212
2.79269
2.79313
2.79349
2.79379
2.79402
2.79417
1
1
1
1
1
1
1
1
1
1
1
1
1
1
1
1
1
1
1
1
1
1
1
1
1
1
1
1
1
1
1
1
1
1
1
1
1
1
1
1
1
1
1
1
1
1
1
1
1
2.08814
2.6741
2.6833
2.68683
2.69133
2.69595
2.70095
2.70608
2.71099
2.7153
2.71885
2.72174
2.72455
2.72761
2.73108
2.73489
2.73862
2.74198
2.74501
2.74792
2.75082
2.75371
2.75647
2.75899
2.76125
2.76335
2.76547
2.76772
2.7701
2.77248
2.7747
2.7767
2.77847
2.78008
2.7816
2.78308
2.78453
2.78591
2.78715
2.78817
2.78892
2.78945
2.78984
2.79013
2.79037
2.79052
2.79063
1
1
1
1
1
1
1
1
1
1
1
1
1
1
1
1
1
1
1
1
1
1
1
1
1
1
1
1
1
1
1
1
1
1
1
1
1
1
1
1
1
1
1
1
1
1
1
1
1
1.91408
2.64628
2.6769
2.68128
2.68626
2.6909
2.69584
2.70089
2.70578
2.71015
2.71389
2.71711
2.72025
2.72365
2.72727
2.73107
2.73469
2.73792
2.74084
2.74372
2.74665
2.7496
2.75246
2.75503
2.75726
2.75928
2.76133
2.7636
2.76607
2.76856
2.77084
2.77279
2.77443
2.7759
2.7773
2.77871
2.78015
2.78154
2.78279
2.7838
2.78454
2.78507
2.78545
2.78574
2.78595
2.78608
2.78617
1
1
1
1
1
1
1
1
1
1
1
1
1
1
1
1
1
1
1
1
1
1
1
1
1
1
1
1
1
1
1
1
1
1
1
1
1
1
1
1
1
1
1
1
1
1
1
1
1
1.68423
2.58872
2.67123
2.67598
2.6812
2.68571
2.69041
2.6952
2.70005
2.70459
2.7086
2.71218
2.71561
2.71921
2.72289
2.72656
2.72997
2.73304
2.73591
2.73882
2.74183
2.74483
2.7477
2.75023
2.75238
2.75428
2.75624
2.75848
2.761
2.76355
2.76585
2.76775
2.76929
2.77062
2.77191
2.77327
2.77469
2.77608
2.77729
2.77823
2.77888
2.77933
2.77965
2.7799
2.78011
2.78024
2.78033
1
1
1
1
1
1
1
1
1
1
1
1
1
1
1
1
1
1
1
1
1
1
1
1
1
1
1
1
1
1
1
1
1
1
1
1
1
1
1
1
1
1
1
1
1
1
1
1
1
1.37531
2.48071
2.67082
2.67176
2.6773
2.68097
2.68531
2.68986
2.69461
2.6992
2.70334
2.70708
2.71061
2.71417
2.71774
2.72124
2.72447
2.72745
2.73034
2.73328
2.73638
2.73944
2.74231
2.7448
2.74691
2.74877
2.75067
2.75285
2.75529
2.75777
2.75996
2.76168
2.76297
2.76403
2.76505
2.76616
2.76738
2.76862
2.76973
2.77059
2.77119
2.77162
2.77196
2.77228
2.77261
2.77285
2.77303
1
1
1
1
1
1
1
1
1
1
1
1
1
1
1
1
1
1
1
1
1
1
1
1
1
1
1
1
1
1
1
1
1
1
1
1
1
1
1
1
1
1
1
1
1
1
1
1
1
1.01535
2.29488
2.67793
2.67742
2.67868
2.68117
2.68464
2.68858
2.69262
2.69642
2.69979
2.70286
2.70582
2.70884
2.71201
2.71514
2.71803
2.72072
2.72344
2.72624
2.72927
2.73223
2.735
2.73741
2.73947
2.74133
2.74322
2.74533
2.74768
2.75006
2.75216
2.75378
2.75498
2.75592
2.7568
2.75776
2.75883
2.75994
2.7609
2.76155
2.76184
2.76188
2.76183
2.76182
2.76195
2.76213
2.76233
1
1
1
1
1
1
1
1
1
1
1
1
1
1
1
1
1
1
1
1
1
1
1
1
1
1
1
1
1
1
1
1
1
1
1
1
1
1
1
1
1
1
1
1
1
1
1
1
1
1.00003
2.01303
2.64488
2.66175
2.66584
2.67126
2.67599
2.68049
2.68464
2.68831
2.69148
2.69432
2.6971
2.69993
2.70284
2.70577
2.70851
2.71109
2.71378
2.71662
2.71962
2.72257
2.72525
2.72763
2.7297
2.73162
2.73353
2.73559
2.7378
2.73999
2.7419
2.74335
2.74437
2.74511
2.74568
2.74617
2.74667
2.74718
2.7476
2.7478
2.74778
2.74765
2.74754
2.74753
2.74768
2.74777
2.74798
1
1
1
1
1
1
1
1
1
1
1
1
1
1
1
1
1
1
1
1
1
1
1
1
1
1
1
1
1
1
1
1
1
1
1
1
1
1
1
1
1
1
1
1
1
1
1
1
1
1
1.54361
2.5138
2.64563
2.65384
2.66222
2.66806
2.67317
2.67759
2.68134
2.68452
2.68734
2.6901
2.69289
2.69565
2.69836
2.7009
2.70322
2.70562
2.70821
2.71083
2.71344
2.71575
2.71777
2.71957
2.72127
2.72298
2.72476
2.72659
2.72835
2.72982
2.73089
2.73166
2.73215
2.73225
2.73225
2.73221
2.73218
2.7322
2.73214
2.73186
2.73118
2.73011
2.72839
2.72606
2.72343
2.72136
1
1
1
1
1
1
1
1
1
1
1
1
1
1
1
1
1
1
1
1
1
1
1
1
1
1
1
1
1
1
1
1
1
1
1
1
1
1
1
1
1
1
1
1
1
1
1
1
1
1
1.02776
2.24985
2.65445
2.65345
2.65509
2.65975
2.6647
2.66887
2.67223
2.67511
2.67776
2.68039
2.68313
2.68585
2.68845
2.69086
2.69301
2.6951
2.69738
2.69967
2.70186
2.70375
2.7053
2.70668
2.70805
2.7095
2.71095
2.71228
2.71349
2.71445
2.71502
2.71522
2.71507
2.71461
2.71376
2.71251
2.71092
2.7091
2.70696
2.70435
2.70117
2.69753
2.69396
2.69019
2.68753
2.68616
1
1
1
1
1
1
1
1
1
1
1
1
1
1
1
1
1
1
1
1
1
1
1
1
1
1
1
1
1
1
1
1
1
1
1
1
1
1
1
1
1
1
1
1
1
1
1
1
1
1
1.00005
1.75441
2.55334
2.62978
2.63866
2.64641
2.65138
2.65533
2.65862
2.66164
2.66459
2.66763
2.67075
2.6738
2.67653
2.67892
2.68103
2.68304
2.68521
2.68739
2.68925
2.69068
2.69169
2.69246
2.69331
2.69421
2.69492
2.6956
2.69615
2.69636
2.69614
2.69543
2.69426
2.69269
2.69059
2.68779
2.68429
2.68032
2.6761
2.67166
2.66671
2.66124
2.65561
2.65295
2.64962
2.6642
1
1
1
1
1
1
1
1
1
1
1
1
1
1
1
1
1
1
1
1
1
1
1
1
1
1
1
1
1
1
1
1
1
1
1
1
1
1
1
1
1
1
1
1
1
1
1
1
1
1
1
1.0937
2.32462
2.63261
2.63293
2.63688
2.64098
2.64474
2.648
2.65078
2.65348
2.65636
2.65939
2.66234
2.66498
2.66723
2.66924
2.67116
2.67319
2.67529
2.67699
2.6781
2.67873
2.67899
2.67921
2.67939
2.67938
2.6793
2.67915
2.67865
2.67752
2.6757
2.67329
2.67036
2.66674
2.66213
2.65621
2.64896
2.64021
2.62966
2.61537
2.59548
2.56566
2.52309
2.45943
2.33384
1
1
1
1
1
1
1
1
1
1
1
1
1
1
1
1
1
1
1
1
1
1
1
1
1
1
1
1
1
1
1
1
1
1
1
1
1
1
1
1
1
1
1
1
1
1
1
1
1
1
1
1.0007
1.99242
2.59925
2.61421
2.62006
2.62495
2.62972
2.63391
2.6373
2.64036
2.6435
2.64683
2.65019
2.65323
2.65568
2.65762
2.6593
2.66103
2.66304
2.66485
2.66597
2.66651
2.66662
2.6664
2.66599
2.6654
2.66464
2.66379
2.66255
2.66062
2.65783
2.65422
2.64988
2.64464
2.6382
2.62987
2.61949
2.60623
2.58991
2.56754
2.5377
2.49346
2.43739
2.32472
2.16169
1
1
1
1
1
1
1
1
1
1
1
1
1
1
1
1
1
1
1
1
1
1
1
1
1
1
1
1
1
1
1
1
1
1
1
1
1
1
1
1
1
1
1
1
1
1
1
1
1
1
1
0.999999
1.37917
2.42583
2.59808
2.60821
2.61417
2.61817
2.62162
2.6246
2.62756
2.63075
2.63431
2.63803
2.6414
2.64403
2.646
2.64755
2.64909
2.65083
2.65239
2.65338
2.65375
2.6537
2.6531
2.65216
2.65104
2.64968
2.64801
2.64584
2.64295
2.63918
2.63436
2.62858
2.62153
2.6131
2.60238
2.58915
2.57229
2.55125
2.52408
2.48766
2.44004
2.36614
2.26068
2.12998
1
1
1
1
1
1
1
1
1
1
1
1
1
1
1
1
1
1
1
1
1
1
1
1
1
1
1
1
1
1
1
1
1
1
1
1
1
1
1
1
1
1
1
1
1
1
1
1
1
1
1
1
1.01411
2.1161
2.60192
2.60127
2.60262
2.60519
2.60814
2.61085
2.61373
2.61705
2.62092
2.62466
2.62795
2.63052
2.63251
2.63414
2.63573
2.63732
2.63878
2.63963
2.63976
2.63947
2.6386
2.63741
2.63597
2.63414
2.6317
2.62858
2.62464
2.61986
2.61394
2.60692
2.59832
2.58806
2.57533
2.55978
2.54053
2.51665
2.48706
2.44845
2.40027
2.33109
2.24592
2.14784
1
1
1
1
1
1
1
1
1
1
1
1
1
1
1
1
1
1
1
1
1
1
1
1
1
1
1
1
1
1
1
1
1
1
1
1
1
1
1
1
1
1
1
1
1
1
1
1
1
1
1
1
1.00001
1.47274
2.45302
2.58646
2.59135
2.59474
2.59663
2.59863
2.60108
2.60441
2.60854
2.61182
2.61469
2.61681
2.61838
2.6199
2.62158
2.62326
2.62473
2.62543
2.62526
2.62454
2.62338
2.62203
2.62042
2.61833
2.61537
2.61148
2.60651
2.60062
2.59366
2.58557
2.57588
2.56427
2.55012
2.53302
2.51242
2.48738
2.45729
2.41929
2.37433
2.31696
2.2498
2.17287
1
1
1
1
1
1
1
1
1
1
1
1
1
1
1
1
1
1
1
1
1
1
1
1
1
1
1
1
1
1
1
1
1
1
1
1
1
1
1
1
1
1
1
1
1
1
1
1
1
1
1
1
1
1.02216
2.13119
2.58798
2.58647
2.58627
2.58673
2.58794
2.5897
2.59284
2.59724
2.60045
2.60284
2.6042
2.60475
2.60552
2.60672
2.60821
2.60965
2.61036
2.61006
2.60906
2.6076
2.60599
2.60411
2.60181
2.59862
2.59434
2.58872
2.58191
2.57395
2.56488
2.55435
2.54194
2.52703
2.50927
2.48836
2.46329
2.43403
2.39838
2.35829
2.31056
2.25706
2.19514
1
1
1
1
1
1
1
1
1
1
1
1
1
1
1
1
1
1
1
1
1
1
1
1
1
1
1
1
1
1
1
1
1
1
1
1
1
1
1
1
1
1
1
1
1
1
1
1
1
1
1
1
1
1.00003
1.42353
2.42162
2.57151
2.57542
2.5773
2.57816
2.57937
2.58187
2.58553
2.58842
2.5906
2.59163
2.59156
2.59164
2.59199
2.59282
2.59382
2.59439
2.594
2.59286
2.59116
2.58925
2.58704
2.58446
2.58115
2.57682
2.5711
2.56388
2.55525
2.54542
2.5343
2.5215
2.50644
2.48871
2.46833
2.44384
2.41625
2.38372
2.34833
2.30721
2.26293
2.21153
1
1
1
1
1
1
1
1
1
1
1
1
1
1
1
1
1
1
1
1
1
1
1
1
1
1
1
1
1
1
1
1
1
1
1
1
1
1
1
1
1
1
1
1
1
1
1
1
1
1
1
1
1
1
1.01605
2.04637
2.55892
2.56673
2.56665
2.56792
2.56983
2.57273
2.57613
2.57875
2.58035
2.58049
2.58
2.57917
2.57838
2.57846
2.57874
2.57883
2.57836
2.57714
2.57513
2.57271
2.56986
2.56667
2.56303
2.55868
2.5532
2.54616
2.53738
2.52714
2.51562
2.5026
2.48779
2.47055
2.45114
2.42796
2.40235
2.37339
2.3419
2.3061
2.26855
2.22518
1
1
1
1
1
1
1
1
1
1
1
1
1
1
1
1
1
1
1
1
1
1
1
1
1
1
1
1
1
1
1
1
1
1
1
1
1
1
1
1
1
1
1
1
1
1
1
1
1
1
1
1
1
1
1.00002
1.23391
2.34734
2.56038
2.55722
2.55817
2.55939
2.56185
2.56474
2.56741
2.56887
2.56874
2.56797
2.56657
2.56492
2.56414
2.5639
2.56341
2.5627
2.56138
2.55905
2.55616
2.55267
2.54876
2.54459
2.54005
2.5348
2.52827
2.51991
2.50991
2.49845
2.48548
2.47113
2.4545
2.43619
2.41483
2.39115
2.3656
2.3373
2.30618
2.27321
2.23615
1
1
1
1
1
1
1
1
1
1
1
1
1
1
1
1
1
1
1
1
1
1
1
1
1
1
1
1
1
1
1
1
1
1
1
1
1
1
1
1
1
1
1
1
1
1
1
1
1
1
1
1
1
1
1
1.00389
1.85851
2.50017
2.53516
2.54191
2.54621
2.54906
2.55181
2.55414
2.55563
2.55565
2.55502
2.5536
2.55174
2.55048
2.54994
2.54907
2.54802
2.54655
2.54397
2.54067
2.5365
2.53181
2.52689
2.5218
2.51635
2.51009
2.50234
2.49299
2.4821
2.46941
2.45561
2.43961
2.42259
2.40305
2.38144
2.35889
2.33351
2.30662
2.27714
2.24537
1
1
1
1
1
1
1
1
1
1
1
1
1
1
1
1
1
1
1
1
1
1
1
1
1
1
1
1
1
1
1
1
1
1
1
1
1
1
1
1
1
1
1
1
1
1
1
1
1
1
1
1
1
1
1
1
1.10182
2.19876
2.53073
2.53309
2.53476
2.53598
2.53869
2.54095
2.54245
2.54289
2.54242
2.54131
2.53968
2.53818
2.5374
2.53623
2.5348
2.53298
2.53019
2.52646
2.52161
2.51616
2.51049
2.50467
2.49873
2.49238
2.48518
2.47639
2.46628
2.45411
2.44092
2.42566
2.40996
2.39203
2.37254
2.35243
2.32972
2.30648
2.28004
2.25252
1
1
1
1
1
1
1
1
1
1
1
1
1
1
1
1
1
1
1
1
1
1
1
1
1
1
1
1
1
1
1
1
1
1
1
1
1
1
1
1
1
1
1
1
1
1
1
1
1
1
1
1
1
1
1
1
1.00069
1.43652
2.35614
2.51415
2.51303
2.51788
2.52247
2.52578
2.52763
2.52859
2.52843
2.5277
2.52653
2.52514
2.52428
2.52319
2.5216
2.5195
2.51656
2.51265
2.50747
2.50164
2.49544
2.48913
2.48241
2.47594
2.46859
2.46003
2.45045
2.43903
2.42658
2.41221
2.39776
2.38129
2.3639
2.34572
2.32562
2.30532
2.28165
2.25761
1
1
1
1
1
1
1
1
1
1
1
1
1
1
1
1
1
1
1
1
1
1
1
1
1
1
1
1
1
1
1
1
1
1
1
1
1
1
1
1
1
1
1
1
1
1
1
1
1
1
1
1
1
1
1
1
1
1.01672
1.88422
2.46719
2.49915
2.50455
2.5092
2.51161
2.51299
2.5138
2.51386
2.51346
2.51272
2.51168
2.51088
2.51012
2.50854
2.50629
2.5033
2.49934
2.4942
2.48828
2.48194
2.47539
2.46833
2.46112
2.45352
2.44503
2.43569
2.42491
2.41305
2.39947
2.38599
2.3708
2.35525
2.33859
2.32063
2.30254
2.2814
2.26029
1
1
1
1
1
1
1
1
1
1
1
1
1
1
1
1
1
1
1
1
1
1
1
1
1
1
1
1
1
1
1
1
1
1
1
1
1
1
1
1
1
1
1
1
1
1
1
1
1
1
1
1
1
1
1
1
1
1.00003
1.11417
2.11638
2.48152
2.50001
2.4987
2.49969
2.49992
2.49974
2.49952
2.49913
2.49862
2.49784
2.49718
2.49672
2.49545
2.49328
2.49028
2.48628
2.48123
2.47537
2.46906
2.46249
2.45534
2.44802
2.44016
2.43159
2.42226
2.41195
2.40058
2.38775
2.37491
2.36073
2.34646
2.33122
2.31495
2.29845
2.2797
2.26079
1
1
1
1
1
1
1
1
1
1
1
1
1
1
1
1
1
1
1
1
1
1
1
1
1
1
1
1
1
1
1
1
1
1
1
1
1
1
1
1
1
1
1
1
1
1
1
1
1
1
1
1
1
1
1
1
1
1
1.00088
1.26087
2.26799
2.48279
2.48168
2.48287
2.48253
2.48232
2.48237
2.4826
2.48293
2.48274
2.48252
2.48232
2.48142
2.4796
2.47674
2.47296
2.46811
2.46253
2.45638
2.44999
2.44293
2.43587
2.42827
2.42001
2.41087
2.40092
2.38992
2.37764
2.36523
2.35169
2.33815
2.32385
2.3089
2.29359
2.27673
2.2598
1
1
1
1
1
1
1
1
1
1
1
1
1
1
1
1
1
1
1
1
1
1
1
1
1
1
1
1
1
1
1
1
1
1
1
1
1
1
1
1
1
1
1
1
1
1
1
1
1
1
1
1
1
1
1
1
1
1
1
1.00487
1.6503
2.37588
2.45855
2.45584
2.45706
2.45864
2.46048
2.46225
2.46407
2.46534
2.46657
2.46694
2.4664
2.46511
2.46264
2.45897
2.45451
2.4492
2.44345
2.43723
2.43073
2.42416
2.41716
2.40951
2.40095
2.39145
2.38084
2.36899
2.35687
2.34373
2.3306
2.31689
2.30286
2.28829
2.27296
2.25747
1
1
1
1
1
1
1
1
1
1
1
1
1
1
1
1
1
1
1
1
1
1
1
1
1
1
1
1
1
1
1
1
1
1
1
1
1
1
1
1
1
1
1
1
1
1
1
1
1
1
1
1
1
1
1
1
1
1
1
1.00001
1.04768
1.90422
2.41816
2.44377
2.44284
2.44444
2.44562
2.44677
2.44814
2.44946
2.45093
2.45139
2.45099
2.44987
2.44774
2.4443
2.44007
2.43556
2.43007
2.4244
2.41836
2.41238
2.4061
2.39926
2.39159
2.38288
2.37292
2.36165
2.34982
2.3371
2.32426
2.31098
2.29759
2.2835
2.26929
2.25471
1
1
1
1
1
1
1
1
1
1
1
1
1
1
1
1
1
1
1
1
1
1
1
1
1
1
1
1
1
1
1
1
1
1
1
1
1
1
1
1
1
1
1
1
1
1
1
1
1
1
1
1
1
1
1
1
1
1
1
1
1.0002
1.13021
2.02377
2.41274
2.43411
2.43604
2.43687
2.43662
2.43649
2.43636
2.43641
2.43613
2.43535
2.4339
2.4317
2.42856
2.42456
2.42052
2.41588
2.4108
2.40547
2.40009
2.39454
2.38853
2.38174
2.37388
2.36475
2.35426
2.34295
2.33094
2.31847
2.30568
2.29283
2.27926
2.26585
2.25208
1
1
1
1
1
1
1
1
1
1
1
1
1
1
1
1
1
1
1
1
1
1
1
1
1
1
1
1
1
1
1
1
1
1
1
1
1
1
1
1
1
1
1
1
1
1
1
1
1
1
1
1
1
1
1
1
1
1
1
1
1
1.00119
1.21022
2.10144
2.39824
2.42811
2.4273
2.42712
2.42653
2.42546
2.4243
2.42304
2.42141
2.41916
2.41638
2.4131
2.40929
2.40542
2.40138
2.39694
2.39228
2.38752
2.38258
2.37723
2.37115
2.36397
2.35559
2.34588
2.3352
2.32409
2.31232
2.30037
2.28828
2.27555
2.26281
2.24992
1
1
1
1
1
1
1
1
1
1
1
1
1
1
1
1
1
1
1
1
1
1
1
1
1
1
1
1
1
1
1
1
1
1
1
1
1
1
1
1
1
1
1
1
1
1
1
1
1
1
1
1
1
1
1
1
1
1
1
1
1
1
1.00311
1.29242
2.15302
2.38902
2.40994
2.41277
2.41326
2.41297
2.41197
2.41051
2.40844
2.40579
2.40262
2.39901
2.39515
2.39126
2.38727
2.38309
2.37883
2.37454
2.37004
2.3651
2.35946
2.35274
2.34497
2.33597
2.32602
2.31594
2.30532
2.29445
2.28333
2.2716
2.25964
2.24772
1
1
1
1
1
1
1
1
1
1
1
1
1
1
1
1
1
1
1
1
1
1
1
1
1
1
1
1
1
1
1
1
1
1
1
1
1
1
1
1
1
1
1
1
1
1
1
1
1
1
1
1
1
1
1
1
1
1
1
1
1
1
1
1.00632
1.37446
2.19153
2.37579
2.39026
2.39472
2.39601
2.3964
2.39577
2.39426
2.39216
2.38936
2.38596
2.3823
2.37853
2.37462
2.37057
2.36644
2.36221
2.35769
2.35268
2.34703
2.34056
2.33334
2.32515
2.31621
2.30733
2.29786
2.2879
2.2777
2.26697
2.25596
2.24499
1
1
1
1
1
1
1
1
1
1
1
1
1
1
1
1
1
1
1
1
1
1
1
1
1
1
1
1
1
1
1
1
1
1
1
1
1
1
1
1
1
1
1
1
1
1
1
1
1
1
1
1
1
1
1
1
1
1
1
1
1
1
1
1.00001
1.01138
1.44649
2.2222
2.36555
2.37032
2.37342
2.37505
2.37606
2.37598
2.37525
2.37365
2.37141
2.3687
2.36563
2.36221
2.35848
2.35449
2.35021
2.34552
2.34033
2.33463
2.32835
2.32155
2.31404
2.3059
2.29785
2.28938
2.2803
2.2709
2.26109
2.25106
2.24102
1
1
1
1
1
1
1
1
1
1
1
1
1
1
1
1
1
1
1
1
1
1
1
1
1
1
1
1
1
1
1
1
1
1
1
1
1
1
1
1
1
1
1
1
1
1
1
1
1
1
1
1
1
1
1
1
1
1
1
1
1
1
1
1
1.00003
1.01786
1.53631
2.24715
2.35366
2.35264
2.35367
2.35399
2.35448
2.35506
2.35499
2.35445
2.35321
2.35128
2.34871
2.34559
2.34197
2.33787
2.33329
2.32828
2.3228
2.31675
2.31024
2.30321
2.29566
2.28808
2.28029
2.2719
2.26307
2.254
2.24485
2.23571
1
1
1
1
1
1
1
1
1
1
1
1
1
1
1
1
1
1
1
1
1
1
1
1
1
1
1
1
1
1
1
1
1
1
1
1
1
1
1
1
1
1
1
1
1
1
1
1
1
1
1
1
1
1
1
1
1
1
1
1
1
1
1
1
1
1.00005
1.02941
1.60408
2.25957
2.34065
2.33768
2.33627
2.33576
2.3356
2.33574
2.33569
2.33529
2.33438
2.33284
2.33068
2.32791
2.32454
2.32057
2.31603
2.31095
2.3053
2.2992
2.29264
2.28562
2.27837
2.27097
2.26309
2.25471
2.24617
2.23775
2.22937
1
1
1
1
1
1
1
1
1
1
1
1
1
1
1
1
1
1
1
1
1
1
1
1
1
1
1
1
1
1
1
1
1
1
1
1
1
1
1
1
1
1
1
1
1
1
1
1
1
1
1
1
1
1
1
1
1
1
1
1
1
1
1
1
1
1
1.00011
1.04168
1.62745
2.25409
2.32822
2.32543
2.32343
2.32186
2.32055
2.31938
2.31821
2.31689
2.31542
2.3137
2.31159
2.30899
2.30586
2.30218
2.29794
2.29309
2.28768
2.28176
2.27538
2.26855
2.26152
2.25409
2.2462
2.23808
2.23024
2.22241
1
1
1
1
1
1
1
1
1
1
1
1
1
1
1
1
1
1
1
1
1
1
1
1
1
1
1
1
1
1
1
1
1
1
1
1
1
1
1
1
1
1
1
1
1
1
1
1
1
1
1
1
1
1
1
1
1
1
1
1
1
1
1
1
1
1
1
1.0002
1.04741
1.61588
2.23806
2.31751
2.31519
2.31291
2.31015
2.30735
2.3046
2.30188
2.29932
2.29692
2.29456
2.29211
2.28944
2.28644
2.28304
2.27911
2.27463
2.26959
2.26407
2.25797
2.2515
2.2447
2.23744
2.22994
2.22254
2.21523
1
1
1
1
1
1
1
1
1
1
1
1
1
1
1
1
1
1
1
1
1
1
1
1
1
1
1
1
1
1
1
1
1
1
1
1
1
1
1
1
1
1
1
1
1
1
1
1
1
1
1
1
1
1
1
1
1
1
1
1
1
1
1
1
1
1
1
1
1.00025
1.04569
1.59898
2.21729
2.30579
2.30429
2.30108
2.29778
2.29407
2.29048
2.28691
2.28336
2.27997
2.27679
2.2737
2.2706
2.26737
2.26389
2.26005
2.25578
2.2511
2.24589
2.24022
2.23418
2.22773
2.22102
2.21406
2.20714
1
1
1
1
1
1
1
1
1
1
1
1
1
1
1
1
1
1
1
1
1
1
1
1
1
1
1
1
1
1
1
1
1
1
1
1
1
1
1
1
1
1
1
1
1
1
1
1
1
1
1
1
1
1
1
1
1
1
1
1
1
1
1
1
1
1
1
1
1
1.00024
1.04239
1.56961
2.18886
2.29281
2.29222
2.28873
2.28514
2.28119
2.27726
2.27316
2.26899
2.26489
2.2609
2.25698
2.25314
2.24927
2.24537
2.24128
2.23702
2.23239
2.22744
2.22216
2.21632
2.2103
2.20391
2.19756
1
1
1
1
1
1
1
1
1
1
1
1
1
1
1
1
1
1
1
1
1
1
1
1
1
1
1
1
1
1
1
1
1
1
1
1
1
1
1
1
1
1
1
1
1
1
1
1
1
1
1
1
1
1
1
1
1
1
1
1
1
1
1
1
1
1
1
1
1
1
1.00021
1.03678
1.52509
2.15178
2.27562
2.27938
2.27594
2.27263
2.26871
2.26458
2.26023
2.25573
2.25112
2.24649
2.24184
2.23727
2.23273
2.22824
2.2237
2.21903
2.21405
2.20902
2.20357
2.19819
2.19273
2.18655
1
1
1
1
1
1
1
1
1
1
1
1
1
1
1
1
1
1
1
1
1
1
1
1
1
1
1
1
1
1
1
1
1
1
1
1
1
1
1
1
1
1
1
1
1
1
1
1
1
1
1
1
1
1
1
1
1
1
1
1
1
1
1
1
1
1
1
1
1
1
1
1.00017
1.02928
1.46743
2.09876
2.25336
2.26766
2.26358
2.26017
2.25613
2.25197
2.24753
2.24285
2.23803
2.23308
2.22806
2.22307
2.21782
2.21271
2.20727
2.20213
2.19666
2.19143
2.18738
2.188
2.19117
1
1
1
1
1
1
1
1
1
1
1
1
1
1
1
1
1
1
1
1
1
1
1
1
1
1
1
1
1
1
1
1
1
1
1
1
1
1
1
1
1
1
1
1
1
1
1
1
1
1
1
1
1
1
1
1
1
1
1
1
1
1
1
1
1
1
1
1
1
1
1
1
1.00012
1.02138
1.39546
2.02295
2.2268
2.25617
2.24979
2.2464
2.24278
2.23881
2.23463
2.2302
2.22553
2.22067
2.21539
2.20985
2.20423
2.19818
2.19354
2.19012
2.19224
2.19849
2.21466
2.2421
1
1
1
1
1
1
1
1
1
1
1
1
1
1
1
1
1
1
1
1
1
1
1
1
1
1
1
1
1
1
1
1
1
1
1
1
1
1
1
1
1
1
1
1
1
1
1
1
1
1
1
1
1
1
1
1
1
1
1
1
1
1
1
1
1
1
1
1
1
1
1
1
1
1.00008
1.014
1.31117
1.91598
2.19593
2.2388
2.23415
2.23221
2.22968
2.2269
2.22341
2.21913
2.21429
2.20909
2.20328
2.19888
2.19783
2.19968
2.21056
2.23418
2.26466
2.29986
2.3277
1
1
1
1
1
1
1
1
1
1
1
1
1
1
1
1
1
1
1
1
1
1
1
1
1
1
1
1
1
1
1
1
1
1
1
1
1
1
1
1
1
1
1
1
1
1
1
1
1
1
1
1
1
1
1
1
1
1
1
1
1
1
1
1
1
1
1
1
1
1
1
1
1
1
1.00004
1.00811
1.21772
1.79128
2.15246
2.21821
2.21701
2.21652
2.21539
2.21258
2.20948
2.2055
2.20212
2.20359
2.20893
2.22613
2.25689
2.29668
2.33245
2.35142
2.36479
2.36782
1
1
1
1
1
1
1
1
1
1
1
1
1
1
1
1
1
1
1
1
1
1
1
1
1
1
1
1
1
1
1
1
1
1
1
1
1
1
1
1
1
1
1
1
1
1
1
1
1
1
1
1
1
1
1
1
1
1
1
1
1
1
1
1
1
1
1
1
1
1
1
1
1
1
1
1.00002
1.00397
1.1347
1.65587
2.10538
2.18671
2.20345
2.19958
2.19636
2.1952
2.19839
2.21086
2.23824
2.27693
2.32318
2.35931
2.38133
2.39302
2.38995
2.38558
2.3786
1
1
1
1
1
1
1
1
1
1
1
1
1
1
1
1
1
1
1
1
1
1
1
1
1
1
1
1
1
1
1
1
1
1
1
1
1
1
1
1
1
1
1
1
1
1
1
1
1
1
1
1
1
1
1
1
1
1
1
1
1
1
1
1
1
1
1
1
1
1
1
1
1
1
1
1
1.00001
1.00165
1.07321
1.52802
2.02005
2.17052
2.1775
2.18352
2.20583
2.24006
2.28884
2.33778
2.37248
2.39373
2.40011
2.39572
2.39142
2.38617
2.37948
2.37284
1
1
1
1
1
1
1
1
1
1
1
1
1
1
1
1
1
1
1
1
1
1
1
1
1
1
1
1
1
1
1
1
1
1
1
1
1
1
1
1
1
1
1
1
1
1
1
1
1
1
1
1
1
1
1
1
1
1
1
1
1
1
1
1
1
1
1
1
1
1
1
1
1
1
1
1
1
1
1.00059
1.03577
1.39121
1.92423
2.12667
2.23707
2.28718
2.33451
2.36895
2.38408
2.39514
2.39313
2.38934
2.38283
2.37865
2.37493
2.36841
2.36205
1
1
1
1
1
1
1
1
1
1
1
1
1
1
1
1
1
1
1
1
1
1
1
1
1
1
1
1
1
1
1
1
1
1
1
1
1
1
1
1
1
1
1
1
1
1
1
1
1
1
1
1
1
1
1
1
1
1
1
1
1
1
1
1
1
1
1
1
1
1
1
1
1
1
1
1
1
1
1
1.00018
1.01586
1.24889
1.95723
2.41635
2.42345
2.42234
2.41788
2.40907
2.40141
2.393
2.38281
2.37388
2.36863
2.36527
2.36008
2.35597
1
1
1
1
1
1
1
1
1
1
1
1
1
1
1
1
1
1
1
1
1
1
1
1
1
1
1
1
1
1
1
1
1
1
1
1
1
1
1
1
1
1
1
1
1
1
1
1
1
1
1
1
1
1
1
1
1
1
1
1
1
1
1
1
1
1
1
1
1
1
1
1
1
1
1
1
1
1
1
1
1.00006
1.00539
1.82816
2.61291
2.58521
2.54256
2.50406
2.47011
2.44288
2.42098
2.40508
2.39241
2.38235
2.37395
2.36497
2.35937
1
1
1
1
1
1
1
1
1
1
1
1
1
1
1
1
1
1
1
1
1
1
1
1
1
1
1
1
1
1
1
1
1
1
1
1
1
1
1
1
1
1
1
1
1
1
1
1
1
1
1
1
1
1
1
1
1
1
1
1
1
1
1
1
1
1
1
1
1
1
1
1
1
1
1
1
1
1
1
1
1
1.00001
1.61225
2.59963
2.63681
2.6145
2.58783
2.55699
2.52725
2.49819
2.47175
2.44792
2.42777
2.41114
2.39824
2.38824
1
1
1
1
1
1
1
1
1
1
1
1
1
1
1
1
1
1
1
1
1
1
1
1
1
1
1
1
1
1
1
1
1
1
1
1
1
1
1
1
1
1
1
1
1
1
1
1
1
1
1
1
1
1
1
1
1
1
1
1
1
1
1
1
1
1
1
1
1
1
1
1
1
1
1
1
1
1
1
1
1
1
1.25107
2.4666
2.68246
2.66872
2.65557
2.63774
2.61827
2.59455
2.56873
2.54196
2.51592
2.49202
2.47003
2.45043
1
1
1
1
1
1
1
1
1
1
1
1
1
1
1
1
1
1
1
1
1
1
1
1
1
1
1
1
1
1
1
1
1
1
1
1
1
1
1
1
1
1
1
1
1
1
1
1
1
1
1
1
1
1
1
1
1
1
1
1
1
1
1
1
1
1
1
1
1
1
1
1
1
1
1
1
1
1
1
1
1
1
1.00638
2.21296
2.68168
2.68013
2.67576
2.66862
2.6595
2.6468
2.63114
2.61369
2.59445
2.57381
2.55189
2.5299
1
1
1
1
1
1
1
1
1
1
1
1
1
1
1
1
1
1
1
1
1
1
1
1
1
1
1
1
1
1
1
1
1
1
1
1
1
1
1
1
1
1
1
1
1
1
1
1
1
1
1
1
1
1
1
1
1
1
1
1
1
1
1
1
1
1
1
1
1
1
1
1
1
1
1
1
1
1
1
1
1
1
1.00001
1.88521
2.62449
2.67429
2.6696
2.6652
2.65991
2.65458
2.64909
2.64254
2.63417
2.62415
2.61218
2.59846
1
1
1
1
1
1
1
1
1
1
1
1
1
1
1
1
1
1
1
1
1
1
1
1
1
1
1
1
1
1
1
1
1
1
1
1
1
1
1
1
1
1
1
1
1
1
1
1
1
1
1
1
1
1
1
1
1
1
1
1
1
1
1
1
1
1
1
1
1
1
1
1
1
1
1
1
1
1
1
1
1
1
1
1.46398
2.49633
2.66579
2.66259
2.66147
2.65966
2.65725
2.65434
2.65112
2.64688
2.64186
2.63615
2.62951
1
1
1
1
1
1
1
1
1
1
1
1
1
1
1
1
1
1
1
1
1
1
1
1
1
1
1
1
1
1
1
1
1
1
1
1
1
1
1
1
1
1
1
1
1
1
1
1
1
1
1
1
1
1
1
1
1
1
1
1
1
1
1
1
1
1
1
1
1
1
1
1
1
1
1
1
1
1
1
1
1
1
1
1.02609
2.31708
2.66821
2.66508
2.66097
2.65834
2.65577
2.65319
2.65047
2.64763
2.64482
2.64184
2.63822
1
1
1
1
1
1
1
1
1
1
1
1
1
1
1
1
1
1
1
1
1
1
1
1
1
1
1
1
1
1
1
1
1
1
1
1
1
1
1
1
1
1
1
1
1
1
1
1
1
1
1
1
1
1
1
1
1
1
1
1
1
1
1
1
1
1
1
1
1
1
1
1
1
1
1
1
1
1
1
1
1
1
1
1.00004
2.10549
2.65631
2.66454
2.66232
2.66049
2.6577
2.65469
2.65173
2.64885
2.64585
2.64263
2.63913
1
1
1
1
1
1
1
1
1
1
1
1
1
1
1
1
1
1
1
1
1
1
1
1
1
1
1
1
1
1
1
1
1
1
1
1
1
1
1
1
1
1
1
1
1
1
1
1
1
1
1
1
1
1
1
1
1
1
1
1
1
1
1
1
1
1
1
1
1
1
1
1
1
1
1
1
1
1
1
1
1
1
1
1
1.81928
2.60738
2.66838
2.66399
2.66126
2.65792
2.6548
2.65178
2.64873
2.64559
2.64222
2.63862
1
1
1
1
1
1
1
1
1
1
1
1
1
1
1
1
1
1
1
1
1
1
1
1
1
1
1
1
1
1
1
1
1
1
1
1
1
1
1
1
1
1
1
1
1
1
1
1
1
1
1
1
1
1
1
1
1
1
1
1
1
1
1
1
1
1
1
1
1
1
1
1
1
1
1
1
1
1
1
1
1
1
1
1
1.48574
2.51852
2.67191
2.66686
2.66449
2.66141
2.65822
2.65492
2.65148
2.64801
2.64432
2.64048
1
1
1
1
1
1
1
1
1
1
1
1
1
1
1
1
1
1
1
1
1
1
1
1
1
1
1
1
1
1
1
1
1
1
1
1
1
1
1
1
1
1
1
1
1
1
1
1
1
1
1
1
1
1
1
1
1
1
1
1
1
1
1
1
1
1
1
1
1
1
1
1
1
1
1
1
1
1
1
1
1
1
1
1
1.14789
2.38487
2.67586
2.66999
2.6664
2.66338
2.66035
2.65717
2.65385
2.65053
2.64702
2.64335
1
1
1
1
1
1
1
1
1
1
1
1
1
1
1
1
1
1
1
1
1
1
1
1
1
1
1
1
1
1
1
1
1
1
1
1
1
1
1
1
1
1
1
1
1
1
1
1
1
1
1
1
1
1
1
1
1
1
1
1
1
1
1
1
1
1
1
1
1
1
1
1
1
1
1
1
1
1
1
1
1
1
1
1
1.0022
2.24177
2.67893
2.67775
2.6725
2.66897
2.66532
2.66176
2.65822
2.65481
2.65133
2.64771
1
1
1
1
1
1
1
1
1
1
1
1
1
1
1
1
1
1
1
1
1
1
1
1
1
1
1
1
1
1
1
1
1
1
1
1
1
1
1
1
1
1
1
1
1
1
1
1
1
1
1
1
1
1
1
1
1
1
1
1
1
1
1
1
1
1
1
1
1
1
1
1
1
1
1
1
1
1
1
1
1
1
1
1
1
2.06651
2.6659
2.68232
2.67769
2.67423
2.67029
2.66655
2.66289
2.65929
2.65559
2.65181
1
1
1
1
1
1
1
1
1
1
1
1
1
1
1
1
1
1
1
1
1
1
1
1
1
1
1
1
1
1
1
1
1
1
1
1
1
1
1
1
1
1
1
1
1
1
1
1
1
1
1
1
1
1
1
1
1
1
1
1
1
1
1
1
1
1
1
1
1
1
1
1
1
1
1
1
1
1
1
1
1
1
1
1
1
1.86405
2.63264
2.68694
2.68162
2.67836
2.67448
2.67064
2.66666
2.66259
2.65848
2.6545
1
1
1
1
1
1
1
1
1
1
1
1
1
1
1
1
1
1
1
1
1
1
1
1
1
1
1
1
1
1
1
1
1
1
1
1
1
1
1
1
1
1
1
1
1
1
1
1
1
1
1
1
1
1
1
1
1
1
1
1
1
1
1
1
1
1
1
1
1
1
1
1
1
1
1
1
1
1
1
1
1
1
1
1
1
1.64248
2.58546
2.68649
2.68053
2.67756
2.67405
2.67042
2.6666
2.66275
2.65891
2.65523
1
1
1
1
1
1
1
1
1
1
1
1
1
1
1
1
1
1
1
1
1
1
1
1
1
1
1
1
1
1
1
1
1
1
1
1
1
1
1
1
1
1
1
1
1
1
1
1
1
1
1
1
1
1
1
1
1
1
1
1
1
1
1
1
1
1
1
1
1
1
1
1
1
1
1
1
1
1
1
1
1
1
1
1
1
1.42266
2.5178
2.68634
2.68035
2.67723
2.6739
2.67052
2.66698
2.66336
2.65972
2.65621
1
1
1
1
1
1
1
1
1
1
1
1
1
1
1
1
1
1
1
1
1
1
1
1
1
1
1
1
1
1
1
1
1
1
1
1
1
1
1
1
1
1
1
1
1
1
1
1
1
1
1
1
1
1
1
1
1
1
1
1
1
1
1
1
1
1
1
1
1
1
1
1
1
1
1
1
1
1
1
1
1
1
1
1
1
1.24235
2.4388
2.68726
2.68218
2.67874
2.67556
2.67229
2.669
2.6656
2.66214
2.65871
1
1
1
1
1
1
1
1
1
1
1
1
1
1
1
1
1
1
1
1
1
1
1
1
1
1
1
1
1
1
1
1
1
1
1
1
1
1
1
1
1
1
1
1
1
1
1
1
1
1
1
1
1
1
1
1
1
1
1
1
1
1
1
1
1
1
1
1
1
1
1
1
1
1
1
1
1
1
1
1
1
1
1
1
1
1.07948
2.34497
2.68534
2.68423
2.68087
2.6783
2.67527
2.67226
2.6692
2.66605
2.66277
1
1
1
1
1
1
1
1
1
1
1
1
1
1
1
1
1
1
1
1
1
1
1
1
1
1
1
1
1
1
1
1
1
1
1
1
1
1
1
1
1
1
1
1
1
1
1
1
1
1
1
1
1
1
1
1
1
1
1
1
1
1
1
1
1
1
1
1
1
1
1
1
1
1
1
1
1
1
1
1
1
1
1
1
1
1.00111
2.25165
2.67953
2.6874
2.68298
2.68053
2.67763
2.67481
2.67198
2.66909
2.66605
1
1
1
1
1
1
1
1
1
1
1
1
1
1
1
1
1
1
1
1
1
1
1
1
1
1
1
1
1
1
1
1
1
1
1
1
1
1
1
1
1
1
1
1
1
1
1
1
1
1
1
1
1
1
1
1
1
1
1
1
1
1
1
1
1
1
1
1
1
1
1
1
1
1
1
1
1
1
1
1
1
1
1
1
1
1
2.14867
2.67054
2.68885
2.68448
2.68253
2.68013
2.6778
2.67539
2.67284
2.67014
1
1
1
1
1
1
1
1
1
1
1
1
1
1
1
1
1
1
1
1
1
1
1
1
1
1
1
1
1
1
1
1
1
1
1
1
1
1
1
1
1
1
1
1
1
1
1
1
1
1
1
1
1
1
1
1
1
1
1
1
1
1
1
1
1
1
1
1
1
1
1
1
1
1
1
1
1
1
1
1
1
1
1
1
1
1
2.05279
2.66131
2.69053
2.68598
2.68425
2.68203
2.67988
2.67763
2.67527
2.67276
1
1
1
1
1
1
1
1
1
1
1
1
1
1
1
1
1
1
1
1
1
1
1
1
1
1
1
1
1
1
1
1
1
1
1
1
1
1
1
1
1
1
1
1
1
1
1
1
1
1
1
1
1
1
1
1
1
1
1
1
1
1
1
1
1
1
1
1
1
1
1
1
1
1
1
1
1
1
1
1
1
1
1
1
1
1
1.9685
2.65141
2.69256
2.68767
2.68587
2.68359
2.68142
2.67916
2.67684
2.67443
1
1
1
1
1
1
1
1
1
1
1
1
1
1
1
1
1
1
1
1
1
1
1
1
1
1
1
1
1
1
1
1
1
1
1
1
1
1
1
1
1
1
1
1
1
1
1
1
1
1
1
1
1
1
1
1
1
1
1
1
1
1
1
1
1
1
1
1
1
1
1
1
1
1
1
1
1
1
1
1
1
1
1
1
1
1
1.89604
2.6409
2.69481
2.68945
2.68733
2.68485
2.68249
2.68002
2.67756
2.67511
1
1
1
1
1
1
1
1
1
1
1
1
1
1
1
1
1
1
1
1
1
1
1
1
1
1
1
1
1
1
1
1
1
1
1
1
1
1
1
1
1
1
1
1
1
1
1
1
1
1
1
1
1
1
1
1
1
1
1
1
1
1
1
1
1
1
1
1
1
1
1
1
1
1
1
1
1
1
1
1
1
1
1
1
1
1
1.83577
2.6308
2.69645
2.69103
2.68862
2.68583
2.68317
2.68039
2.67767
2.67499
1
1
1
1
1
1
1
1
1
1
1
1
1
1
1
1
1
1
1
1
1
1
1
1
1
1
1
1
1
1
1
1
1
1
1
1
1
1
1
1
1
1
1
1
1
1
1
1
1
1
1
1
1
1
1
1
1
1
1
1
1
1
1
1
1
1
1
1
1
1
1
1
1
1
1
1
1
1
1
1
1
1
1
1
1
1
1.78559
2.62457
2.69692
2.69124
2.68882
2.68601
2.68325
2.68039
2.67756
2.67473
1
1
1
1
1
1
1
1
1
1
1
1
1
1
1
1
1
1
1
1
1
1
1
1
1
1
1
1
1
1
1
1
1
1
1
1
1
1
1
1
1
1
1
1
1
1
1
1
1
1
1
1
1
1
1
1
1
1
1
1
1
1
1
1
1
1
1
1
1
1
1
1
1
1
1
1
1
1
1
1
1
1
1
1
1
1
1.75183
2.61882
2.69683
2.69124
2.6888
2.68599
2.68321
2.68035
2.6774
2.6744
1
1
1
1
1
1
1
1
1
1
1
1
1
1
1
1
1
1
1
1
1
1
1
1
1
1
1
1
1
1
1
1
1
1
1
1
1
1
1
1
1
1
1
1
1
1
1
1
1
1
1
1
1
1
1
1
1
1
1
1
1
1
1
1
1
1
1
1
1
1
1
1
1
1
1
1
1
1
1
1
1
1
1
1
1
1
1.73692
2.61502
2.69652
2.69111
2.68877
2.68601
2.68321
2.6804
2.6774
2.67436
1.47989
0.709245
0.636242
0.834357
0.947187
1.04578
1.12134
1.18483
1.15714
1.15442
1.19171
1.29186
1.40602
1.49903
1.51986
1.5268
1.52661
1.53301
1.54054
1.5529
1.58462
1.59406
1.59235
1.58621
1.5813
1.58306
1.59261
1.60853
1.62105
1.62378
1.62272
1.62066
1.62041
1.62537