/*--------------------------------*- C++ -*----------------------------------*\
  =========                 |
  \\      /  F ield         | OpenFOAM: The Open Source CFD Toolbox
   \\    /   O peration     | Website:  https://openfoam.org
    \\  /    A nd           | Version:  7
     \\/     M anipulation  |
\*---------------------------------------------------------------------------*/
FoamFile
{
    version     2.0;
    format      ascii;
    class       volScalarField;
    location    "42";
    object      p;
}
// * * * * * * * * * * * * * * * * * * * * * * * * * * * * * * * * * * * * * //

dimensions      [0 2 -2 0 0 0 0];

internalField   nonuniform List<scalar> 
16000
(
8.3053573e-06
-0.00013209947
-0.0004436161
-0.00084598081
-0.0012641961
-0.0016528692
-0.0019811281
-0.0022301325
-0.0023892452
-0.0024527617
-0.0024177421
-0.0022827291
-0.0020471522
-0.001711255
-0.0012763953
-0.00074558246
-0.00012412819
0.00057970054
0.0013541269
0.0021834977
0.0030481859
0.0039248321
0.0047869535
0.0056059596
0.0063525259
0.0069982727
0.0075176435
0.0078898433
0.0081006749
0.0081440997
0.00802336
0.0077515598
0.00735169
0.0068561805
0.0063058851
0.0057483338
0.0052385878
0.0048329392
0.0045930729
0.0045543154
0.00015279647
7.8695962e-06
-0.00024222218
-0.00055110614
-0.00087330442
-0.0011745072
-0.0014304698
-0.0016250123
-0.001747774
-0.0017923126
-0.0017546881
-0.0016325371
-0.0014246055
-0.0011306615
-0.00075169619
-0.00029031466
0.00024877403
0.00085825895
0.0015278051
0.0022437777
0.0029891759
0.003743973
0.0044854638
0.0051892935
0.0058306093
0.006385512
0.0068326767
0.0071550037
0.0073411578
0.0073868547
0.0072957592
0.0070798918
0.0067594825
0.0063622995
0.0059225357
0.0054791726
0.0050733675
0.0047485762
0.004550014
0.0045146475
0.00047143212
0.00025354905
-2.2887817e-06
-0.00028133806
-0.00056158419
-0.00081852321
-0.0010343667
-0.0011970569
-0.0012983872
-0.0013328374
-0.0012966889
-0.0011874095
-0.0010033589
-0.00074378255
-0.00040902694
-9.0868152e-07
0.0004768357
0.0010180906
0.001613964
0.0022525239
0.0029187658
0.0035947358
0.0042600735
0.0048927828
0.0054703239
0.0059709634
0.0063752914
0.0066677746
0.0068381949
0.0068828195
0.006805176
0.0066163396
0.006334672
0.0059850041
0.0055973343
0.0052050923
0.0048428437
0.004544824
0.0043473951
0.0042801436
0.000893045
0.00056178703
0.00026109424
-2.4691721e-05
-0.00029529562
-0.00053444584
-0.00073057759
-0.0008764768
-0.00096707204
-0.00099866805
-0.00096845155
-0.00087413592
-0.00071384934
-0.00048625343
-0.00019084011
0.00017164822
0.00059873255
0.0010857044
0.0016251894
0.0022068395
0.0028172241
0.0034398935
0.0040558854
0.0046444129
0.0051839161
0.0056533769
0.0060338209
0.006309881
0.0064712589
0.0065139044
0.0064407572
0.0062619534
0.0059944598
0.005661142
0.0052893094
0.0049088745
0.0045504908
0.0042440447
0.0040160819
0.0038805022
0.0013438413
0.00088417429
0.00052102025
0.00021070562
-6.7003659e-05
-0.00030306322
-0.00049179673
-0.0006309419
-0.00071884215
-0.00075393239
-0.00073455026
-0.00065879435
-0.00052458138
-0.00032990071
-7.3219028e-05
0.00024601085
0.00062678541
0.0010659824
0.0015578464
0.0020935923
0.0026611957
0.0032454248
0.0038282004
0.0043892781
0.0049072762
0.0053609982
0.0057309677
0.0060010519
0.0061600098
0.0062027644
0.0061312056
0.0059543846
0.0056880606
0.0053536421
0.0049765806
0.0045844503
0.0042055433
0.0038670065
0.0035843225
0.0033606916
0.0017706883
0.0011775606
0.00074289876
0.00039685123
0.00010028962
-0.00014400136
-0.00033571328
-0.00047729805
-0.00057044584
-0.00061573239
-0.00061266856
-0.00055972926
-0.00045455884
-0.0002943581
-7.6406391e-05
0.00020132072
0.00053948063
0.00093668906
0.0013888972
0.0018888837
0.0024259304
0.0029857638
0.0035508043
0.0041008111
0.0046138969
0.0050678915
0.0054419572
0.0057183218
0.0058839574
0.0059320027
0.0058627118
0.0056837419
0.0054096964
0.0050609592
0.0046619065
0.0042388929
0.0038193702
0.0034298625
0.0030773129
0.0027500067
0.0021283809
0.0014034039
0.00089381703
0.00050558654
0.00018231673
-7.8662341e-05
-0.0002818671
-0.00043407805
-0.0005400774
-0.00060240922
-0.00062162398
-0.00059644797
-0.00052411806
-0.00040089236
-0.00022268929
1.4179445e-05
0.00031221827
0.0006719463
0.0010911421
0.001564201
0.0020816784
0.0026301167
0.0031921752
0.0037472154
0.0042722882
0.0047435422
0.0051379536
0.0054352233
0.005619648
0.0056817473
0.0056194221
0.0054384338
0.0051520678
0.0047799563
0.0043461155
0.0038767786
0.0034000125
0.0029435144
0.0025072871
0.0020657407
0.0023783546
0.0015269504
0.00094287661
0.00050970112
0.00015511535
-0.00012843989
-0.00034983398
-0.00051975339
-0.00064573014
-0.00073199957
-0.00077991849
-0.00078825784
-0.00075365246
-0.00067122488
-0.00053533516
-0.00034042674
-8.1938148e-05
0.00024276136
0.00063346912
0.0010863488
0.0015933161
0.0021417322
0.0027143829
0.0032899876
0.0038441273
0.0043506745
0.0047836359
0.0051192542
0.0053381484
0.0054272355
0.0053811803
0.00520315
0.0049047113
0.0045047749
0.0040275416
0.0035001527
0.00295271
0.0024157896
0.0018843825
0.0013218618
0.0024868023
0.0015165073
0.00086077623
0.00038231457
-5.9904578e-06
-0.00031621429
-0.00056119538
-0.00075512128
-0.00090791031
-0.0010251714
-0.0011087888
-0.0011573298
-0.001166598
-0.0011303584
-0.0010411874
-0.00089142408
-0.00067419817
-0.00038449746
-2.022342e-05
0.00041683306
0.00092018916
0.001478204
0.0020738476
0.002685116
0.0032858541
0.0038471723
0.0043393734
0.0047342638
0.0050076242
0.0051415452
0.0051263054
0.0049615241
0.0046563991
0.0042288937
0.003703705
0.0031097666
0.0024805966
0.0018513432
0.001213417
0.00051992902
0.0024232519
0.0013429947
0.00061995114
9.738116e-05
-0.00032565541
-0.00066550397
-0.00093866555
-0.0011624643
-0.0013488586
-0.0015045156
-0.0016315631
-0.0017281086
-0.0017888862
-0.0018060679
-0.0017701991
-0.0016712424
-0.0014997114
-0.001247865
-0.00091091546
-0.00048819241
1.5837549e-05
0.00059094968
0.0012205432
0.001882013
0.0025473648
0.0031845728
0.0037595541
0.0042386673
0.0045915429
0.004793937
0.004830218
0.0046951161
0.0043944706
0.0039447801
0.0033712918
0.0027054175
0.0019853976
0.0012526612
0.00049616127
-0.00034098154
0.0021599272
0.00097977847
0.00019480313
-0.00036975089
-0.0008276972
-0.0011994749
-0.0015049983
-0.0017644095
-0.0019913979
-0.0021934046
-0.0023725409
-0.0025262164
-0.0026478699
-0.0027278503
-0.0027544162
-0.0027148511
-0.0025966884
-0.0023890233
-0.002083872
-0.0016775325
-0.0011718514
-0.00057494617
9.7474487e-05
0.00082259924
0.0015707203
0.0023064602
0.0029907405
0.0035834384
0.0040465837
0.0043478058
0.0044636041
0.0043819556
0.0041038414
0.0036433617
0.003026053
0.0022862631
0.0014681621
0.00062119622
-0.00026730251
-0.0012644738
0.0016716312
0.00040274129
-0.00043801956
-0.001041856
-0.0015344389
-0.0019401499
-0.0022821026
-0.0025829796
-0.0028579407
-0.003114965
-0.0033559335
-0.0035773605
-0.0037711963
-0.0039257583
-0.00402677
-0.0040585204
-0.0040051538
-0.0038520839
-0.0035874987
-0.0032038929
-0.0026995555
-0.0020800945
-0.0013590317
-0.00055878465
0.00028963692
0.0011475449
0.0019704077
0.0027106064
0.0033209943
0.0037589968
0.0039908228
0.0039952078
0.0037660823
0.0033135882
0.0026628243
0.0018512434
0.00093005012
-4.1500249e-05
-0.0010771026
-0.0022549442
0.00093596432
-0.00040945358
-0.0012992488
-0.00193932
-0.002466058
-0.0029076304
-0.0032901531
-0.0036386074
-0.003969414
-0.0042909151
-0.0046046113
-0.0049059845
-0.0051853554
-0.0054288423
-0.0056194117
-0.0057380496
-0.0057650822
-0.0056816628
-0.0054714071
-0.0051221212
-0.0046275661
-0.0039893793
-0.0032180495
-0.002334451
-0.0013700355
-0.00036637372
0.00062638914
0.0015522646
0.0023532932
0.0029743453
0.0033684248
0.0035018326
0.0033583989
0.0029418773
0.00227549
0.0013995185
0.00037316702
-0.00073260335
-0.0019320801
-0.0033157044
-6.6250422e-05
-0.0014749639
-0.0024065483
-0.0030795941
-0.0036399196
-0.0041192977
-0.0045466577
-0.004949069
-0.0053440584
-0.0057402244
-0.0061386128
-0.0065336137
-0.0069138498
-0.0072631357
-0.007561507
-0.0077863681
-0.0079138062
-0.0079201105
-0.0077835076
-0.0074860851
-0.0070158577
-0.0063689502
-0.0055514181
-0.0045810683
-0.0034884668
-0.00231713
-0.0011225024
3.0524038e-05
0.0010716506
0.0019306555
0.0025439274
0.0028613544
0.0028525978
0.0025114708
0.0018568586
0.00093088313
-0.00019855734
-0.0014467773
-0.0028282773
-0.0044472537
-0.0013504298
-0.0028083052
-0.0037740364
-0.0044766466
-0.0050699205
-0.0055890232
-0.0060655137
-0.0065283735
-0.0069961391
-0.0074776343
-0.0079734604
-0.0084769457
-0.0089750381
-0.0094492287
-0.0098765238
-0.010230528
-0.010482709
-0.010603906
-0.010566122
-0.010344606
-0.0099202082
-0.0092819364
-0.0084294788
-0.0073756348
-0.0061482171
-0.0047911241
-0.0033641324
-0.0019409861
-0.00060547204
0.00055459479
0.0014551888
0.0020249867
0.0022142302
0.0020018421
0.0013985284
0.00044618426
-0.00077842815
-0.0021748267
-0.0037573123
-0.005645488
-0.0029276672
-0.0044198917
-0.0054118367
-0.0061404572
-0.0067658829
-0.0073264227
-0.0078560928
-0.0083856528
-0.0089346203
-0.0095120976
-0.010118346
-0.01074576
-0.011379738
-0.011999532
-0.012579124
-0.013088195
-0.013493294
-0.013759289
-0.013851166
-0.013736218
-0.013386647
-0.012782527
-0.011914992
-0.010789435
-0.0094284507
-0.0078740233
-0.0061884652
-0.004453478
-0.0027667693
-0.0012358541
3.0917677e-05
0.00093549913
0.0014021784
0.0013883474
0.00089088289
-5.2166878e-05
-0.0013559226
-0.0029021723
-0.0047045424
-0.0068996953
-0.0048042195
-0.0063156522
-0.0073257207
-0.0080766115
-0.0087330479
-0.0093362052
-0.0099224058
-0.010524111
-0.011161873
-0.011845222
-0.012574284
-0.013340758
-0.014128725
-0.014915399
-0.015671858
-0.016363863
-0.016952872
-0.017397384
-0.017654675
-0.017683052
-0.017444626
-0.016908655
-0.016055364
-0.014879982
-0.013396842
-0.011642935
-0.0096803326
-0.0075966946
-0.0055029905
-0.0035276819
-0.0018069964
-0.00047159894
0.00036909868
0.00064239871
0.00032340991
-0.00055944477
-0.0019153939
-0.0036070544
-0.0056469104
-0.0081902056
-0.0069811217
-0.0084967908
-0.0095169085
-0.010286062
-0.010971735
-0.011617678
-0.012262414
-0.01294011
-0.013672508
-0.014469825
-0.015332376
-0.016251507
-0.017210328
-0.01818433
-0.019141939
-0.020045137
-0.02085028
-0.021509264
-0.021971157
-0.022184414
-0.022099777
-0.021673905
-0.020873724
-0.019681378
-0.018099454
-0.016156132
-0.013909417
-0.011449606
-0.0088987963
-0.0064062403
-0.004138602
-0.002264848
-0.00093669108
-0.00026742601
-0.00031438473
-0.0010674352
-0.0024343954
-0.0042583346
-0.0065503454
-0.0094855503
-0.0094540029
-0.010959764
-0.0119821
-0.012765121
-0.013477231
-0.014164478
-0.014867555
-0.015622464
-0.016452424
-0.017368729
-0.018372324
-0.019454668
-0.020598354
-0.021777571
-0.022958459
-0.024099505
-0.02515212
-0.026061578
-0.026768468
-0.027210808
-0.027326965
-0.027059461
-0.026359754
-0.025194022
-0.023549429
-0.021440993
-0.018917863
-0.016068236
-0.013021412
-0.0099453198
-0.0070378511
-0.0045108906
-0.0025671897
-0.0013727793
-0.0010310864
-0.001562591
-0.0028814493
-0.0048127434
-0.0073665701
-0.010738981
-0.012213176
-0.013696551
-0.014713801
-0.015505758
-0.016239979
-0.016964586
-0.017722556
-0.018552029
-0.019478168
-0.020513899
-0.021661371
-0.022912733
-0.024250612
-0.025648405
-0.027070433
-0.028472082
-0.029800132
-0.03099342
-0.03198406
-0.032699378
-0.033064746
-0.033007419
-0.03246156
-0.03137508
-0.029715959
-0.027481547
-0.024706687
-0.021471462
-0.017906539
-0.014193983
-0.01056113
-0.0072652523
-0.004567902
-0.0027008196
-0.0018300163
-0.0020231957
-0.003213051
-0.0052114102
-0.0080291613
-0.011884192
-0.015244065
-0.016695276
-0.017701021
-0.018496248
-0.019246102
-0.020000679
-0.020805573
-0.021701633
-0.022716684
-0.023866036
-0.025153779
-0.026573428
-0.028108267
-0.029731475
-0.031406066
-0.033084801
-0.034710245
-0.03621516
-0.037523442
-0.038551814
-0.039212475
-0.039416816
-0.039080444
-0.038131593
-0.036515478
-0.034207621
-0.03122294
-0.027626531
-0.023542862
-0.019160997
-0.014732677
-0.010559719
-0.0069677963
-0.0042667969
-0.0027038885
-0.0024151488
-0.0033696565
-0.0053754964
-0.0084487086
-0.012830111
-0.018528024
-0.019941282
-0.02093041
-0.021722243
-0.022478315
-0.023250826
-0.02408867
-0.025036368
-0.026125468
-0.027374681
-0.028790945
-0.030369917
-0.032096203
-0.033943332
-0.035873528
-0.037837401
-0.039773766
-0.041609767
-0.043261532
-0.044635577
-0.045631189
-0.046144116
-0.046071741
-0.045318301
-0.043807225
-0.041487977
-0.038350161
-0.034436795
-0.029857448
-0.02479869
-0.019528094
-0.014386872
-0.0097660372
-0.006063606
-0.0036270194
-0.0026859716
-0.0032703709
-0.0052007339
-0.0085069116
-0.013454617
-0.022043617
-0.02341871
-0.024387904
-0.025168297
-0.025917225
-0.026689517
-0.027538606
-0.028514213
-0.029653134
-0.030978832
-0.032502193
-0.03422188
-0.03612447
-0.038184356
-0.040363391
-0.042610428
-0.04486094
-0.047036914
-0.049047243
-0.050788835
-0.052148698
-0.053007292
-0.053243352
-0.052740013
-0.051394897
-0.049129713
-0.045904786
-0.041734642
-0.036705033
-0.03098902
-0.024858216
-0.018683283
-0.012916224
-0.0080484106
-0.0045448391
-0.0027566934
-0.0028060603
-0.0045506585
-0.0080494466
-0.013597075
-0.02576843
-0.027112715
-0.028060984
-0.028819897
-0.029542998
-0.030288969
-0.031117849
-0.032086897
-0.033240298
-0.034608018
-0.036206205
-0.038037426
-0.040090819
-0.042341992
-0.044752667
-0.047270142
-0.049826787
-0.052339772
-0.05471124
-0.056829152
-0.058569068
-0.059797117
-0.0603744
-0.060163088
-0.059035904
-0.056885614
-0.053640716
-0.049282322
-0.043864392
-0.037535196
-0.030556465
-0.023313936
-0.016309819
-0.010127134
-0.005360834
-0.0025114418
-0.0018306481
-0.0032483231
-0.0068774035
-0.013049559
-0.029681566
-0.031012507
-0.031941669
-0.032666035
-0.033337376
-0.034020602
-0.03478569
-0.035700874
-0.036820663
-0.038183733
-0.039812979
-0.041715757
-0.043884173
-0.04629516
-0.04891024
-0.051675046
-0.054518799
-0.05735394
-0.060076158
-0.062565013
-0.064685439
-0.066290342
-0.067224576
-0.067330624
-0.066457351
-0.06446944
-0.061262802
-0.05678232
-0.051044234
-0.044162024
-0.036373219
-0.028061198
-0.01976145
-0.012138521
-0.0059216721
-0.0017848355
-0.00015043088
-0.0010662525
-0.0047370236
-0.011546552
-0.033767066
-0.035115531
-0.036030496
-0.036702403
-0.037285943
-0.037856537
-0.038499257
-0.039298228
-0.040322148
-0.041621068
-0.043226204
-0.045150413
-0.04738887
-0.049919544
-0.052703271
-0.055683484
-0.058785796
-0.061917647
-0.064968243
-0.067809015
-0.070294904
-0.072266607
-0.073554205
-0.073982457
-0.073377147
-0.071577706
-0.068448306
-0.063897122
-0.057899547
-0.050527013
-0.041980192
-0.032621905
-0.022999487
-0.013840398
-0.0060020421
-0.0003477394
0.00248862
0.0022856483
-0.0013073096
-0.0087527745
-0.038018781
-0.039433354
-0.040341834
-0.040935315
-0.041380589
-0.041770924
-0.042214247
-0.042817332
-0.043667934
-0.044830461
-0.046345907
-0.048232949
-0.050489407
-0.053093433
-0.056004128
-0.05916166
-0.062487091
-0.065882125
-0.069229041
-0.072391021
-0.075213294
-0.077525059
-0.079142687
-0.079874445
-0.079526861
-0.077914813
-0.074873493
-0.070276146
-0.064057185
-0.056242391
-0.046986472
-0.036615447
-0.025665451
-0.014901496
-0.0052915955
0.0021075013
0.0064153822
0.0071746269
0.0038152513
-0.0042483307
-0.042447709
-0.044000279
-0.044911203
-0.045386568
-0.045622052
-0.045740897
-0.045885144
-0.046193108
-0.04677731
-0.047719482
-0.049071325
-0.050856913
-0.053075482
-0.055703733
-0.058697299
-0.061991402
-0.065501065
-0.069121028
-0.07272576
-0.076169613
-0.079287952
-0.081898723
-0.083805304
-0.08480076
-0.084673846
-0.08321766
-0.080241238
-0.075585894
-0.069147377
-0.060905923
-0.050965791
-0.039604321
-0.027325273
-0.014902518
-0.0033872322
0.0059804188
0.01204952
0.014062687
0.011136239
0.0024905172
-0.047093775
-0.048886483
-0.049805611
-0.050099537
-0.050022455
-0.049746921
-0.04946477
-0.049356823
-0.049566371
-0.050194705
-0.051304001
-0.052922059
-0.055047132
-0.057651847
-0.060685824
-0.064076996
-0.067732309
-0.071537824
-0.07535921
-0.079040469
-0.08240681
-0.085264621
-0.087404389
-0.088604588
-0.088637369
-0.087275742
-0.084305272
-0.079538669
-0.072836625
-0.064136683
-0.05349262
-0.041126801
-0.02749432
-0.013350109
0.00020519176
0.011771401
0.019917903
0.023528237
0.021289674
0.012118629
-0.052045975
-0.054218805
-0.055138536
-0.055146898
-0.054607652
-0.053772316
-0.052903061
-0.052235476
-0.051948677
-0.052163811
-0.052951183
-0.054338736
-0.056319781
-0.058859018
-0.061896834
-0.065350557
-0.069116719
-0.073070474
-0.077068589
-0.080940859
-0.084502904
-0.08754867
-0.089855235
-0.09118632
-0.091298482
-0.089944315
-0.086887908
-0.081916034
-0.074857675
-0.065611501
-0.054183576
-0.04073996
-0.025676938
-0.0097071452
0.0060546372
0.02008161
0.030669437
0.03629309
0.035075659
0.025465026
-0.057478647
-0.06021465
-0.061091882
-0.06064028
-0.059419015
-0.057801575
-0.056144952
-0.054750853
-0.053836023
-0.053537985
-0.05392945
-0.05503226
-0.056828869
-0.059270755
-0.062285781
-0.065775611
-0.069624781
-0.073695583
-0.077830239
-0.081849377
-0.085554093
-0.088725373
-0.091126391
-0.092505594
-0.092601558
-0.091149134
-0.087889942
-0.082585219
-0.075034084
-0.065098997
-0.05274109
-0.038071042
-0.021420772
-0.0034426908
0.01476789
0.031596728
0.045083961
0.053255845
0.053516215
0.043606986
-0.063719478
-0.067238227
-0.067947844
-0.066741501
-0.064513488
-0.061816552
-0.059126807
-0.056817898
-0.055138997
-0.054234208
-0.054168042
-0.054946637
-0.056533618
-0.058861098
-0.061836983
-0.065347491
-0.069259837
-0.073421524
-0.077660357
-0.081783847
-0.085579098
-0.088813102
-0.091234164
-0.092574491
-0.092554438
-0.090888771
-0.087295779
-0.081510138
-0.073299949
-0.062490656
-0.048998203
-0.032876398
-0.014386977
0.0058942894
0.026923871
0.047044282
0.064067004
0.075530695
0.077938901
0.068004792
-0.071381652
-0.075894353
-0.076133227
-0.073673085
-0.069958979
-0.065788144
-0.061769562
-0.058340823
-0.055765801
-0.054175879
-0.053610343
-0.054046242
-0.05541745
-0.057629544
-0.060566052
-0.064092334
-0.068056724
-0.072290109
-0.076605015
-0.080794484
-0.084631376
-0.087868164
-0.090237711
-0.091455288
-0.091222209
-0.089231445
-0.08517576
-0.078760375
-0.069718137
-0.057832079
-0.042966002
-0.025108561
-0.0044395885
0.018569677
0.042964384
0.067104567
0.08861033
0.10448282
0.11010439
0.10076027
-0.081632269
-0.08718249
-0.086271017
-0.081717064
-0.075815378
-0.069655532
-0.063961943
-0.059201232
-0.055614306
-0.053287475
-0.052210133
-0.052311629
-0.053484911
-0.05560019
-0.058511789
-0.062060776
-0.066075031
-0.070367868
-0.074736182
-0.078958556
-0.082793817
-0.085980174
-0.088235286
-0.089257545
-0.088728943
-0.08631962
-0.081694429
-0.074525417
-0.064503549
-0.051359388
-0.034890081
-0.014998229
0.0082482708
0.034514952
0.063013093
0.092225607
0.1196596
0.14172219
0.15240414
0.14512435
-0.09676062
-0.10273893
-0.099198708
-0.091156024
-0.082063279
-0.073262232
-0.065508585
-0.059217767
-0.054540952
-0.05147016
-0.049910958
-0.049723758
-0.050746596
-0.052806766
-0.055725268
-0.059317057
-0.063389128
-0.067737592
-0.072144577
-0.076375366
-0.080176085
-0.08327209
-0.085367261
-0.086144427
-0.085267335
-0.082383525
-0.077128998
-0.069139276
-0.058056341
-0.043545448
-0.025315891
-0.0031514144
0.023040904
0.053141332
0.086633396
0.12228305
0.15778089
0.1889517
0.20809792
0.20632775
-0.12134017
-0.12518781
-0.11587358
-0.10208169
-0.088417808
-0.076198781
-0.066006241
-0.058052713
-0.052291804
-0.048550734
-0.046608892
-0.046233529
-0.047195311
-0.049273235
-0.052253558
-0.055925861
-0.060078089
-0.064491504
-0.068936057
-0.073166417
-0.076918787
-0.079908536
-0.081828701
-0.082349498
-0.081119432
-0.077765131
-0.071896538
-0.063110983
-0.050996797
-0.035142382
-0.015145967
0.0093690112
0.038725457
0.07312973
0.11251983
0.15626264
0.20263093
0.24752319
0.28130099
0.29235659
-0.16445761
-0.15843335
-0.13714885
-0.11415792
-0.094107777
-0.077631676
-0.064738352
-0.055162269
-0.048490396
-0.044292062
-0.042173382
-0.041787966
-0.04283302
-0.045040275
-0.048165378
-0.051977711
-0.056251445
-0.060758
-0.065259822
-0.069505371
-0.073225208
-0.076129002
-0.077903438
-0.07821119
-0.076691175
-0.072948434
-0.066578337
-0.05714124
-0.044172939
-0.027180922
-0.0056365818
0.021034777
0.053464119
0.092331626
0.13829628
0.19182692
0.25266804
0.31751145
0.3762686
0.41537077
-0.24629448
-0.20631853
-0.16213082
-0.12552946
-0.097144231
-0.075878748
-0.060488132
-0.049752926
-0.042660836
-0.038436803
-0.036490944
-0.036365994
-0.037697969
-0.040185783
-0.04356789
-0.047604878
-0.052066576
-0.056722373
-0.061333823
-0.065648976
-0.069398008
-0.072289944
-0.074010313
-0.074220531
-0.072559198
-0.068606217
-0.061962314
-0.052156488
-0.038683491
-0.020981675
0.0015957045
0.029825292
0.064686485
0.10746503
0.15987128
0.22417806
0.30290572
0.39553245
0.49624368
0.60321256
-0.42543925
-0.26573062
-0.17722185
-0.12463646
-0.089117088
-0.065103219
-0.049324428
-0.039185906
-0.032984299
-0.029674692
-0.028571336
-0.029187386
-0.031157463
-0.034190544
-0.038038263
-0.042473987
-0.047278832
-0.052231863
-0.057102922
-0.061647227
-0.065601269
-0.068679646
-0.070572324
-0.070941205
-0.069408491
-0.065630362
-0.05913291
-0.049453356
-0.036075267
-0.018403685
0.0042714162
0.032847389
0.068542871
0.11314233
0.16943694
0.2420175
0.33806639
0.46591615
0.64305496
0.92086254
-0.7933132
-0.32444243
-0.14899768
-0.087725642
-0.055346044
-0.03599974
-0.025091774
-0.019201224
-0.016355754
-0.015619332
-0.01649457
-0.018654387
-0.02185351
-0.025888881
-0.030575901
-0.035734301
-0.041179523
-0.046716775
-0.052136486
-0.057210673
-0.061689996
-0.065301391
-0.067746393
-0.068701422
-0.067825015
-0.064708451
-0.058942263
-0.050072911
-0.037593834
-0.020927582
0.00061029041
0.027881008
0.062058725
0.10491334
0.15945131
0.23152798
0.33385145
0.49409221
0.79001637
1.3837783
1.1690017e-05
-0.00013117233
-0.00044336427
-0.00084592317
-0.0012643277
-0.0016531295
-0.0019814727
-0.0022305368
-0.0023896919
-0.0024532365
-0.0024182325
-0.002283224
-0.0020476414
-0.0017117282
-0.0012768421
-0.00074599138
-0.0001244871
0.00057940391
0.001353904
0.0021833583
0.0030481378
0.0039248814
0.0047871047
0.0056062134
0.0063528764
0.006998707
0.0075181434
0.0078903889
0.0081012464
0.0081446749
0.0080239098
0.0077520492
0.0073520866
0.0068564645
0.0063060536
0.0057484044
0.0052385409
0.0048327354
0.004592698
0.0045541648
0.0001536272
8.3591057e-06
-0.00024179442
-0.000550652
-0.00087281023
-0.0011739601
-0.0014298733
-0.0016243799
-0.0017471216
-0.0017916557
-0.0017540412
-0.0016319137
-0.0014240184
-0.0011301234
-0.00075121967
-0.00028991267
0.00024908906
0.00085847582
0.0015279148
0.0022437733
0.0029890522
0.0037437251
0.0044850923
0.0051888055
0.0058300182
0.0063848356
0.0068319335
0.0071542122
0.0073403404
0.0073860417
0.0072949865
0.0070791903
0.0067588688
0.006361779
0.0059221163
0.0054788748
0.0050732228
0.0047485055
0.0045498961
0.0045147375
0.00047189536
0.00025379971
-1.9924094e-06
-0.00028109012
-0.00056140425
-0.00081838064
-0.0010342483
-0.001196958
-0.0012983047
-0.0013327695
-0.0012966352
-0.00118737
-0.0010033338
-0.00074377169
-0.00040903005
-9.2565319e-07
0.00047680477
0.0010180457
0.0016139062
0.0022524557
0.0029186901
0.0035946543
0.0042599868
0.0048926908
0.0054702282
0.0059708686
0.0063752022
0.0066676914
0.0068381121
0.0068827309
0.0068050823
0.0066162489
0.0063345894
0.005984921
0.0055972332
0.0052049682
0.00484272
0.0045447001
0.0043472272
0.004280114
0.00089351827
0.00056183264
0.00026132776
-2.4480052e-05
-0.00029517387
-0.00053437009
-0.00073053249
-0.00087645909
-0.00096707655
-0.0009986902
-0.00096848843
-0.00087418553
-0.00071391006
-0.00048632349
-0.00019091726
0.00017156672
0.00059864936
0.0010856216
0.0016251087
0.0022067633
0.0028171556
0.0034398375
0.004055845
0.004644388
0.0051839037
0.0056533749
0.0060338307
0.0063099052
0.0064712946
0.0065139399
0.0064407781
0.0062619539
0.0059944457
0.0056611192
0.0052892697
0.0049087988
0.0045503692
0.004243895
0.0040159283
0.0038803667
0.0013443717
0.00088401448
0.00052122441
0.00021094774
-6.6843318e-05
-0.00030292757
-0.00049167263
-0.00063083399
-0.00071875016
-0.00075385481
-0.00073448647
-0.00065874433
-0.00052454552
-0.00032987969
-7.3213345e-05
0.00024600149
0.00062676214
0.0010659464
0.0015577981
0.0020935315
0.0026611227
0.0032453425
0.0038281135
0.0043891907
0.0049071887
0.0053609078
0.0057308726
0.0060009559
0.0061599204
0.0062026842
0.0061311264
0.0059542932
0.0056879533
0.005353531
0.0049764794
0.0045843508
0.0042054122
0.0038668728
0.0035842977
0.0033604715
0.0017713115
0.0011772149
0.00074307068
0.00039709766
0.00010044218
-0.00014386796
-0.00033558366
-0.00047718069
-0.00057034239
-0.00061564238
-0.00061259206
-0.00055966644
-0.00045450991
-0.00029432367
-7.6387528e-05
0.00020132307
0.00053946654
0.00093665982
0.0013888545
0.0018888282
0.0024258617
0.0029856817
0.0035507113
0.0041007126
0.0046137985
0.0050677941
0.0054418567
0.0057182145
0.0058838465
0.0059318976
0.0058626174
0.00568365
0.0054095922
0.0050608392
0.0046617867
0.0042387795
0.0038192266
0.0034297367
0.0030773743
0.0027496922
0.002129107
0.001402893
0.0008939637
0.00050583559
0.00018245455
-7.8542978e-05
-0.00028174725
-0.00043396851
-0.00053998041
-0.00060232458
-0.00062155228
-0.00059638975
-0.0005240734
-0.0004008612
-0.000222672
1.4181853e-05
0.00031220477
0.00067191696
0.0010910987
0.0015641461
0.0020816137
0.0026300416
0.0031920888
0.0037471197
0.0042721891
0.0047434464
0.0051378625
0.0054351314
0.0056195488
0.0056816424
0.0056193213
0.005438343
0.0051519784
0.0047798541
0.0043460023
0.003876658
0.0033998481
0.0029433901
0.0025074471
0.0020653515
0.0023791844
0.0015262919
0.00094300662
0.00050995947
0.00015524673
-0.00012832549
-0.0003497147
-0.00051964235
-0.00064562999
-0.00073191008
-0.0007798406
-0.00078819282
-0.00075360117
-0.00067118756
-0.00053531166
-0.00034041726
-8.194372e-05
0.00024273936
0.00063343042
0.0010862953
0.0015932515
0.0021416587
0.0027143004
0.0032898945
0.0038440245
0.0043505682
0.0047835341
0.0051191594
0.0053380544
0.0054271337
0.005381071
0.0052030431
0.0049046126
0.0045046775
0.0040274392
0.003500033
0.0029525239
0.0024156636
0.001884645
0.0013213836
0.0024877329
0.0015157169
0.00086089529
0.00038258506
-5.8621019e-06
-0.00031610142
-0.00056107342
-0.00075500585
-0.00090780462
-0.001025075
-0.0011087026
-0.0011572551
-0.0011665365
-0.0011303113
-0.0010411551
-0.0008914064
-0.00067419501
-0.00038450979
-2.0253024e-05
0.00041678549
0.00092012592
0.0014781288
0.0020737644
0.0026850252
0.0032857534
0.0038470614
0.0043392584
0.0047341538
0.0050075229
0.0051414461
0.0051261992
0.00496141
0.0046562859
0.004228788
0.0037036078
0.0031096535
0.0024803941
0.0018512142
0.0012137816
0.00051935706
0.0024242784
0.0013420867
0.00062006377
9.7665517e-05
-0.00032552808
-0.00066539134
-0.00093853997
-0.0011623436
-0.0013487466
-0.0015044122
-0.001631469
-0.0017280249
-0.0017888142
-0.0018060094
-0.001770156
-0.0016712153
-0.0014996999
-0.0012478686
-0.000910935
-0.00048822956
1.5782298e-05
0.00059087622
0.0012204572
0.0018819198
0.0025472657
0.003184465
0.0037594365
0.0042385452
0.0045914262
0.00479383
0.0048301145
0.0046950062
0.004394353
0.0039446645
0.0033711922
0.0027053087
0.0019851815
0.0012525321
0.00049663488
-0.00034165375
0.0021610426
0.00097876639
0.00019491299
-0.00036945096
-0.0008275684
-0.0011993607
-0.001504868
-0.0017642822
-0.0019912781
-0.0021932925
-0.0023724376
-0.0025261229
-0.0026477872
-0.0027277797
-0.0027543598
-0.002714811
-0.0025966658
-0.0023890177
-0.0020838824
-0.0016775586
-0.0011718935
-0.00057501066
9.7390598e-05
0.00082250219
0.0015706166
0.0023063522
0.0029906255
0.0035833144
0.0040464559
0.004347684
0.0044634927
0.0043818481
0.0041037277
0.0036432438
0.0030259499
0.0022861531
0.0014679288
0.00062106867
-0.00026670679
-0.0012652577
0.0016728278
0.00040163869
-0.00043790991
-0.0010415395
-0.0015343059
-0.001940032
-0.0022819662
-0.0025828448
-0.0028578121
-0.0031148426
-0.0033558191
-0.0035772557
-0.0037711021
-0.0039256753
-0.0040266996
-0.0040584649
-0.004005116
-0.0038520653
-0.0035874986
-0.0032039103
-0.0026995911
-0.0020801475
-0.0013591056
-0.0005588788
0.00028952864
0.0011474303
0.0019702901
0.0027104838
0.0033208647
0.003758865
0.0039906983
0.0039950936
0.0037659706
0.0033134742
0.0026627235
0.0018511317
0.00092979333
-4.1628159e-05
-0.0010763683
-0.0022558552
0.00093723301
-0.00041063216
-0.0012991375
-0.0019389872
-0.0024659189
-0.0029075065
-0.003290009
-0.0036384641
-0.0039692759
-0.0042907818
-0.0046044845
-0.0049058664
-0.0051852477
-0.0054287461
-0.0056193277
-0.0057379787
-0.0057650271
-0.0056816265
-0.0054713918
-0.0051221271
-0.0046275925
-0.0039894216
-0.0032181108
-0.0023345343
-0.0013701401
-0.0003664932
0.00062626354
0.0015521375
0.0023531634
0.0029742116
0.003368292
0.0035017081
0.0033582824
0.0029417659
0.0022753964
0.0013994089
0.00037288266
-0.00073273454
-0.0019311878
-0.0033167626
-6.4920373e-05
-0.0014762028
-0.0024064335
-0.0030792461
-0.0036397733
-0.0041191663
-0.0045465042
-0.0049489158
-0.00534391
-0.00574008
-0.0061384735
-0.0065334813
-0.0069137268
-0.0072630242
-0.0075614082
-0.0077862825
-0.0079137347
-0.0079200556
-0.0077834729
-0.0074860736
-0.0070158698
-0.0063689823
-0.005551469
-0.0045811394
-0.0034885606
-0.0023172455
-0.0011226329
3.0388152e-05
0.0010715151
0.0019305203
0.0025437926
0.0028612239
0.0028524744
0.0025113577
0.0018567722
0.00093077888
-0.00019887152
-0.0014469131
-0.0028272034
-0.0044484844
-0.001349051
-0.0028095879
-0.0037739161
-0.0044762844
-0.0050697665
-0.0055888834
-0.00606535
-0.0065282093
-0.0069959792
-0.0074774781
-0.0079733089
-0.0084768
-0.0089748999
-0.0094491006
-0.0098764084
-0.010230427
-0.010482622
-0.010603835
-0.010566068
-0.010344574
-0.0099202014
-0.0092819548
-0.00842952
-0.0073756965
-0.0061482999
-0.0047912299
-0.0033642596
-0.0019411272
-0.00060561671
0.00055445324
0.0014550522
0.0020248551
0.0022141036
0.0020017268
0.0013984479
0.00044608572
-0.00077877572
-0.0021749673
-0.0037560275
-0.0056469211
-0.0029262534
-0.0044212017
-0.0054117096
-0.0061400819
-0.0067657203
-0.007326274
-0.0078559186
-0.008385477