/*--------------------------------*- C++ -*----------------------------------*\
  =========                 |
  \\      /  F ield         | OpenFOAM: The Open Source CFD Toolbox
   \\    /   O peration     | Website:  https://openfoam.org
    \\  /    A nd           | Version:  7
     \\/     M anipulation  |
\*---------------------------------------------------------------------------*/
FoamFile
{
    version     2.0;
    format      ascii;
    class       surfaceScalarField;
    location    "42";
    object      phi;
}
// * * * * * * * * * * * * * * * * * * * * * * * * * * * * * * * * * * * * * //

dimensions      [0 3 -1 0 0 0 0];

internalField   nonuniform List<scalar> 
45600
(
2.7516082e-07
-2.8224822e-07
-7.9555326e-11
4.0333069e-07
-1.2814448e-07
-2.5030844e-11
1.3256025e-07
2.7077762e-07
-6.7986807e-12
-5.6230736e-07
6.9486997e-07
-1.5561691e-12
-1.6393088e-06
1.0769988e-06
3.5536092e-12
-3.02762e-06
1.388304e-06
7.0249793e-12
-4.6524638e-06
1.6248339e-06
9.3038419e-12
-6.4450974e-06
1.7926227e-06
1.0915193e-11
-8.3454246e-06
1.9003163e-06
1.2060519e-11
-1.0301444e-05
1.956008e-06
1.2818731e-11
-1.2267404e-05
1.9659466e-06
1.324014e-11
-1.4201584e-05
1.9341658e-06
1.3362131e-11
-1.6064242e-05
1.8626441e-06
1.3206612e-11
-1.781603e-05
1.7517763e-06
1.2777419e-11
-1.9417057e-05
1.6010166e-06
1.2062526e-11
-2.082666e-05
1.4095951e-06
1.1040129e-11
-2.2003909e-05
1.1772399e-06
9.6897108e-12
-2.290877e-05
9.0485242e-07
8.00836e-12
-2.350387e-05
5.9509104e-07
6.0170969e-12
-2.3756703e-05
2.5282966e-07
3.7625003e-12
-2.3642142e-05
-1.1455842e-07
1.2983918e-12
-2.314501e-05
-4.9712494e-07
-1.3326407e-12
-2.2262576e-05
-8.8242838e-07
-4.0828007e-12
-2.100662e-05
-1.2559545e-06
-6.8507098e-12
-1.940487e-05
-1.6017511e-06
-9.4618771e-12
-1.7501565e-05
-1.9032964e-06
-1.172454e-11
-1.5356976e-05
-2.1445642e-06
-1.3495256e-11
-1.3045754e-05
-2.3111906e-06
-1.4729519e-11
-1.0654091e-05
-2.391643e-06
-1.5430757e-11
-8.2758088e-06
-2.3782856e-06
-1.5530211e-11
-6.0075717e-06
-2.2682483e-06
-1.4843945e-11
-3.9435451e-06
-2.0640154e-06
-1.3211869e-11
-2.1697907e-06
-1.7737103e-06
-1.0709134e-11
-7.5852543e-07
-1.4112213e-06
-7.6668517e-12
2.3823395e-07
-9.9676257e-07
-4.549431e-12
7.9655053e-07
-5.583694e-07
-1.9057123e-12
9.2924722e-07
-1.3273673e-07
1.2654256e-12
7.055365e-07
2.2374685e-07
5.503032e-12
2.9043723e-07
4.1519006e-07
1.0121659e-11
2.904907e-07
3.801286e-12
1.3288573e-07
-4.1511111e-07
-2.2427893e-11
-3.0168406e-07
3.0644032e-07
-1.4196986e-11
-1.6154002e-06
1.5845062e-06
-1.2406078e-11
-3.8747066e-06
2.9541896e-06
-1.3171101e-11
-7.0073409e-06
4.2096486e-06
-1.4332664e-11
-1.087975e-05
5.2607311e-06
-1.5866469e-11
-1.5335164e-05
6.0802659e-06
-1.7301191e-11
-2.0216003e-05
6.6734794e-06
-1.8341022e-11
-2.5374063e-05
7.0583939e-06
-1.8922644e-11
-3.0673276e-05
7.2552408e-06
-1.9052811e-11
-3.5988544e-05
7.2812346e-06
-1.8760658e-11
-4.1202831e-05
7.148474e-06
-1.8078236e-11
-4.6203975e-05
6.8638059e-06
-1.702565e-11
-5.0882103e-05
6.4299202e-06
-1.5608014e-11
-5.5128236e-05
5.8471623e-06
-1.3820315e-11
-5.8834323e-05
5.1156947e-06
-1.1658647e-11
-6.1894806e-05
4.2377362e-06
-9.1367431e-12
-6.420961e-05
3.2196687e-06
-6.2896303e-12
-6.5688358e-05
2.0738455e-06
-3.1810693e-12
-6.6255469e-05
8.1993694e-07
1.268939e-13
-6.5855986e-05
-5.1405174e-07
3.5884967e-12
-6.4460813e-05
-1.8923084e-06
7.1910235e-12
-6.2072481e-05
-3.2707652e-06
1.0773805e-11
-5.8729088e-05
-4.5993486e-06
1.415448e-11
-5.4507072e-05
-5.8237779e-06
1.7143384e-11
-4.9521903e-05
-6.8884952e-06
1.9617348e-11
-4.3926403e-05
-7.7401081e-06
2.1555141e-11
-3.7906461e-05
-8.3311648e-06
2.2955544e-11
-3.1674147e-05
-8.6239595e-06
2.3707081e-11
-2.5458389e-05
-8.5940306e-06
2.357805e-11
-1.9493594e-05
-8.2330557e-06
2.2409453e-11
-1.4006715e-05
-7.5509517e-06
2.0345821e-11
-9.2033074e-06
-6.5771865e-06
1.7799671e-11
-5.2529242e-06
-5.3616166e-06
1.5096356e-11
-2.2739777e-06
-3.9756511e-06
1.2165415e-11
-3.1723685e-07
-2.5150537e-06
8.6365179e-12
6.5708791e-07
-1.1071087e-06
4.1977726e-12
8.0365596e-07
7.7031241e-08
2.0490604e-12
4.1777865e-07
8.0092692e-07
3.4177726e-12
7.0832383e-07
-2.429478e-12
-2.7358489e-07
-1.4151338e-07
-1.2506563e-11
-1.6274805e-06
1.6603447e-06
-7.2698314e-12
-4.2894007e-06
4.2464356e-06
-8.5955304e-12
-8.274674e-06
6.9394697e-06
-7.1908927e-12
-1.3474415e-05
9.4093942e-06
-5.218772e-12
-1.9708719e-05
1.149504e-05
-4.1348356e-12
-2.6765748e-05
1.31373e-05
-3.4363751e-12
-3.4426615e-05
1.4334349e-05
-2.8664213e-12
-4.247863e-05
1.5110411e-05
-2.3937549e-12
-5.0720451e-05
1.5497063e-05
-1.9713983e-12
-5.8962297e-05
1.5523082e-05
-1.5594533e-12
-6.7023692e-05
1.5209872e-05
-1.14452e-12
-7.4730534e-05
1.457065e-05
-7.2790582e-13
-8.1912721e-05
1.361211e-05
-3.1493797e-13
-8.840315e-05
1.2337591e-05
9.0420437e-14
-9.4038479e-05
1.0751022e-05
4.9222024e-13
-9.8661799e-05
8.8610548e-06
8.9718769e-13
-0.0001021271
6.6849683e-06
1.3022227e-12
-0.00010430523
4.2519784e-06
1.6755013e-12
-0.000105091
1.6057149e-06
1.9760046e-12
-0.00010441064
-1.1944179e-06
2.1971433e-12
-0.00010222946
-4.0734998e-06
2.3633322e-12
-9.8558525e-05
-6.9417084e-06
2.5160626e-12
-9.3460009e-05
-9.6978644e-06
2.6705359e-12
-8.7050395e-05
-1.2233381e-05
2.775178e-12
-7.9500995e-05
-1.4437886e-05
2.7488074e-12
-7.103528e-05
-1.6205832e-05
2.585458e-12
-6.1922732e-05
-1.7443739e-05
2.4130518e-12
-5.246916e-05
-1.807755e-05
2.4009321e-12
-4.3003687e-05
-1.8059492e-05
2.5694386e-12
-3.3862815e-05
-1.7373891e-05
2.7175365e-12
-2.5372211e-05
-1.6041539e-05
2.6304378e-12
-1.782688e-05
-1.4122554e-05
2.3959617e-12
-1.1470427e-05
-1.1718131e-05
2.4101998e-12
-6.4738921e-06
-8.9721983e-06
2.9326908e-12
-2.9140459e-06
-6.0748293e-06
3.5999463e-12
-7.5119813e-07
-3.2698639e-06
3.588468e-12
1.9438157e-07
-8.6853213e-07
3.5927808e-12
2.654658e-07
7.2975002e-07
4.869611e-12
9.7380338e-07
7.9935641e-13
-7.4584768e-07
6.0434701e-07
-1.2777552e-11
-3.1796371e-06
4.0941366e-06
-1.3225471e-12
-7.3461069e-06
8.4129138e-06
-6.7726545e-12
-1.3163061e-05
1.2756431e-05
-6.13893e-12
-2.0455826e-05
1.6702162e-05
-3.5309033e-12
-2.8992645e-05
2.0031861e-05
-2.1967926e-12
-3.8513888e-05
2.2658545e-05
-1.3081544e-12
-4.8752688e-05
2.4573151e-05
-5.1358408e-13
-5.9446995e-05
2.5804718e-05
1.3079492e-13
-7.0344847e-05
2.6394914e-05
6.4266653e-13
-8.1205142e-05
2.6383375e-05
1.0696128e-12
-9.1795996e-05
2.5800724e-05
1.4389953e-12
-0.00010189243
2.466708e-05
1.760953e-12
-0.00011127464
2.2994328e-05
2.0320793e-12
-0.00011972779
2.0790742e-05
2.2374273e-12
-0.00012704362
1.8066846e-05
2.3637447e-12
-0.00013302417
1.4841601e-05
2.4127787e-12
-0.00013748743
1.1148221e-05
2.402418e-12
-0.00014027453
7.0390743e-06
2.3399829e-12
-0.00014125806
2.5892549e-06
2.2094095e-12
-0.00014035078
-2.1016956e-06
1.9865348e-12
-0.00013751439
-6.9098912e-06
1.623215e-12
-0.00013276703
-1.1689078e-05
1.1688596e-12
-0.00012618932
-1.6275589e-05
7.2232744e-13
-0.0001179279
-2.0494803e-05
3.5930829e-13
-0.00010819592
-2.4169851e-05
5.6408735e-14
-9.7269871e-05
-2.7131858e-05
-2.8595822e-13
-8.5482407e-05
-2.9231202e-05
-7.011167e-13
-7.3210954e-05
-3.034903e-05
-1.0349609e-12
-6.0862285e-05
-3.0408189e-05
-1.031692e-12
-4.8853469e-05
-2.9382696e-05
-6.0845745e-13
-3.7589899e-05
-2.7305059e-05
-1.3642254e-14
-2.7441291e-05
-2.4271126e-05
4.0956312e-13
-1.8716676e-05
-2.0442779e-05
6.6131531e-13
-1.1639475e-05
-1.6049483e-05
1.15048e-12
-6.3236073e-06
-1.1390743e-05
2.1950647e-12
-2.7515447e-06
-6.8418808e-06
3.5266877e-12
-7.5712576e-07
-2.8628858e-06
4.341772e-12
-9.5188306e-09
-1.7871028e-08
4.4557131e-12
9.6426199e-07
3.659755e-12
-1.2279685e-06
1.83233e-06
-1.4318031e-11
-4.7881137e-06
7.6542772e-06
4.6349398e-12
-1.0521548e-05
1.4146355e-05
-5.9211498e-12
-1.8214339e-05
2.0449231e-05
-7.0219468e-12
-2.7603943e-05
2.6091772e-05
-4.650281e-12
-3.8396303e-05
3.0824224e-05
-3.9341655e-12
-5.0283061e-05
3.4545306e-05
-3.5991626e-12
-6.2954789e-05
3.7244883e-05
-3.1296233e-12
-7.6109043e-05
3.8958976e-05
-2.6679499e-12
-8.9453779e-05
3.9739653e-05
-2.250112e-12
-0.00010270748
3.9637075e-05
-1.8499439e-12
-0.00011559754
3.8690783e-05
-1.4505666e-12
-0.00012785835
3.6927894e-05
-1.0400878e-12
-0.0001392302
3.4366183e-05
-6.095445e-13
-0.00014945975
3.1020293e-05
-1.6482017e-13
-0.00015830248
2.6909575e-05
2.7142101e-13
-0.00016552724
2.2066364e-05
6.7489846e-13
-0.00017092275
1.6543725e-05
1.0440454e-12
-0.0001743056
1.0421916e-05
1.4007337e-12
-0.00017552936
3.813014e-06
1.7645039e-12
-0.00017449413
-3.1369203e-06
2.1180419e-12
-0.00017115588
-1.024813e-05
2.3891532e-12
-0.0001655348
-1.7310161e-05
2.5221945e-12
-0.0001577219
-2.4088497e-05
2.5362574e-12
-0.00014788321
-3.0333523e-05
2.5365438e-12
-0.00013626061
-3.5792455e-05
2.6212413e-12
-0.00012316897
-4.0223484e-05
2.7581933e-12
-0.00010898871
-4.341143e-05
2.7848851e-12
-9.415379e-05
-4.5183948e-05
2.5935028e-12
-7.9134854e-05
-4.542716e-05
2.3259745e-12
-6.4418083e-05
-4.4099513e-05
2.299022e-12
-5.0480389e-05
-4.1242754e-05
2.6524743e-12
-3.7762138e-05
-3.6989321e-05
3.1098566e-12
-2.6638797e-05
-3.1566065e-05
3.2245376e-12
-1.7393154e-05
-2.5295142e-05
2.9348547e-12
-1.0189934e-05
-1.8594036e-05
2.8842761e-12
-5.0547651e-06
-1.1977086e-05
3.8033329e-12
-1.8598323e-06
-6.057782e-06
3.875642e-12
-3.2222044e-07
-1.5554565e-06
7.2029748e-13
6.4202152e-07
5.9446708e-12
-1.6931693e-06
3.5255172e-06
-1.6825277e-11
-6.3714133e-06
1.2332511e-05
1.0027427e-11
-1.3671458e-05
2.1446404e-05
-4.9862304e-12
-2.3234064e-05
3.0011845e-05
-7.1471394e-12
-3.4695247e-05
3.755296e-05
-4.4244965e-12
-4.7689825e-05
4.3818806e-05
-3.8687898e-12
-6.1857527e-05
4.8713011e-05
-3.759271e-12
-7.684807e-05
5.2235429e-05
-3.4037808e-12
-9.2323873e-05
5.4434782e-05
-3.0002549e-12
-0.00010796028
5.5376059e-05
-2.6105023e-12
-0.00012344397
5.5120775e-05
-2.2186235e-12
-0.0001384707
5.3717513e-05
-1.8219371e-12
-0.00015274323
5.1200426e-05
-1.4190851e-12
-0.00016597054
4.7593496e-05
-9.9872465e-13
-0.00017786874
4.2918494e-05
-5.4707938e-13
-0.00018816406
3.7204889e-05
-6.8113578e-14
-0.00019659789
3.0500207e-05
4.0874245e-13
-0.00020293384
2.2879672e-05
8.480345e-13
-0.00020696614
1.4454216e-05
1.2393184e-12
-0.0002085293
5.3761614e-06
1.609008e-12
-0.00020750813
-4.1581019e-06
1.9911475e-12
-0.00020384769
-1.3908569e-05
2.3803006e-12
-0.00019756247
-2.3595366e-05
2.6979363e-12
-0.00018874396
-3.2906996e-05
2.8555818e-12
-0.00017756589
-4.151161e-05
2.8549653e-12
-0.00016428627
-4.9072103e-05
2.8252228e-12
-0.00014924553
-5.5264242e-05
2.9142067e-12
-0.00013285991
-5.979703e-05
3.1118765e-12
-0.00011560967
-6.2434156e-05
3.2149584e-12
-9.8021742e-05
-6.3015068e-05
3.0481648e-12
-8.064722e-05
-6.1474071e-05
2.7385949e-12
-6.4034196e-05
-5.7855838e-05
2.6641211e-12
-4.8697472e-05
-5.2326064e-05
3.0217458e-12
-3.5086902e-05
-4.5176587e-05
3.4806806e-12
-2.355665e-05
-3.6825341e-05
3.4752195e-12
-1.4337854e-05
-2.7812845e-05
3.2890213e-12
-7.5175024e-06
-1.8797493e-05
4.1641838e-12
-3.026736e-06
-1.0548555e-05
3.648519e-12
-6.4248827e-07
-3.9396772e-06
-1.7813521e-12
-4.7652866e-10
8.4892637e-12
-2.132938e-06
5.658476e-06
-1.9603567e-11
-7.8910784e-06
1.8090637e-05
1.4819068e-11
-1.6717409e-05
3.0272738e-05
-4.2537738e-12
-2.8105746e-05
4.1400189e-05
-7.2230115e-12
-4.1585095e-05
5.1032314e-05
-3.9969668e-12
-5.6714141e-05
5.8947858e-05
-3.4618123e-12
-7.3078285e-05
6.5077159e-05
-3.4756944e-12
-9.0287095e-05
6.9444242e-05
-3.1769389e-12
-0.00010797133
7.2119019e-05
-2.8129582e-12
-0.00012577928
7.3184006e-05
-2.4546945e-12
-0.00014337275
7.2714249e-05
-2.0794809e-12
-0.00016042342
7.076819e-05
-1.6886957e-12
-0.00017661019
6.7387199e-05
-1.2951976e-12
-0.00019161814
6.2601445e-05
-9.0370134e-13
-0.00020513951
5.6439866e-05
-5.0146693e-13
-0.00021687684
4.8942214e-05
-6.9832697e-14
-0.00022654815
4.0171514e-05
3.9166143e-13
-0.00023389407
3.0225595e-05
8.5086351e-13
-0.0002386865
1.9246652e-05
1.2593606e-12
-0.00024073842
7.4280771e-06
1.5928033e-12
-0.00023991437
-4.9821645e-06
1.8780727e-12
-0.00023614103
-1.7681921e-05
2.180017e-12
-0.00022941748
-3.0318917e-05
2.505523e-12
-0.00021982416
-4.2500301e-05
2.7760911e-12
-0.00020752991
-5.3805841e-05
2.8744236e-12
-0.00019279609
-6.3805932e-05
2.7792809e-12
-0.0001759767
-7.2083658e-05
2.6410522e-12
-0.00015751365
-7.8260108e-05
2.664839e-12
-0.00013792614
-8.202166e-05
2.8767249e-12
-0.00011779372
-8.3147443e-05
3.0432439e-12
-9.7732933e-05
-8.1534827e-05
2.9246038e-12
-7.8368116e-05
-7.7220682e-05
2.6333256e-12
-6.029788e-05
-7.0396359e-05
2.5930801e-12
-4.4059545e-05
-6.1414945e-05
2.9661342e-12
-3.0094426e-05
-5.0790421e-05
3.2852085e-12
-1.8717242e-05
-3.9189992e-05
3.4969732e-12
-1.0093047e-05
-2.7421712e-05
4.7694859e-12
-4.2253195e-06
-1.6416312e-05
3.6030653e-12
-9.5848979e-07
-7.2065005e-06
-4.6416369e-12
-9.5896643e-07
1.0506947e-11
-2.5450556e-06
8.2035541e-06
-2.2401131e-11
-9.3288474e-06
2.4874412e-05
1.9096294e-11
-1.9615365e-05
4.055926e-05
-3.7708082e-12
-3.2756852e-05
5.4541683e-05
-7.4927281e-12
-4.8175891e-05
6.6451355e-05
-3.810485e-12
-6.5354096e-05
7.6126067e-05
-3.3179289e-12
-8.3822145e-05
8.3545213e-05
-3.459411e-12
-0.00010315063
8.8772729e-05
-3.2201825e-12
-0.00012294163
9.191002e-05
-2.9043549e-12
-0.00014282096
9.3063341e-05
-2.595429e-12
-0.00016243135
9.2324639e-05
-2.2588051e-12
-0.00018142688
8.9763726e-05
-1.8857703e-12
-0.00019946925
8.5429571e-05
-1.4873469e-12
-0.00021622605
7.9358243e-05
-1.0822212e-12
-0.0002313713
7.1585126e-05
-6.8148893e-13
-0.00024458832
6.215923e-05
-2.7498736e-13
-0.0002555746
5.1157784e-05
1.6160722e-13
-0.00026404868
3.8699676e-05
6.3799814e-13
-0.00026975868
2.4956656e-05
1.1226285e-12
-0.0002724921
1.0161501e-05
1.5505813e-12
-0.00027208668
-5.3875814e-06
1.8742812e-12
-0.00026844173
-2.1326888e-05
2.1328655e-12
-0.00026152976
-3.7230902e-05
2.3942401e-12
-0.0002514074
-5.2622662e-05
2.7018454e-12
-0.00023822498
-6.6988244e-05
2.9816784e-12
-0.00022223363
-7.9797264e-05
3.0841422e-12
-0.00020378862
-9.0528663e-05
2.9538709e-12
-0.00018334762
-9.8701141e-05
2.7499469e-12
-0.00016146242
-0.0001039069
2.7285544e-12
-0.00013876328
-0.00010584658
2.9527949e-12
-0.00011593534
-0.00010436272
3.1686224e-12
-9.3687526e-05
-9.9468463e-05
3.0989016e-12
-7.2715425e-05
-9.1368482e-05
2.8626827e-12
-5.366076e-05
-8.0469662e-05
2.8256402e-12
-3.7071101e-05
-6.7380096e-05
2.9716124e-12
-2.3363942e-05
-5.289712e-05
3.4716618e-12
-1.2799305e-05
-3.7986334e-05
5.3970174e-12
-5.4648778e-06
-2.3750756e-05
3.652716e-12
-1.2772609e-06
-1.1394124e-05
-7.6152181e-12
-2.236235e-06
1.2910106e-11
-2.9284829e-06
1.1132061e-05
-2.5125843e-11
-1.0673673e-05
3.261958e-05
2.2922345e-11
-2.2336175e-05
5.2221768e-05
-3.4529336e-12
-3.7135976e-05
6.9341493e-05
-7.8446136e-12
-5.4394112e-05
8.3709494e-05
-3.7226392e-12
-7.351763e-05
9.5249587e-05
-3.2735358e-12
-9.3984302e-05
0.00010401189
-3.5371271e-12
-0.00011532796
0.00011011639
-3.3476972e-12
-0.00013712518
0.00011370724
-3.0651291e-12
-0.00015898353
0.0001149217
-2.7947497e-12
-0.00018053178
0.00011387289
-2.5004238e-12
-0.00020141215
0.00011064409
-2.1652977e-12
-0.00022127503
0.00010529246
-1.7848211e-12
-0.00023977618
9.7859397e-05
-1.3672155e-12
-0.00025657638
8.8385325e-05
-9.36386e-13
-0.00027134346
7.6926317e-05
-5.127778e-13
-0.00028375659
6.3570907e-05
-9.1790271e-14
-0.00029351244
4.8455517e-05
3.5763279e-13
-0.00030033323
3.1777442e-05
8.5860909e-13
-0.00030397636
1.3804641e-05
1.3795029e-12
-0.00030424557
-5.118362e-06
1.8339553e-12
-0.00030100297
-2.4569486e-05
2.1808431e-12
-0.00029418252
-4.4051367e-05
2.4134849e-12
-0.00028380326
-6.3001941e-05
2.6343837e-12
-0.00026998222
-8.0809293e-05
2.9227086e-12
-0.0002529455
-9.6833975e-05
3.215319e-12
-0.00023303599
-0.00011043814
3.3355242e-12
-0.00021071599
-0.00012102113
3.1904403e-12
-0.00018656267
-0.00012806025
2.9384028e-12
-0.00016125485
-0.00013115445
2.8729626e-12
-0.00013554999
-0.00013006759
3.0819916e-12
-0.00011025147
-0.00012476694
3.3083577e-12
-8.6167367e-05
-0.00011545256
3.2847659e-12
-6.4063729e-05
-0.00010257332
3.0650689e-12
-4.4616684e-05
-8.6827183e-05
2.8163284e-12
-2.8368541e-05
-6.9145269e-05
3.2786161e-12
-1.5693151e-05
-5.0661707e-05
5.8726475e-12
-6.7752165e-06
-3.2668685e-05
3.7406197e-12
-1.6070341e-06
-1.6562303e-05
-1.0574169e-11
-3.8432872e-06
1.5441834e-11
-3.2817e-06
1.4413789e-05
-2.7711905e-11
-1.1915871e-05
4.1253725e-05
2.6333613e-11
-2.4855512e-05
6.5161413e-05
-3.2665446e-12
-4.1199919e-05
8.5685909e-05
-8.2470505e-12
-6.017631e-05
0.00010268589
-3.6928927e-12
-8.112225e-05
0.00011619553
-3.2664294e-12
-0.00010346631
0.00012635595
-3.6420411e-12
-0.00012670888
0.00013335897
-3.5019507e-12
-0.00015040465
0.00013740301
-3.246036e-12
-0.00017414714
0.0001386642
-2.9981384e-12
-0.00019755594
0.0001372817
-2.7291296e-12
-0.00022026668
0.00013335484
-2.4294903e-12
-0.00024192389
0.00012694966
-2.0895537e-12
-0.00026217668
0.00011811219
-1.6957764e-12
-0.00028067717
0.00010688582
-1.2522094e-12
-0.00029708131
9.3330454e-05
-7.8735983e-13
-0.00031105196
7.7541564e-05
-3.3396272e-13
-0.00032226415
5.9667702e-05
1.0511508e-13
-0.00033041221
3.9925496e-05
5.6654042e-13
-0.00033521898
1.8611407e-05
1.0774257e-12
-0.00033644714
-3.8902034e-06
1.6024155e-12
-0.00033391173
-2.7104877e-05
2.1304916e-12
-0.00032749596
-5.046713e-05
2.4942721e-12
-0.00031716688
-7.3331035e-05
2.7015946e-12
-0.00030299231
-9.4983888e-05
2.8748734e-12
-0.00028515684
-0.00011466946
3.1264424e-12
-0.00026397518
-0.00013161978
3.4130603e-12
-0.00023990061
-0.00014509568
3.5405968e-12
-0.00021352582
-0.00015443502
3.3855986e-12
-0.00018557378
-0.00015910651
3.1024396e-12
-0.0001568766
-0.00015876481
3.0020129e-12
-0.00012834165
-0.0001533019
3.1850894e-12
-0.00010090606
-0.00014288811
3.4119916e-12
-7.5482461e-05
-0.0001279969
3.3508245e-12
-5.2901146e-05
-0.00010940852
2.8873208e-12
-3.3855125e-05
-8.8191317e-05
3.156733e-12
-1.8854791e-05
-6.5662047e-05
6.2662186e-12
-8.1982627e-06
-4.3325204e-05
3.7435798e-12
-1.9611604e-06
-2.2799386e-05
-1.3735714e-11
-5.8044695e-06
1.8148291e-11
-3.6023022e-06
1.8016122e-05
-3.0114485e-11
-1.3044873e-05
5.0696265e-05
2.9352731e-11
-2.714929e-05
7.9265834e-05
-3.1861779e-12
-4.490717e-05
0.0001034438
-8.698648e-12
-6.5461504e-05
0.00012324023
-3.7354135e-12
-8.8087232e-05
0.00013882126
-3.3100536e-12
-0.0001121688
0.00015043752
-3.7798831e-12
-0.00013717742
0.0001583676
-3.6919463e-12
-0.00016264988
0.00016287547
-3.4723744e-12
-0.00018816993
0.00016418425
-3.2497719e-12
-0.00021335264
0.00016246441
-2.9944347e-12
-0.00023783203
0.00015783423
-2.7088995e-12
-0.00026125191
0.00015036954
-2.3986726e-12
-0.00028325983
0.00014012011
-2.0489422e-12
-0.00030350383
0.00012712981
-1.637541e-12
-0.00032163166
0.00011145829
-1.1624156e-12
-0.00033729244
9.3202351e-05
-6.5522786e-13
-0.00035014038
7.2515643e-05
-1.6203061e-13
-0.00035984079
4.9625903e-05
3.015381e-13
-0.00036607843
2.4849037e-05
7.568097e-13
-0.00036856897
-1.3996711e-06
1.2203927e-12
-0.00036707135
-2.8602499e-05
1.8703769e-12
-0.00036140637
-5.6132097e-05
2.4330058e-12
-0.00035147457
-8.3262817e-05
2.8146324e-12
-0.00033727782
-0.00010918065
3.0070169e-12
-0.00031894091
-0.00013300639
3.133218e-12
-0.00029673176
-0.00015382896
3.3362189e-12
-0.00027107727
-0.00017075015
3.5941221e-12
-0.00024257162
-0.00018294065
3.7059162e-12
-0.00021197326
-0.00018970486
3.5336776e-12
-0.00018018759
-0.0001905505
3.2315956e-12
-0.00014823333
-0.0001852562
3.119143e-12
-0.00011719277
-0.00017392867
3.2981907e-12
-8.8148948e-05
-0.0001570407
3.4176695e-12
-6.2115376e-05
-0.00013544208
2.9890606e-12
-3.9966491e-05
-0.00011034022
3.1894329e-12
-2.2377617e-05
-8.3250941e-05
6.7671374e-12
-9.7826939e-06
-5.5920129e-05
3.6994314e-12
-2.3546952e-06
-3.0227359e-05
-1.7277118e-11
-8.1591854e-06
2.1164207e-11
-3.8870497e-06
2.1903206e-05
-3.2305152e-11
-1.4048659e-05
6.0857842e-05
3.1978043e-11
-2.9192053e-05
9.440923e-05
-3.1801151e-12
-4.8215265e-05
0.00012246702
-9.1778068e-12
-7.0187842e-05
0.00014521281
-3.8552337e-12
-9.4330059e-05
0.00016296348
-3.41873e-12
-0.00011998821
0.00017609568
-3.956403e-12
-0.00014660908
0.00018498847
-3.9094739e-12
-0.00017371588
0.00018998228
-3.731177e-12
-0.00020088685
0.00019135523
-3.5485502e-12
-0.00022773708
0.00018931464
-3.3183228e-12
-0.0002539038
0.00018400096
-3.0399682e-12
-0.00027903519
0.00017550094
-2.7332533e-12
-0.00030278231
0.00016386724
-2.406044e-12
-0.00032479396
0.00014914146
-2.0416951e-12
-0.00034471404
0.00013137837
-1.609534e-12
-0.00036218126
0.00011066957
-1.098222e-12
-0.00037683113
8.7165526e-05
-5.418818e-13
-0.00038830041
6.109519e-05
-1.3839012e-15
-0.00039623427
3.2782893e-05
5.0452494e-13
-0.00040029638
2.6624313e-06
1.0329256e-12
-0.00040018388
-2.8715012e-05
1.5371448e-12
-0.00039564406
-6.0671923e-05
2.1438843e-12
-0.00038649735
-9.2409505e-05
2.7308139e-12
-0.00037266261
-0.00012301537
3.140307e-12
-0.00035418496
-0.00015148405
3.3254595e-12
-0.0003312638
-0.00017675015
3.4094387e-12
-0.00030427784
-0.00019773613
3.5558696e-12
-0.000273803
-0.00021341549
3.7585504e-12
-0.00024061829
-0.00022288953
3.8204433e-12
-0.00020569518
-0.00022547361
3.6127409e-12
-0.00017016638
-0.00022078501
3.3136025e-12
-0.00013527319
-0.0002088219
3.2414047e-12
-0.00010229333
-0.00019002056
3.3052135e-12
-7.2455931e-05
-0.00016527946
2.9226959e-12
-4.6853289e-05
-0.00013594285
3.2399553e-12
-2.6361364e-05
-0.00010374288
7.4476927e-12
-1.1580445e-05
-7.0701059e-05
3.7096849e-12
-2.8033163e-06
-3.9004466e-05
-2.1298124e-11
-1.0962523e-05
2.4594629e-11
-4.1321171e-06
2.6035357e-05
-3.4251902e-11
-1.4914096e-05
7.1639789e-05
3.4181871e-11
-3.095713e-05
0.00011045227
-3.2281455e-12
-5.1080654e-05
0.00014259055
-9.6501595e-12
-7.4292273e-05
0.00016842443
-4.0329604e-12
-9.9766125e-05
0.00018843734
-3.5926321e-12
-0.00012681669
0.00020314625
-4.1805201e-12
-0.0001548713
0.00021304309
-4.1556663e-12
-0.00018344394
0.00021855491
-4.0061247e-12
-0.0002121115
0.00022002279
-3.8654743e-12
-0.00024049344
0.00021769659
-3.6784447e-12
-0.00026823493
0.00021174245
-3.4278035e-12
-0.00029499352
0.00020225953
-3.1243141e-12
-0.00032042905
0.00018930278
-2.7897515e-12
-0.0003441964
0.00017290882
-2.4384363e-12
-0.00036594074
0.0001531227
-2.054825e-12
-0.00038529505
0.00013002388
-1.5996222e-12
-0.00040188001
0.00010375049
-1.0514476e-12
-0.00041530644
7.4521623e-05
-4.4335177e-13
-0.00042518077
4.265723e-05
1.6959578e-13
-0.00043111396
8.5956276e-06
7.6589718e-13
-0.00043273622
-2.7092765e-05
1.2269169e-12
-0.00042971416
-6.3693993e-05
1.7755651e-12
-0.00042177618
-0.00010034749
2.415719e-12
-0.00040874172
-0.00013604982
3.0342017e-12
-0.00039055537
-0.00016967038
3.465059e-12
-0.00036732349
-0.00019998203
3.6424806e-12
-0.0003393498
-0.00022570985
3.6852042e-12
-0.00030716537
-0.00024559994
3.7637969e-12
-0.00027154683
-0.00025850807
3.8787012e-12
-0.000233516
-0.00026350442
3.8516401e-12
-0.00019431497
-0.00025998604
3.6115917e-12
-0.00015535291
-0.00024778398
3.3792116e-12
-0.00011812527
-0.00022724821
3.2300315e-12
-8.4111835e-05
-0.0001992929
2.7143312e-12
-5.466548e-05
-0.0001653892
3.178552e-12
-3.0907339e-05
-0.00012750102
8.2471419e-12
-1.3644698e-05
-8.7963706e-05
3.804722e-12
-3.3229938e-06
-4.9326148e-05
-2.5879129e-11
-1.4285544e-05
2.8567815e-11
-4.3334551e-06
3.0368847e-05
-3.5908612e-11
-1.5627794e-05
8.2934095e-05
3.592901e-11
-3.241791e-05
0.00012724239
-3.3297073e-12
-5.3460307e-05
0.00016363296
-1.0093486e-11
-7.771246e-05
0.00019267659
-4.241211e-12
-0.000104311
0.00021503589
-3.8131941e-12
-0.00013254491
0.00023138016
-4.4513004e-12
-0.00016182693
0.00024232511
-4.4413643e-12
-0.00019166588
0.00024839386
-4.3039295e-12
-0.00022164124
0.00024999816
-4.1876751e-12
-0.00025138097
0.00024743632
-4.0404206e-12
-0.00028054264
0.00024090413
-3.8370839e-12
-0.00030879822
0.0002305151
-3.5667229e-12
-0.00033582178
0.00021632635
-3.2335284e-12
-0.00036128018
0.00019836722
-2.863645e-12
-0.00038482595
0.00017666848
-2.4807138e-12
-0.00040609255
0.00015129048
-2.0723307e-12
-0.00042469179
0.00012234972
-1.5924019e-12
-0.00044021385
9.0043688e-05
-1.0064583e-12
-0.00045223065
5.4674035e-05
-3.3428473e-13
-0.00046030303
1.6668019e-05
3.5086554e-13
-0.00046399357
-2.3402223e-05
9.3186916e-13
-0.00046288448
-6.4803088e-05
1.475878e-12
-0.00045660341
-0.00010662858
2.0606426e-12
-0.00044485609
-0.00014779715
2.7186569e-12
-0.00042746613
-0.00018706033
3.3519809e-12
-0.00040442021
-0.00022302793
3.785172e-12
-0.0003759156
-0.00025421446
3.9410333e-12
-0.00034240457
-0.00027911098
3.9318747e-12
-0.00030462863
-0.00029628405
3.9196892e-12
-0.00026363338
-0.00030449967
3.9071652e-12
-0.00022075512
-0.00030286428
3.7837379e-12
-0.00017757162
-0.00029096747
3.5788055e-12
-0.00013581501
-0.00026900484
3.279468e-12
-9.7251938e-05
-0.00023785599
2.5053119e-12
-6.3544843e-05
-0.0001990963
3.0236066e-12
-3.6114691e-05
-0.00015493118
9.1117921e-12
-1.6028558e-05
-0.00010804984
3.9382763e-12
-3.9298361e-06
-6.1424839e-05
-3.1146761e-11
-1.8215414e-05
3.3225726e-11
-4.4872242e-06
3.4856108e-05
-3.7225531e-11
-1.6177325e-05
9.4624158e-05
3.7200083e-11
-3.3549901e-05
0.00014461497
-3.4872634e-12
-5.5314556e-05
0.00018539763
-1.0504572e-11
-8.0390369e-05
0.00021775241
-4.4665976e-12
-0.0001078848
0.00024253033
-4.0565274e-12
-0.00013706725
0.00026056262
-4.7490147e-12
-0.00016734027
0.00027259814
-4.7629933e-12
-0.0001982112
0.00027926479
-4.6364874e-12
-0.00022926561
0.00028105258
-4.5281534e-12
-0.00026014367
0.00027831438
-4.3962858e-12
-0.00029051966
0.00027128013
-4.2280581e-12
-0.00032008483
0.00026008027
-4.0087412e-12
-0.00034853318
0.0002447747
-3.7153901e-12
-0.00037554994
0.00022538398
-3.3467927e-12
-0.00040080218
0.00020192074
-2.9343541e-12
-0.0004239316
0.0001744199
-2.5115524e-12
-0.0004445493
0.00014296742
-2.0711091e-12
-0.00046223322
0.0001077276
-1.5601036e-12
-0.00047652863
6.8969442e-05
-9.291319e-13
-0.00048695288
2.7092276e-05
-1.9695886e-13
-0.00049300564
-1.7349454e-05
5.3405257e-13
-0.00049418563
-6.3623088e-05
1.1937565e-12
-0.00049001582
-0.0001107984
1.7897776e-12
-0.00048007775
-0.00015773524
2.4013523e-12
-0.00046405567
-0.00020308242
3.06716e-12
-0.00044178975
-0.00024529384
3.6890742e-12
-0.00041333574
-0.00028266845
4.0909342e-12
-0.00037902595
-0.00031342077
4.1957775e-12
-0.00033952333
-0.00033578668
4.105291e-12
-0.00029585752
-0.0003481655
3.9629084e-12
-0.0002494298
-0.000349292
3.8153598e-12
-0.00020197496
-0.00033842229
3.6709692e-12
-0.00015547283
-0.00031550697
3.3449353e-12
-0.00011201159
-0.00028131724
2.3347485e-12
-7.36175e-05
-0.0002374904
2.8576493e-12
-4.2077006e-05
-0.00018647168
1.0080191e-11
-1.8784003e-05
-0.00013134284
4.0763603e-12
-4.6400101e-06
-7.5568792e-05
-3.7263524e-11
-2.2855463e-05
3.8691991e-11
-4.590283e-06
3.944643e-05
-3.8170974e-11
-1.6552691e-05
0.00010658653
3.7993279e-11
-3.4333352e-05
0.00016239563
-3.6886155e-12
-5.661089e-05
0.00020767518
-1.0883701e-11
-8.2277188e-05
0.00024341871
-4.7146442e-12
-0.00011041819
0.00027067133
-4.3149228e-12
-0.00014028892
0.00029043335
-5.0524177e-12
-0.00017128552
0.00030359474
-5.0984795e-12
-0.00020291689
0.00031089617
-4.9950504e-12
-0.00023477769
0.00031291339
-4.8979012e-12
-0.00026652359
0.00031006029
-4.7652595e-12
-0.00029784946
0.00030260601
-4.5992553e-12
-0.00032847061
0.00029070142
-4.4063582e-12
-0.00035810672
0.00027441081
-4.1649003e-12
-0.00038646825
0.00025374552
-3.8421157e-12
-0.00041324486
0.00022869735
-3.4320496e-12
-0.00043809568
0.00019927073
-2.96988e-12
-0.00046064152
0.00016551327
-2.4979414e-12
-0.00048045932
0.00012754539
-2.0143157e-12
-0.00049707946
8.5589579e-05
-1.461639e-12
-0.0005099872
4.0000007e-05
-7.8377116e-13
-0.00051862939
-8.7072629e-06
2.8186661e-15
-0.00052242834
-5.9824125e-05
8.0192186e-13
-0.00052080462
-0.00011242211
1.5295058e-12
-0.00051321089
-0.00016532898
2.1778946e-12
-0.00049917822
-0.00021711511
2.8142114e-12
-0.0004783755
-0.00026609658
3.4675195e-12
-0.0004506806
-0.00031036336
4.037906e-12
-0.0004162589
-0.00034784245
4.3592177e-12
-0.00037564085
-0.00037640472
4.3622502e-12
-0.00032978532
-0.00039402105
4.1373982e-12
-0.00028011191
-0.00039896543
3.8543266e-12
-0.00022848373
-0.00039005047
3.6572596e-12
-0.00017712616
-0.00036686453
3.306444e-12
-0.00012847765
-0.00032996575
2.1086903e-12
-8.4985585e-05
-0.00028098247
2.6839416e-12
-4.8878643e-05
-0.00022257864
1.1217294e-11
-2.1960826e-05
-0.00015826066
4.2360569e-12
-5.4696781e-06
-9.2059893e-05
-4.4374646e-11
-2.8325185e-05
4.5076849e-11
-4.6407191e-06
4.408719e-05
-3.8739774e-11
-1.6747989e-05
0.00011869376
3.8308549e-11
-3.4756315e-05
0.00018040396
-3.9109386e-12
-5.7328468e-05
0.00023024734
-1.1218534e-11
-8.333927e-05
0.00026942952
-4.9923578e-12
-0.00011185972
0.00029919179
-4.5990886e-12
-0.00014213476
0.00032070839
-5.3607249e-12
-0.00017355703
0.00033501702
-5.431243e-12
-0.00020563945
0.00034297859
-5.3550817e-12
-0.00023798811
0.00034526206
-5.2812527e-12
-0.00027027702
0.0003423492
-5.1556811e-12
-0.0003022252
0.0003345542
-4.9762728e-12
-0.00033357653
0.00032205276
-4.7674975e-12
-0.00036408207
0.00030491635
-4.5380275e-12
-0.00039348459
0.00028314805
-4.2625909e-12
-0.00042150501
0.00025671777
-3.9009317e-12
-0.00044783033
0.00022559605
-3.4419393e-12
-0.00047210323
0.00018978618
-2.9223149e-12
-0.00049391354
0.00014935571
-2.3909197e-12
-0.00051279208
0.00010446812
-1.85072e-12
-0.00052820808
5.5416003e-05
-1.2448696e-12
-0.0005395714
2.6560505e-06
-5.1082534e-13
-0.00054624184
-5.3153689e-05
3.2220427e-13
-0.00054754741
-0.00011111652
1.1834851e-12
-0.000542815
-0.00017006138
1.973599e-12
-0.0005314158
-0.00022851431
2.6678715e-12
-0.00051282805
-0.00028468435
3.3112879e-12
-0.00048671738
-0.00033647404
3.9138027e-12
-0.00045303246
-0.00038152737
4.3737476e-12
-0.00041210823
-0.00041732895
4.5417829e-12
-0.00036476274
-0.00044136654
4.3655137e-12
-0.00031236681
-0.00045136137
3.9829774e-12
-0.00025686081
-0.00044555649
3.6489868e-12
-0.00020069381
-0.00042303154
3.1720186e-12
-0.00014667113
-0.00038398841
1.738539e-12
-9.7717407e-05
-0.0003299362
2.4234418e-12
-5.6590334e-05
-0.00026370572
1.2530789e-11
-2.5605329e-05
-0.00018924567
4.4409749e-12
-6.4348952e-06
-0.00011123027