/*--------------------------------*- C++ -*----------------------------------*\
  =========                 |
  \\      /  F ield         | OpenFOAM: The Open Source CFD Toolbox
   \\    /   O peration     | Website:  https://openfoam.org
    \\  /    A nd           | Version:  7
     \\/     M anipulation  |
\*---------------------------------------------------------------------------*/
FoamFile
{
    version     2.0;
    format      ascii;
    class       surfaceScalarField;
    location    "42";
    object      phi_0;
}
// * * * * * * * * * * * * * * * * * * * * * * * * * * * * * * * * * * * * * //

dimensions      [0 3 -1 0 0 0 0];

internalField   nonuniform List<scalar> 
45600
(
2.7516067e-07
-2.8224835e-07
-7.9564502e-11
4.0333052e-07
-1.2814459e-07
-2.5030844e-11
1.3256016e-07
2.7077746e-07
-6.7986807e-12
-5.6230742e-07
6.9486971e-07
-1.5561691e-12
-1.639309e-06
1.0769986e-06
3.5536092e-12
-3.0276202e-06
1.3883041e-06
7.0249793e-12
-4.6524638e-06
1.624834e-06
9.3038419e-12
-6.4450972e-06
1.7926226e-06
1.0915193e-11
-8.3454244e-06
1.9003159e-06
1.2060519e-11
-1.0301444e-05
1.9560076e-06
1.2818731e-11
-1.2267404e-05
1.9659466e-06
1.324014e-11
-1.4201584e-05
1.9341661e-06
1.3362131e-11
-1.6064241e-05
1.8626443e-06
1.3206612e-11
-1.781603e-05
1.7517761e-06
1.2777419e-11
-1.9417057e-05
1.6010161e-06
1.2062526e-11
-2.082666e-05
1.4095945e-06
1.1040129e-11
-2.2003909e-05
1.1772398e-06
9.6897108e-12
-2.2908771e-05
9.0485306e-07
8.00836e-12
-2.350387e-05
5.9509181e-07
6.0170969e-12
-2.3756703e-05
2.5282953e-07
3.7625003e-12
-2.3642142e-05
-1.1455983e-07
1.2983918e-12
-2.314501e-05
-4.9712657e-07
-1.3326407e-12
-2.2262577e-05
-8.8242843e-07
-4.0828007e-12
-2.1006621e-05
-1.2559522e-06
-6.8507098e-12
-1.9404869e-05
-1.6017482e-06
-9.4618771e-12
-1.7501562e-05
-1.9032962e-06
-1.172454e-11
-1.5356974e-05
-2.1445678e-06
-1.3495256e-11
-1.3045754e-05
-2.311195e-06
-1.4729519e-11
-1.0654095e-05
-2.3916426e-06
-1.5430757e-11
-8.2758121e-06
-2.3782789e-06
-1.5530211e-11
-6.0075703e-06
-2.2682415e-06
-1.4843945e-11
-3.9435391e-06
-2.0640172e-06
-1.3211869e-11
-2.1697865e-06
-1.7737209e-06
-1.0709134e-11
-7.5852936e-07
-1.4112293e-06
-7.6668517e-12
2.3822457e-07
-9.9675635e-07
-4.549431e-12
7.9654649e-07
-5.5835338e-07
-1.9057123e-12
9.2925728e-07
-1.3273081e-07
1.2654256e-12
7.0555345e-07
2.2372563e-07
5.503032e-12
2.9044695e-07
4.1515597e-07
1.0121659e-11
2.9047538e-07
3.801286e-12
1.3288561e-07
-4.1511128e-07
-2.2427893e-11
-3.0168437e-07
3.064402e-07
-1.4196986e-11
-1.6154004e-06
1.5845061e-06
-1.2406078e-11
-3.8747066e-06
2.9541893e-06
-1.3171101e-11
-7.007341e-06
4.2096481e-06
-1.4332664e-11
-1.087975e-05
5.2607308e-06
-1.5866469e-11
-1.5335164e-05
6.0802658e-06
-1.7301191e-11
-2.0216003e-05
6.6734794e-06
-1.8341022e-11
-2.5374062e-05
7.0583937e-06
-1.8922644e-11
-3.0673276e-05
7.2552404e-06
-1.9052811e-11
-3.5988543e-05
7.2812341e-06
-1.8760658e-11
-4.1202831e-05
7.1484737e-06
-1.8078236e-11
-4.6203975e-05
6.8638059e-06
-1.702565e-11
-5.0882103e-05
6.4299203e-06
-1.5608014e-11
-5.5128236e-05
5.8471621e-06
-1.3820315e-11
-5.8834323e-05
5.115694e-06
-1.1658647e-11
-6.1894807e-05
4.237735e-06
-9.1367431e-12
-6.4209611e-05
3.2196679e-06
-6.2896303e-12
-6.568836e-05
2.0738458e-06
-3.1810693e-12
-6.625547e-05
8.1993808e-07
1.268939e-13
-6.5855986e-05
-5.1405108e-07
3.5884967e-12
-6.4460812e-05
-1.8923093e-06
7.1910235e-12
-6.207248e-05
-3.2707674e-06
1.0773805e-11
-5.8729089e-05
-4.5993497e-06
1.4154481e-11
-5.4507074e-05
-5.8237759e-06
1.7143384e-11
-4.9521905e-05
-6.888491e-06
1.9617348e-11
-4.3926401e-05
-7.7401056e-06
2.1555141e-11
-3.7906456e-05
-8.3311676e-06
2.2955544e-11
-3.1674145e-05
-8.6239655e-06
2.3707081e-11
-2.5458393e-05
-8.5940328e-06
2.357805e-11
-1.9493601e-05
-8.2330495e-06
2.2409453e-11
-1.4006717e-05
-7.5509422e-06
2.034582e-11
-9.2032993e-06
-6.5771853e-06
1.7799671e-11
-5.252914e-06
-5.3616281e-06
1.5096356e-11
-2.2739791e-06
-3.9756635e-06
1.2165415e-11
-3.1725359e-07
-2.5150495e-06
8.6365179e-12
6.5707241e-07
-1.1070855e-06
4.1977726e-12
8.0366203e-07
7.7051417e-08
2.0490604e-12
4.1780542e-07
8.0092756e-07
3.4177726e-12
7.0831203e-07
-2.429478e-12
-2.7358491e-07
-1.4151364e-07
-1.2506563e-11
-1.6274808e-06
1.6603444e-06
-7.2698314e-12
-4.2894011e-06
4.2464355e-06
-8.5955304e-12
-8.2746742e-06
6.9394697e-06
-7.1908927e-12
-1.3474415e-05
9.409394e-06
-5.218772e-12
-1.9708719e-05
1.1495039e-05
-4.1348356e-12
-2.6765748e-05
1.31373e-05
-3.4363751e-12
-3.4426615e-05
1.4334349e-05
-2.8664213e-12
-4.247863e-05
1.5110411e-05
-2.3937549e-12
-5.0720451e-05
1.5497062e-05
-1.9713983e-12
-5.8962296e-05
1.5523081e-05
-1.5594533e-12
-6.7023692e-05
1.5209871e-05
-1.14452e-12
-7.4730534e-05
1.457065e-05
-7.2790582e-13
-8.1912721e-05
1.361211e-05
-3.1493797e-13
-8.840315e-05
1.2337591e-05
9.0420437e-14
-9.4038479e-05
1.0751022e-05
4.9222024e-13
-9.8661799e-05
8.8610541e-06
8.9718769e-13
-0.0001021271
6.6849669e-06
1.3022227e-12
-0.00010430523
4.2519772e-06
1.6755013e-12
-0.000105091
1.605715e-06
1.9760046e-12
-0.00010441064
-1.1944162e-06
2.1971433e-12
-0.00010222946
-4.0734981e-06
2.3633322e-12
-9.8558523e-05
-6.9417087e-06
2.5160626e-12
-9.3460007e-05
-9.6978671e-06
2.6705359e-12
-8.7050395e-05
-1.2233384e-05
2.775178e-12
-7.9500998e-05
-1.4437885e-05
2.7488074e-12
-7.1035283e-05
-1.6205826e-05
2.585458e-12
-6.192273e-05
-1.7443734e-05
2.4130518e-12
-5.2469154e-05
-1.8077552e-05
2.4009321e-12
-4.3003682e-05
-1.80595e-05
2.5694386e-12
-3.3862819e-05
-1.7373896e-05
2.7175365e-12
-2.5372221e-05
-1.6041533e-05
2.6304378e-12
-1.7826885e-05
-1.4122541e-05
2.3959617e-12
-1.1470417e-05
-1.1718127e-05
2.4101998e-12
-6.4738773e-06
-8.9722114e-06
2.9326908e-12
-2.9140443e-06
-6.0748487e-06
3.5999463e-12
-7.5121477e-07
-3.2698688e-06
3.588468e-12
1.9436761e-07
-8.6851848e-07
3.5927808e-12
2.6547873e-07
7.297638e-07
4.869611e-12
9.7380124e-07
7.9935641e-13
-7.4584763e-07
6.0434681e-07
-1.2777552e-11
-3.1796372e-06
4.0941362e-06
-1.3225471e-12
-7.3461073e-06
8.4129134e-06
-6.7726545e-12
-1.3163062e-05
1.2756431e-05
-6.13893e-12
-2.0455826e-05
1.6702162e-05
-3.5309033e-12
-2.8992645e-05
2.0031861e-05
-2.1967926e-12
-3.8513888e-05
2.2658545e-05
-1.3081544e-12
-4.8752688e-05
2.4573151e-05
-5.1358408e-13
-5.9446995e-05
2.5804718e-05
1.3079492e-13
-7.0344847e-05
2.6394914e-05
6.4266653e-13
-8.1205141e-05
2.6383374e-05
1.0696128e-12
-9.1795995e-05
2.5800723e-05
1.4389953e-12
-0.00010189243
2.466708e-05
1.760953e-12
-0.00011127464
2.2994327e-05
2.0320793e-12
-0.00011972779
2.0790742e-05
2.2374273e-12
-0.00012704362
1.8066847e-05
2.3637447e-12
-0.00013302417
1.4841601e-05
2.4127787e-12
-0.00013748743
1.114822e-05
2.402418e-12
-0.00014027453
7.0390729e-06
2.3399829e-12
-0.00014125806
2.5892532e-06
2.2094095e-12
-0.00014035078
-2.1016958e-06
1.9865348e-12
-0.00013751439
-6.909889e-06
1.623215e-12
-0.00013276703
-1.1689075e-05
1.1688596e-12
-0.00012618932
-1.6275588e-05
7.2232744e-13
-0.0001179279
-2.0494806e-05
3.5930829e-13
-0.00010819592
-2.4169855e-05
5.6408735e-14
-9.7269874e-05
-2.7131858e-05
-2.8595822e-13
-8.5482412e-05
-2.9231196e-05
-7.011167e-13
-7.3210954e-05
-3.0349023e-05
-1.0349609e-12
-6.0862277e-05
-3.0408189e-05
-1.031692e-12
-4.8853462e-05
-2.9382706e-05
-6.0845745e-13
-3.7589902e-05
-2.7305067e-05
-1.3642254e-14
-2.7441304e-05
-2.4271121e-05
4.0956312e-13
-1.8716685e-05
-2.0442763e-05
6.6131531e-13
-1.1639467e-05
-1.6049472e-05
1.15048e-12
-6.3235906e-06
-1.139075e-05
2.1950647e-12
-2.7515424e-06
-6.841896e-06
3.5266877e-12
-7.5713982e-07
-2.8628898e-06
4.341772e-12
-9.523051e-09
-1.7864157e-08
4.4557131e-12
9.6426528e-07
3.659755e-12
-1.2279686e-06
1.8323299e-06
-1.4318031e-11
-4.7881137e-06
7.6542768e-06
4.6349398e-12
-1.0521548e-05
1.4146354e-05
-5.9211498e-12
-1.8214339e-05
2.044923e-05
-7.0219468e-12
-2.7603944e-05
2.6091772e-05
-4.650281e-12
-3.8396303e-05
3.0824224e-05
-3.9341655e-12
-5.0283061e-05
3.4545306e-05
-3.5991626e-12
-6.2954789e-05
3.7244882e-05
-3.1296233e-12
-7.6109043e-05
3.8958976e-05
-2.6679499e-12
-8.9453779e-05
3.9739653e-05
-2.250112e-12
-0.00010270748
3.9637075e-05
-1.8499439e-12
-0.00011559754
3.8690783e-05
-1.4505666e-12
-0.00012785835
3.6927893e-05
-1.0400878e-12
-0.0001392302
3.4366182e-05
-6.095445e-13
-0.00014945975
3.1020292e-05
-1.6482017e-13
-0.00015830248
2.6909574e-05
2.7142101e-13
-0.00016552724
2.2066364e-05
6.7489846e-13
-0.00017092275
1.6543726e-05
1.0440454e-12
-0.0001743056
1.0421916e-05
1.4007337e-12
-0.00017552936
3.8130128e-06
1.7645039e-12
-0.00017449413
-3.1369225e-06
2.1180419e-12
-0.00017115589
-1.0248131e-05
2.3891532e-12
-0.0001655348
-1.7310158e-05
2.5221945e-12
-0.00015772191
-2.4088493e-05
2.5362574e-12
-0.0001478832
-3.033352e-05
2.5365438e-12
-0.00013626061
-3.5792458e-05
2.6212413e-12
-0.00012316897
-4.022349e-05
2.7581933e-12
-0.00010898872
-4.3411432e-05
2.7848851e-12
-9.4153798e-05
-4.5183941e-05
2.5935028e-12
-7.9134856e-05
-4.542715e-05
2.3259745e-12
-6.4418074e-05
-4.4099511e-05
2.299022e-12
-5.0480379e-05
-4.1242765e-05
2.6524743e-12
-3.776214e-05
-3.6989334e-05
3.1098566e-12
-2.6638811e-05
-3.1566065e-05
3.2245376e-12
-1.7393163e-05
-2.5295128e-05
2.9348547e-12
-1.0189925e-05
-1.8594026e-05
2.8842761e-12
-5.0547518e-06
-1.197709e-05
3.8033329e-12
-1.8598347e-06
-6.0577907e-06
3.875642e-12
-3.2222641e-07
-1.5554571e-06
7.2029748e-13
6.4202425e-07
5.9446708e-12
-1.6931696e-06
3.5255171e-06
-1.6825277e-11
-6.3714134e-06
1.2332511e-05
1.0027427e-11
-1.3671457e-05
2.1446403e-05
-4.9862304e-12
-2.3234064e-05
3.0011845e-05
-7.1471394e-12
-3.4695247e-05
3.755296e-05
-4.4244965e-12
-4.7689825e-05
4.3818806e-05
-3.8687898e-12
-6.1857527e-05
4.8713011e-05
-3.759271e-12
-7.684807e-05
5.2235429e-05
-3.4037808e-12
-9.2323873e-05
5.4434782e-05
-3.0002549e-12
-0.00010796028
5.5376058e-05
-2.6105023e-12
-0.00012344397
5.5120774e-05
-2.2186235e-12
-0.0001384707
5.3717512e-05
-1.8219371e-12
-0.00015274323
5.1200426e-05
-1.4190851e-12
-0.00016597054
4.7593496e-05
-9.9872465e-13
-0.00017786874
4.2918493e-05
-5.4707938e-13
-0.00018816406
3.7204888e-05
-6.8113578e-14
-0.00019659789
3.0500206e-05
4.0874245e-13
-0.00020293384
2.2879672e-05
8.480345e-13
-0.00020696614
1.4454217e-05
1.2393184e-12
-0.0002085293
5.3761626e-06
1.609008e-12
-0.00020750812
-4.1581027e-06
1.9911475e-12
-0.00020384768
-1.3908571e-05
2.3803006e-12
-0.00019756247
-2.3595367e-05
2.6979363e-12
-0.00018874397
-3.2906994e-05
2.8555818e-12
-0.00017756589
-4.1511604e-05
2.8549653e-12
-0.00016428626
-4.9072099e-05
2.8252228e-12
-0.00014924552
-5.5264244e-05
2.9142066e-12
-0.00013285991
-5.9797038e-05
3.1118765e-12
-0.00011560967
-6.2434161e-05
3.2149584e-12
-9.8021752e-05
-6.3015062e-05
3.0481648e-12
-8.0647224e-05
-6.1474059e-05
2.7385949e-12
-6.4034187e-05
-5.7855833e-05
2.6641211e-12
-4.869746e-05
-5.2326073e-05
3.0217458e-12
-3.5086903e-05
-4.51766e-05
3.4806806e-12
-2.3556662e-05
-3.6825343e-05
3.4752195e-12
-1.4337861e-05
-2.7812835e-05
3.2890213e-12
-7.5174939e-06
-1.8797487e-05
4.1641838e-12
-3.0267303e-06
-1.0548559e-05
3.648519e-12
-6.4249016e-07
-3.9396814e-06
-1.7813521e-12
-4.7614366e-10
8.4892637e-12
-2.1329382e-06
5.6584758e-06
-1.9603567e-11
-7.8910788e-06
1.8090637e-05
1.4819068e-11
-1.6717409e-05
3.0272738e-05
-4.2537738e-12
-2.8105746e-05
4.1400189e-05
-7.2230115e-12
-4.1585095e-05
5.1032313e-05
-3.9969668e-12
-5.6714141e-05
5.8947858e-05
-3.4618123e-12
-7.3078285e-05
6.5077159e-05
-3.4756944e-12
-9.0287095e-05
6.9444242e-05
-3.1769389e-12
-0.00010797133
7.2119019e-05
-2.8129582e-12
-0.00012577928
7.3184005e-05
-2.4546945e-12
-0.00014337275
7.2714249e-05
-2.0794809e-12
-0.00016042342
7.076819e-05
-1.6886957e-12
-0.00017661019
6.7387198e-05
-1.2951976e-12
-0.00019161814
6.2601446e-05
-9.0370134e-13
-0.00020513951
5.6439867e-05
-5.0146693e-13
-0.00021687684
4.8942213e-05
-6.9832697e-14
-0.00022654815
4.0171512e-05
3.9166143e-13
-0.00023389407
3.0225594e-05
8.5086351e-13
-0.0002386865
1.9246652e-05
1.2593606e-12
-0.00024073842
7.4280793e-06
1.5928033e-12
-0.00023991437
-4.9821621e-06
1.8780727e-12
-0.00023614102
-1.7681921e-05
2.180017e-12
-0.00022941747
-3.031892e-05
2.505523e-12
-0.00021982416
-4.2500304e-05
2.7760911e-12
-0.00020752992
-5.3805839e-05
2.8744236e-12
-0.00019279609
-6.3805926e-05
2.7792809e-12
-0.0001759767
-7.2083653e-05
2.6410522e-12
-0.00015751365
-7.826011e-05
2.664839e-12
-0.00013792613
-8.2021669e-05
2.8767249e-12
-0.00011779372
-8.3147451e-05
3.043244e-12
-9.7732944e-05
-8.1534824e-05
2.9246038e-12
-7.8368121e-05
-7.722067e-05
2.6333256e-12
-6.0297873e-05
-7.0396353e-05
2.5930801e-12
-4.4059534e-05
-6.1414952e-05
2.9661342e-12
-3.0094427e-05
-5.0790432e-05
3.2852085e-12
-1.8717252e-05
-3.9189993e-05
3.4969732e-12
-1.0093048e-05
-2.7421705e-05
4.7694859e-12
-4.2253144e-06
-1.6416309e-05
3.6030653e-12
-9.5848708e-07
-7.2065027e-06
-4.6416369e-12
-9.5896842e-07
1.0506947e-11
-2.5450555e-06
8.2035538e-06
-2.2401131e-11
-9.3288478e-06
2.4874412e-05
1.9096294e-11
-1.9615366e-05
4.055926e-05
-3.7708082e-12
-3.2756853e-05
5.4541683e-05
-7.4927281e-12
-4.8175891e-05
6.6451355e-05
-3.810485e-12
-6.5354095e-05
7.6126066e-05
-3.3179289e-12
-8.3822145e-05
8.3545213e-05
-3.459411e-12
-0.00010315063
8.877273e-05
-3.2201825e-12
-0.00012294163
9.191002e-05
-2.9043549e-12
-0.00014282096
9.3063342e-05
-2.595429e-12
-0.00016243135
9.2324638e-05
-2.2588051e-12
-0.00018142688
8.9763725e-05
-1.8857703e-12
-0.00019946925
8.542957e-05
-1.4873469e-12
-0.00021622605
7.9358243e-05
-1.0822212e-12
-0.00023137131
7.1585127e-05
-6.8148893e-13
-0.00024458832
6.2159231e-05
-2.7498736e-13
-0.0002555746
5.1157784e-05
1.6160722e-13
-0.00026404868
3.8699675e-05
6.3799814e-13
-0.00026975868
2.4956654e-05
1.1226285e-12
-0.0002724921
1.01615e-05
1.5505813e-12
-0.00027208668
-5.3875789e-06
1.8742812e-12
-0.00026844173
-2.1326884e-05
2.1328655e-12
-0.00026152975
-3.7230901e-05
2.3942401e-12
-0.0002514074
-5.2622665e-05
2.7018454e-12
-0.00023822498
-6.6988248e-05
2.9816784e-12
-0.00022223363
-7.9797265e-05
3.0841422e-12
-0.00020378863
-9.0528657e-05
2.9538709e-12
-0.00018334762
-9.8701134e-05
2.7499469e-12
-0.00016146242
-0.0001039069
2.7285544e-12
-0.00013876328
-0.00010584659
2.9527949e-12
-0.00011593535
-0.00010436273
3.1686224e-12
-9.3687537e-05
-9.9468461e-05
3.0989016e-12
-7.271543e-05
-9.1368472e-05
2.8626827e-12
-5.3660753e-05
-8.0469657e-05
2.8256402e-12
-3.7071092e-05
-6.7380102e-05
2.9716124e-12
-2.3363944e-05
-5.2897127e-05
3.4716618e-12
-1.2799311e-05
-3.7986334e-05
5.3970174e-12
-5.464878e-06
-2.3750752e-05
3.652716e-12
-1.2772583e-06
-1.1394123e-05
-7.6152181e-12
-2.2362361e-06
1.2910106e-11
-2.9284826e-06
1.1132061e-05
-2.5125843e-11
-1.0673673e-05
3.261958e-05
2.2922345e-11
-2.2336175e-05
5.2221768e-05
-3.4529336e-12
-3.7135977e-05
6.9341493e-05
-7.8446136e-12
-5.4394112e-05
8.3709494e-05
-3.7226392e-12
-7.351763e-05
9.5249587e-05
-3.2735358e-12
-9.3984302e-05
0.00010401189
-3.5371271e-12
-0.00011532796
0.00011011639
-3.3476972e-12
-0.00013712518
0.00011370724
-3.0651291e-12
-0.00015898353
0.0001149217
-2.7947497e-12
-0.00018053178
0.00011387289
-2.5004238e-12
-0.00020141215
0.00011064409
-2.1652977e-12
-0.00022127503
0.00010529246
-1.7848211e-12
-0.00023977618
9.7859396e-05
-1.3672155e-12
-0.00025657638
8.8385324e-05
-9.36386e-13
-0.00027134346
7.6926317e-05
-5.127778e-13
-0.00028375659
6.3570909e-05
-9.1790271e-14
-0.00029351244
4.8455518e-05
3.5763279e-13
-0.00030033323
3.1777441e-05
8.5860909e-13
-0.00030397636
1.3804639e-05
1.3795029e-12
-0.00030424557
-5.118363e-06
1.8339553e-12
-0.00030100297
-2.4569484e-05
2.1808431e-12
-0.00029418252
-4.4051362e-05
2.4134849e-12
-0.00028380326
-6.3001939e-05
2.6343837e-12
-0.00026998222
-8.0809296e-05
2.9227086e-12
-0.00025294549
-9.6833981e-05
3.215319e-12
-0.00023303599
-0.00011043815
3.3355242e-12
-0.000210716
-0.00012102113
3.1904403e-12
-0.00018656267
-0.00012806024
2.9384028e-12
-0.00016125484
-0.00013115445
2.8729626e-12
-0.00013554999
-0.00013006759
3.0819916e-12
-0.00011025148
-0.00012476695
3.3083578e-12
-8.6167377e-05
-0.00011545256
3.2847659e-12
-6.4063733e-05
-0.00010257331
3.0650689e-12
-4.4616677e-05
-8.6827179e-05
2.8163284e-12
-2.8368536e-05
-6.9145273e-05
3.2786161e-12
-1.5693152e-05
-5.0661712e-05
5.8726475e-12
-6.7752191e-06
-3.2668684e-05
3.7406197e-12
-1.6070342e-06
-1.6562301e-05
-1.0574169e-11
-3.8432866e-06
1.5441834e-11
-3.2816999e-06
1.4413789e-05
-2.7711905e-11
-1.1915871e-05
4.1253725e-05
2.6333613e-11
-2.4855512e-05
6.5161413e-05
-3.2665446e-12
-4.1199919e-05
8.5685909e-05
-8.2470505e-12
-6.017631e-05
0.00010268589
-3.6928927e-12
-8.112225e-05
0.00011619553
-3.2664294e-12
-0.00010346631
0.00012635595
-3.6420411e-12
-0.00012670888
0.00013335897
-3.5019507e-12
-0.00015040465
0.00013740301
-3.246036e-12
-0.00017414714
0.0001386642
-2.9981384e-12
-0.00019755594
0.0001372817
-2.7291296e-12
-0.00022026668
0.00013335484
-2.4294903e-12
-0.00024192389
0.00012694966
-2.0895537e-12
-0.00026217668
0.00011811219
-1.6957764e-12
-0.00028067717
0.00010688582
-1.2522094e-12
-0.00029708131
9.3330453e-05
-7.8735983e-13
-0.00031105196
7.7541564e-05
-3.3396272e-13
-0.00032226415
5.9667704e-05
1.0511508e-13
-0.00033041221
3.9925498e-05
5.6654042e-13
-0.00033521898
1.8611406e-05
1.0774257e-12
-0.00033644713
-3.8902063e-06
1.6024155e-12
-0.00033391173
-2.7104879e-05
2.1304916e-12
-0.00032749596
-5.0467128e-05
2.4942721e-12
-0.00031716688
-7.333103e-05
2.7015946e-12
-0.0003029923
-9.4983884e-05
2.8748734e-12
-0.00028515683
-0.00011466946
3.1264424e-12
-0.00026397518
-0.00013161979
3.4130603e-12
-0.00023990062
-0.00014509568
3.5405969e-12
-0.00021352583
-0.00015443502
3.3855986e-12
-0.00018557378
-0.0001591065
3.1024396e-12
-0.00015687659
-0.00015876481
3.0020129e-12
-0.00012834164
-0.0001533019
3.1850894e-12
-0.00010090606
-0.00014288812
3.4119916e-12
-7.5482469e-05
-0.0001279969
3.3508245e-12
-5.2901148e-05
-0.00010940851
2.8873208e-12
-3.385512e-05
-8.8191315e-05
3.156733e-12
-1.8854788e-05
-6.5662049e-05
6.2662186e-12
-8.1982635e-06
-4.3325206e-05
3.7435798e-12
-1.9611618e-06
-2.2799385e-05
-1.3735714e-11
-5.8044687e-06
1.8148291e-11
-3.6023025e-06
1.8016122e-05
-3.0114485e-11
-1.3044872e-05
5.0696265e-05
2.9352731e-11
-2.714929e-05
7.9265834e-05
-3.1861779e-12
-4.490717e-05
0.0001034438
-8.698648e-12
-6.5461505e-05
0.00012324023
-3.7354135e-12
-8.8087232e-05
0.00013882126
-3.3100536e-12
-0.0001121688
0.00015043752
-3.7798831e-12
-0.00013717742
0.0001583676
-3.6919463e-12
-0.00016264988
0.00016287547
-3.4723744e-12
-0.00018816993
0.00016418425
-3.2497719e-12
-0.00021335264
0.00016246441
-2.9944347e-12
-0.00023783203
0.00015783423
-2.7088995e-12
-0.00026125191
0.00015036954
-2.3986726e-12
-0.00028325983
0.00014012011
-2.0489422e-12
-0.00030350382
0.00012712981
-1.637541e-12
-0.00032163166
0.00011145829
-1.1624156e-12
-0.00033729244
9.320235e-05
-6.5522786e-13
-0.00035014038
7.2515643e-05
-1.6203061e-13
-0.00035984079
4.9625906e-05
3.015381e-13
-0.00036607843
2.4849039e-05
7.568097e-13
-0.00036856897
-1.3996715e-06
1.2203927e-12
-0.00036707134
-2.8602503e-05
1.8703769e-12
-0.00036140637
-5.61321e-05
2.4330058e-12
-0.00035147457
-8.3262817e-05
2.8146324e-12
-0.00033727782
-0.00010918064
3.0070169e-12
-0.00031894091
-0.00013300639
3.133218e-12
-0.00029673175
-0.00015382896
3.3362189e-12
-0.00027107727
-0.00017075016
3.5941221e-12
-0.00024257162
-0.00018294065
3.7059162e-12
-0.00021197327
-0.00018970485
3.5336776e-12
-0.00018018759
-0.0001905505
3.2315956e-12
-0.00014823332
-0.00018525619
3.119143e-12
-0.00011719277
-0.00017392868
3.2981907e-12
-8.8148951e-05
-0.0001570407
3.4176695e-12
-6.211538e-05
-0.00013544208
2.9890606e-12
-3.9966491e-05
-0.00011034021
3.1894329e-12
-2.2377614e-05
-8.325094e-05
6.7671374e-12
-9.7826923e-06
-5.592013e-05
3.6994314e-12
-2.3546956e-06
-3.0227361e-05
-1.7277118e-11
-8.1591854e-06
2.1164207e-11
-3.8870499e-06
2.1903206e-05
-3.2305152e-11
-1.4048659e-05
6.0857843e-05
3.1978043e-11
-2.9192053e-05
9.440923e-05
-3.1801151e-12
-4.8215264e-05
0.00012246702
-9.1778068e-12
-7.0187841e-05
0.00014521281
-3.8552337e-12
-9.433006e-05
0.00016296348
-3.41873e-12
-0.00011998821
0.00017609568
-3.956403e-12
-0.00014660908
0.00018498847
-3.9094739e-12
-0.00017371588
0.00018998228
-3.731177e-12
-0.00020088685
0.00019135523
-3.5485502e-12
-0.00022773708
0.00018931464
-3.3183228e-12
-0.0002539038
0.00018400096
-3.0399682e-12
-0.00027903519
0.00017550094
-2.7332533e-12
-0.00030278231
0.00016386724
-2.406044e-12
-0.00032479396
0.00014914146
-2.0416951e-12
-0.00034471404
0.00013137837
-1.609534e-12
-0.00036218126
0.00011066957
-1.098222e-12
-0.00037683113
8.7165524e-05
-5.418818e-13
-0.00038830041
6.1095191e-05
-1.3839012e-15
-0.00039623427
3.2782895e-05
5.0452494e-13
-0.00040029638
2.6624342e-06
1.0329256e-12
-0.00040018388
-2.8715012e-05
1.5371448e-12
-0.00039564405
-6.0671927e-05
2.1438843e-12
-0.00038649735
-9.240951e-05
2.7308139e-12
-0.00037266262
-0.00012301537
3.140307e-12
-0.00035418496
-0.00015148405
3.3254595e-12
-0.00033126379
-0.00017675014
3.4094387e-12
-0.00030427784
-0.00019773613
3.5558696e-12
-0.00027380299
-0.0002134155
3.7585504e-12
-0.0002406183
-0.00022288954
3.8204433e-12
-0.00020569518
-0.0002254736
3.6127409e-12
-0.00017016638
-0.00022078501
3.3136025e-12
-0.00013527318
-0.0002088219
3.2414047e-12
-0.00010229333
-0.00019002056
3.3052135e-12
-7.2455932e-05
-0.00016527946
2.9226959e-12
-4.6853291e-05
-0.00013594285
3.2399553e-12
-2.6361364e-05
-0.00010374288
7.4476927e-12
-1.1580443e-05
-7.0701058e-05
3.7096849e-12
-2.8033154e-06
-3.9004467e-05
-2.1298124e-11
-1.0962524e-05
2.4594629e-11
-4.132117e-06
2.6035357e-05
-3.4251902e-11
-1.4914096e-05
7.1639789e-05
3.4181871e-11
-3.095713e-05
0.00011045227
-3.2281455e-12
-5.1080654e-05
0.00014259055
-9.6501595e-12
-7.4292273e-05
0.00016842443
-4.0329604e-12
-9.9766125e-05
0.00018843734
-3.5926321e-12
-0.00012681669
0.00020314625
-4.1805201e-12
-0.0001548713
0.00021304309
-4.1556663e-12
-0.00018344394
0.00021855491
-4.0061247e-12
-0.0002121115
0.00022002279
-3.8654743e-12
-0.00024049344
0.00021769659
-3.6784447e-12
-0.00026823493
0.00021174245
-3.4278035e-12
-0.00029499352
0.00020225953
-3.1243141e-12
-0.00032042905
0.00018930278
-2.7897515e-12
-0.0003441964
0.00017290882
-2.4384363e-12
-0.00036594074
0.00015312271
-2.054825e-12
-0.00038529505
0.00013002388
-1.5996222e-12
-0.00040188001
0.00010375049
-1.0514476e-12
-0.00041530644
7.4521621e-05
-4.4335177e-13
-0.00042518077
4.265723e-05
1.6959578e-13
-0.00043111396
8.5956299e-06
7.6589718e-13
-0.00043273622
-2.7092762e-05
1.2269169e-12
-0.00042971416
-6.3693992e-05
1.7755651e-12
-0.00042177618
-0.0001003475
2.415719e-12
-0.00040874172
-0.00013604983
3.0342017e-12
-0.00039055538
-0.00016967038
3.465059e-12
-0.00036732349
-0.00019998202
3.6424806e-12
-0.0003393498
-0.00022570984
3.6852042e-12
-0.00030716537
-0.00024559994
3.7637969e-12
-0.00027154683
-0.00025850808
3.8787012e-12
-0.000233516
-0.00026350442
3.8516401e-12
-0.00019431497
-0.00025998603
3.6115917e-12
-0.00015535291
-0.00024778397
3.3792116e-12
-0.00011812527
-0.00022724821
3.2300315e-12
-8.4111832e-05
-0.0001992929
2.7143312e-12
-5.466548e-05
-0.0001653892
3.178552e-12
-3.090734e-05
-0.00012750102
8.2471419e-12
-1.3644697e-05
-8.7963705e-05
3.804722e-12
-3.3229929e-06
-4.9326147e-05
-2.5879129e-11
-1.4285544e-05
2.8567815e-11
-4.3334547e-06
3.0368847e-05
-3.5908612e-11
-1.5627794e-05
8.2934094e-05
3.592901e-11
-3.241791e-05
0.00012724239
-3.3297073e-12
-5.3460307e-05
0.00016363296
-1.0093486e-11
-7.771246e-05
0.00019267659
-4.241211e-12
-0.000104311
0.00021503589
-3.8131941e-12
-0.00013254491
0.00023138016
-4.4513004e-12
-0.00016182693
0.00024232511
-4.4413643e-12
-0.00019166588
0.00024839386
-4.3039295e-12
-0.00022164124
0.00024999816
-4.1876751e-12
-0.00025138097
0.00024743632
-4.0404206e-12
-0.00028054264
0.00024090413
-3.8370839e-12
-0.00030879822
0.0002305151
-3.5667229e-12
-0.00033582178
0.00021632634
-3.2335284e-12
-0.00036128018
0.00019836722
-2.863645e-12
-0.00038482595
0.00017666849
-2.4807138e-12
-0.00040609255
0.00015129048
-2.0723307e-12
-0.00042469178
0.00012234972
-1.5924019e-12
-0.00044021385
9.0043686e-05
-1.0064583e-12
-0.00045223065
5.4674033e-05
-3.3428473e-13
-0.00046030303
1.6668018e-05
3.5086554e-13
-0.00046399357
-2.3402221e-05
9.3186916e-13
-0.00046288448
-6.4803084e-05
1.475878e-12
-0.00045660341
-0.00010662858
2.0606426e-12
-0.00044485609
-0.00014779715
2.7186569e-12
-0.00042746613
-0.00018706034
3.3519809e-12
-0.00040442021
-0.00022302793
3.785172e-12
-0.0003759156
-0.00025421446
3.9410333e-12
-0.00034240457
-0.00027911098
3.9318747e-12
-0.00030462862
-0.00029628404
3.9196892e-12
-0.00026363338
-0.00030449967
3.9071652e-12
-0.00022075512
-0.00030286428
3.7837379e-12
-0.00017757163
-0.00029096747
3.5788055e-12
-0.00013581501
-0.00026900484
3.279468e-12
-9.7251934e-05
-0.00023785599
2.5053119e-12
-6.3544841e-05
-0.0001990963
3.0236066e-12
-3.6114691e-05
-0.00015493118
9.1117921e-12
-1.6028558e-05
-0.00010804984
3.9382763e-12
-3.9298359e-06
-6.1424838e-05
-3.1146761e-11
-1.8215413e-05
3.3225726e-11
-4.487224e-06
3.4856108e-05
-3.7225531e-11
-1.6177325e-05
9.4624158e-05
3.7200083e-11
-3.3549901e-05
0.00014461497
-3.4872634e-12
-5.5314556e-05
0.00018539763
-1.0504572e-11
-8.0390369e-05
0.00021775241
-4.4665976e-12
-0.0001078848
0.00024253033
-4.0565274e-12
-0.00013706725
0.00026056262
-4.7490147e-12
-0.00016734027
0.00027259814
-4.7629933e-12
-0.0001982112
0.00027926479
-4.6364874e-12
-0.00022926561
0.00028105258
-4.5281534e-12
-0.00026014367
0.00027831438
-4.3962858e-12
-0.00029051966
0.00027128013
-4.2280581e-12
-0.00032008483
0.00026008027
-4.0087412e-12
-0.00034853318
0.0002447747
-3.7153901e-12
-0.00037554993
0.00022538398
-3.3467927e-12
-0.00040080218
0.00020192074
-2.9343541e-12
-0.0004239316
0.0001744199
-2.5115524e-12
-0.0004445493
0.00014296742
-2.0711091e-12
-0.00046223322
0.0001077276
-1.5601036e-12
-0.00047652863
6.8969441e-05
-9.291319e-13
-0.00048695288
2.7092273e-05
-1.9695886e-13
-0.00049300564
-1.7349455e-05
5.3405257e-13
-0.00049418563
-6.3623086e-05
1.1937565e-12
-0.00049001582
-0.00011079839
1.7897776e-12
-0.00048007775
-0.00015773524
2.4013523e-12
-0.00046405567
-0.00020308243
3.06716e-12
-0.00044178975
-0.00024529384
3.6890742e-12
-0.00041333574
-0.00028266846
4.0909342e-12
-0.00037902595
-0.00031342077
4.1957775e-12
-0.00033952333
-0.00033578667
4.105291e-12
-0.00029585752
-0.0003481655
3.9629084e-12
-0.00024942979
-0.00034929201
3.8153598e-12
-0.00020197496
-0.0003384223
3.6709692e-12
-0.00015547283
-0.00031550697
3.3449353e-12
-0.00011201159
-0.00028131724
2.3347485e-12
-7.3617497e-05
-0.0002374904
2.8576493e-12
-4.2077004e-05
-0.00018647168
1.0080191e-11
-1.8784003e-05
-0.00013134284
4.0763603e-12
-4.6400101e-06
-7.5568792e-05
-3.7263524e-11
-2.2855462e-05
3.8691991e-11
-4.5902832e-06
3.944643e-05
-3.8170974e-11
-1.655269e-05
0.00010658653
3.7993279e-11
-3.4333351e-05
0.00016239563
-3.6886155e-12
-5.661089e-05
0.00020767518
-1.0883701e-11
-8.2277188e-05
0.00024341871
-4.7146442e-12
-0.00011041819
0.00027067133
-4.3149228e-12
-0.00014028892
0.00029043335
-5.0524177e-12
-0.00017128552
0.00030359474
-5.0984795e-12
-0.00020291689
0.00031089617
-4.9950504e-12
-0.00023477769
0.00031291339
-4.8979012e-12
-0.00026652359
0.00031006028
-4.7652595e-12
-0.00029784946
0.00030260601
-4.5992553e-12
-0.00032847061
0.00029070142
-4.4063582e-12
-0.00035810672
0.00027441081
-4.1649003e-12
-0.00038646825
0.00025374552
-3.8421157e-12
-0.00041324486
0.00022869735
-3.4320496e-12
-0.00043809568
0.00019927073
-2.96988e-12
-0.00046064152
0.00016551327
-2.4979414e-12
-0.00048045932
0.0001275454
-2.0143157e-12
-0.00049707946
8.5589581e-05
-1.461639e-12
-0.0005099872
4.0000007e-05
-7.8377116e-13
-0.00051862939
-8.7072651e-06
2.8186661e-15
-0.00052242834
-5.9824127e-05
8.0192186e-13
-0.00052080462
-0.00011242211
1.5295058e-12
-0.0005132109
-0.00016532897
2.1778946e-12
-0.00049917822
-0.00021711511
2.8142114e-12
-0.0004783755
-0.00026609658
3.4675195e-12
-0.00045068059
-0.00031036336
4.037906e-12
-0.00041625891
-0.00034784246
4.3592177e-12
-0.00037564086
-0.00037640472
4.3622502e-12
-0.00032978532
-0.00039402104
4.1373982e-12
-0.0002801119
-0.00039896543
3.8543266e-12
-0.00022848373
-0.00039005048
3.6572596e-12
-0.00017712616
-0.00036686453
3.306444e-12
-0.00012847765
-0.00032996575
2.1086903e-12
-8.4985584e-05
-0.00028098247
2.6839416e-12
-4.8878641e-05
-0.00022257864
1.1217294e-11
-2.1960825e-05
-0.00015826066
4.2360569e-12
-5.4696778e-06
-9.2059893e-05
-4.4374646e-11
-2.8325184e-05
4.5076849e-11
-4.6407194e-06
4.4087189e-05
-3.8739774e-11
-1.6747989e-05
0.00011869376
3.8308549e-11
-3.4756315e-05
0.00018040396
-3.9109386e-12
-5.7328467e-05
0.00023024734
-1.1218534e-11
-8.333927e-05
0.00026942952
-4.9923578e-12
-0.00011185972
0.00029919179
-4.5990886e-12
-0.00014213476
0.00032070839
-5.3607249e-12
-0.00017355703
0.00033501702
-5.431243e-12
-0.00020563945
0.00034297859
-5.3550817e-12
-0.00023798811
0.00034526206
-5.2812527e-12
-0.00027027702
0.0003423492
-5.1556811e-12
-0.0003022252
0.0003345542
-4.9762728e-12
-0.00033357653
0.00032205276
-4.7674975e-12
-0.00036408207
0.00030491636
-4.5380275e-12
-0.00039348459
0.00028314805
-4.2625909e-12
-0.00042150501
0.00025671777
-3.9009317e-12
-0.00044783033
0.00022559604
-3.4419393e-12
-0.00047210323
0.00018978618
-2.9223149e-12
-0.00049391354
0.00014935571
-2.3909197e-12
-0.00051279208
0.00010446813
-1.85072e-12
-0.00052820808
5.5416006e-05
-1.2448696e-12
-0.0005395714
2.656051e-06
-5.1082534e-13
-0.00054624184
-5.3153691e-05
3.2220427e-13
-0.00054754741
-0.00011111653
1.1834851e-12
-0.000542815
-0.00017006138
1.973599e-12
-0.0005314158
-0.00022851431
2.6678715e-12
-0.00051282804
-0.00028468434
3.3112879e-12
-0.00048671737
-0.00033647404
3.9138027e-12
-0.00045303246
-0.00038152737
4.3737476e-12
-0.00041210823
-0.00041732895
4.5417829e-12
-0.00036476274
-0.00044136654
4.3655137e-12
-0.00031236681
-0.00045136137
3.9829774e-12
-0.00025686081
-0.00044555649
3.6489868e-12
-0.0002006938
-0.00042303154
3.1720186e-12
-0.00014667113
-0.00038398842
1.738539e-12
-9.7717406e-05
-0.0003299362
2.4234418e-12
-5.6590333e-05
-0.00026370572
1.2530789e-11
-2.5605328e-05
-0.00018924567
4.4409749e-12
-6.4348946e-06
-0.00011123027