/*--------------------------------*- C++ -*----------------------------------*\
  =========                 |
  \\      /  F ield         | OpenFOAM: The Open Source CFD Toolbox
   \\    /   O peration     | Website:  https://openfoam.org
    \\  /    A nd           | Version:  7
     \\/     M anipulation  |
\*---------------------------------------------------------------------------*/
FoamFile
{
    version     2.0;
    format      ascii;
    class       volVectorField;
    location    "42";
    object      U;
}
// * * * * * * * * * * * * * * * * * * * * * * * * * * * * * * * * * * * * * //

dimensions      [0 1 -1 0 0 0 0];

internalField   nonuniform List<vector> 
16000
(
(6.6052643e-05 -6.732454e-05 -4.0476476e-07)
(0.00016276746 -5.6349987e-05 5.6985239e-06)
(0.00014193135 4.6605108e-07 1.9198709e-05)
(-5.0612521e-05 6.1892671e-05 3.6621298e-05)
(-0.00040996719 0.00011563202 5.4729954e-05)
(-0.00090902228 0.00015774423 7.1558414e-05)
(-0.0015177092 0.00018850497 8.5770582e-05)
(-0.0022068849 0.00020960933 9.6551283e-05)
(-0.0029506009 0.00022287708 0.0001034402)
(-0.0037264646 0.00022981133 0.00010619044)
(-0.0045150505 0.00023147714 0.00010467477)
(-0.0052990134 0.00022850385 9.8830155e-05)
(-0.0060621935 0.00022114732 8.8631896e-05)
(-0.0067888646 0.00020938314 7.4090545e-05)
(-0.0074632166 0.00019301398 5.5264877e-05)
(-0.0080691175 0.00017178087 3.2285148e-05)
(-0.0085901699 0.00014547169 5.3812834e-06)
(-0.0090100499 0.00011402161 -2.5088841e-05)
(-0.0093131027 7.7601122e-05 -5.8615388e-05)
(-0.0094851492 3.6687663e-05 -9.4520692e-05)
(-0.0095144491 -7.8854569e-06 -0.00013195506)
(-0.0093927301 -5.4923034e-05 -0.00016990722)
(-0.0091162235 -0.00010284336 -0.0002072307)
(-0.0086866016 -0.00014975054 -0.00024268773)
(-0.0081116923 -0.00019351348 -0.00027500871)
(-0.0074058977 -0.00023188606 -0.00030296493)
(-0.0065902232 -0.00026265847 -0.00032544993)
(-0.0056918548 -0.00028382449 -0.00034156347)
(-0.0047432581 -0.00029374848 -0.00035069094)
(-0.0037808148 -0.00029131568 -0.00035257088)
(-0.0028430639 -0.00027605042 -0.0003473435)
(-0.0019686577 -0.00024818739 -0.00033557595)
(-0.0011941499 -0.00020869123 -0.00031826356)
(-0.0005516652 -0.00015925698 -0.0002968105)
(-6.6497964e-05 -0.00010241074 -0.00027298569)
(0.00024492772 -4.1764029e-05 -0.00024884715)
(0.0003789354 1.7846576e-05 -0.00022677768)
(0.00034976796 6.708406e-05 -0.00020921374)
(0.00020617208 8.9874219e-05 -0.00019882621)
(5.7460773e-05 5.7419033e-05 -0.00018438219)
(5.8008634e-05 -0.00016701561 -6.632547e-06)
(4.0895035e-05 -3.9945391e-05 -3.7741167e-07)
(-0.00029496342 0.00024857417 1.12562e-05)
(-0.0010110167 0.00056213005 2.5622282e-05)
(-0.0020992239 0.00084750092 4.0607317e-05)
(-0.003514086 0.0010831237 5.4615517e-05)
(-0.005194686 0.0012643035 6.6519606e-05)
(-0.007076631 0.0013940696 7.5567261e-05)
(-0.009098153 0.0014779624 8.1276643e-05)
(-0.011202309 0.0015215286 8.3348101e-05)
(-0.013337039 0.0015292122 8.1598355e-05)
(-0.015454182 0.0015039765 7.5917461e-05)
(-0.017508154 0.0014473581 6.6247068e-05)
(-0.01945472 0.0013597789 5.2576393e-05)
(-0.02125016 0.0012410032 3.4951532e-05)
(-0.02285098 0.0010906601 1.3493659e-05)
(-0.02421423 0.00090877633 -1.1578211e-05)
(-0.025298436 0.00069627643 -3.9924064e-05)
(-0.026065058 0.00045541458 -7.1063254e-05)
(-0.026480399 0.00019010717 -0.00010436165)
(-0.026517816 -9.3864004e-05 -0.00013902856)
(-0.026159989 -0.00038877354 -0.00017413252)
(-0.025401171 -0.00068508907 -0.00020861758)
(-0.02424917 -0.00097175933 -0.00024135114)
(-0.022726749 -0.001236696 -0.00027117738)
(-0.020872348 -0.00146743 -0.00029698483)
(-0.018739914 -0.0016519046 -0.00031778163)
(-0.016397722 -0.0017793468 -0.00033277246)
(-0.01392613 -0.0018411432 -0.00034143019)
(-0.011414316 -0.001831638 -0.00034355573)
(-0.0089560917 -0.0017487833 -0.00033931967)
(-0.0066449997 -0.0015945905 -0.00032928098)
(-0.0045689004 -0.001375384 -0.00031438026)
(-0.0028042342 -0.0011019564 -0.0002959088)
(-0.0014100253 -0.00078991988 -0.00027545702)
(-0.00042162456 -0.00046059905 -0.00025483831)
(0.00015578752 -0.00014256985 -0.00023596722)
(0.00035673446 0.0001223206 -0.00022086237)
(0.00027524614 0.00027115225 -0.00021162582)
(9.010809e-05 0.00020511108 -0.00019544123)
(1.9210931e-06 -0.00014895064 -2.0418344e-05)
(-0.0002560414 0.00029703394 -1.1798808e-05)
(-0.0010504435 0.0010236352 9.9562584e-08)
(-0.0023878201 0.0017975472 1.3079725e-05)
(-0.004239439 0.0025099094 2.611601e-05)
(-0.0065455599 0.0031100616 3.8067532e-05)
(-0.0092251233 0.0035809289 4.8107326e-05)
(-0.01219 0.0039234358 5.5674766e-05)
(-0.01535299 0.0041461877 6.0388183e-05)
(-0.018631058 0.0042595933 6.1990859e-05)
(-0.021946082 0.0042728174 6.0309863e-05)
(-0.02522426 0.0041924776 5.522743e-05)
(-0.028394926 0.0040224716 4.6667273e-05)
(-0.031389394 0.0037645255 3.4594284e-05)
(-0.034140224 0.0034191717 1.9024581e-05)
(-0.036581146 0.0029869412 4.2658947e-08)
(-0.038647755 0.0024696077 -2.2177685e-05)
(-0.040278949 0.0018713609 -4.7352007e-05)
(-0.041419059 0.0011998096 -7.506675e-05)
(-0.042020507 0.00046673024 -0.00010476697)
(-0.042046772 -0.00031150029 -0.00013575479)
(-0.041475477 -0.0011138115 -0.00016719512)
(-0.040301324 -0.0019148749 -0.00019814094)
(-0.038538563 -0.0026858603 -0.00022756915)
(-0.036222759 -0.0033956779 -0.00025443144)
(-0.033411586 -0.0040126103 -0.00027771702)
(-0.030184431 -0.0045062529 -0.00029652311)
(-0.026640648 -0.0048496385 -0.00031012712)
(-0.022896388 -0.0050213851 -0.00031805365)
(-0.019080027 -0.0050076828 -0.00032012908)
(-0.015326331 -0.0048039536 -0.00031651763)
(-0.011769567 -0.0044160751 -0.00030773462)
(-0.0085358321 -0.0038611675 -0.00029463398)
(-0.0057348864 -0.0031680992 -0.00027837035)
(-0.0034517168 -0.0023781024 -0.00026033878)
(-0.0017379878 -0.0015461808 -0.00024209443)
(-0.00060367701 -0.00074419622 -0.00022524567)
(-8.0213565e-06 -6.6376577e-05 -0.00021138428)
(0.00015540705 0.00036039048 -0.00020220052)
(7.3545516e-05 0.000354384 -0.00018528696)
(-6.4683088e-05 5.0430481e-05 -3.8670201e-05)
(-0.00060837781 0.0010457703 -2.613069e-05)
(-0.0019305348 0.0023817462 -1.2149349e-05)
(-0.0039464353 0.0037565266 1.1435296e-06)
(-0.0065890146 0.0050153199 1.3731849e-05)
(-0.0097792027 0.0060800679 2.4856184e-05)
(-0.013417133 0.0069205252 3.3979304e-05)
(-0.017395538 0.0075341158 4.0765951e-05)
(-0.021607749 0.0079313981 4.49802e-05)
(-0.025950712 0.0081270417 4.6450192e-05)
(-0.030325869 0.0081347698 4.5045116e-05)
(-0.03463882 0.0079650033 4.0658638e-05)
(-0.038798388 0.0076243765 3.3203707e-05)
(-0.042715709 0.0071165094 2.2618068e-05)
(-0.046303777 0.0064435546 8.8780783e-06)
(-0.049477695 0.005608145 -7.9817427e-06)
(-0.052155752 0.00461545 -2.7846091e-05)
(-0.054261315 0.0034751131 -5.0495954e-05)
(-0.055725444 0.0022028911 -7.5588328e-05)
(-0.056490046 0.00082185319 -0.00010264193)
(-0.056511344 -0.00063696921 -0.00013103209)
(-0.055763446 -0.0021345973 -0.00015999374)
(-0.05424167 -0.0036248156 -0.00018864489)
(-0.051965321 -0.0050556198 -0.00021601863)
(-0.048979669 -0.0063713911 -0.00024111209)
(-0.045356814 -0.0075157179 -0.00026294772)
(-0.041195193 -0.0084347308 -0.00028064306)
(-0.036617534 -0.0090807554 -0.0002934834)
(-0.031767144 -0.0094160299 -0.00030098961)
(-0.026802524 -0.0094161983 -0.00030297312)
(-0.021890425 -0.0090732991 -0.00029957059)
(-0.017197572 -0.0083980406 -0.00029125366)
(-0.012881379 -0.0074213044 -0.00027881176)
(-0.0090800454 -0.0061950321 -0.0002633084)
(-0.0059024829 -0.0047929312 -0.00024601347)
(-0.0034185094 -0.0033118064 -0.00022831798)
(-0.0016495405 -0.0018745241 -0.00021164791)
(-0.00055979501 -0.00063471164 -0.00019739394)
(-5.0107466e-05 0.00021499284 -0.00018679094)
(3.8095437e-05 0.00041383324 -0.00016798418)
(-0.00013086499 0.00044556608 -5.8186429e-05)
(-0.00097094905 0.0022426942 -4.1120669e-05)
(-0.002846211 0.0043591895 -2.4238248e-05)
(-0.005564812 0.0064572175 -9.8058921e-06)
(-0.0090094406 0.0083534784 3.1127204e-06)
(-0.01307546 0.0099514543 1.4092809e-05)
(-0.017642278 0.01121175 2.287138e-05)
(-0.02258468 0.012129586 2.9343625e-05)
(-0.027779633 0.012717527 3.3432379e-05)
(-0.033108113 0.012994148 3.5064818e-05)
(-0.038455495 0.012977368 3.4163645e-05)
(-0.043711128 0.012681217 3.0640434e-05)
(-0.048767519 0.012115131 2.43983e-05)
(-0.053519632 0.01128499 1.534373e-05)
(-0.0578647 0.010195262 3.405404e-06)
(-0.061702793 0.0088517433 -1.1442147e-05)
(-0.064938228 0.0072644413 -2.9152268e-05)
(-0.067481793 0.005450293 -4.9579741e-05)
(-0.069253702 0.003435437 -7.2456849e-05)
(-0.070187075 0.0012568454 -9.7374972e-05)
(-0.070231726 -0.0010368499 -0.00012377485)
(-0.069358017 -0.0033854758 -0.00015094808)
(-0.067560462 -0.005718398 -0.00017805381)
(-0.064860798 -0.0079566885 -0.00020415044)
(-0.061310203 -0.010016303 -0.00022824337)
(-0.05699037 -0.011812188 -0.00024934665)
(-0.052013157 -0.013263139 -0.00026655442)
(-0.046518561 -0.014297148 -0.00027911646)
(-0.040670847 -0.014856896 -0.00028651)
(-0.034652764 -0.014905002 -0.00028849881)
(-0.028657902 -0.014428606 -0.00028517051)
(-0.022881414 -0.01344296 -0.00027694599)
(-0.017509485 -0.011993822 -0.00026455846)
(-0.012708052 -0.010158723 -0.00024900403)
(-0.0086114575 -0.0080475101 -0.00023146651)
(-0.0053117544 -0.0058029617 -0.00021322793)
(-0.0028485293 -0.0036024674 -0.00019560362)
(-0.0012000397 -0.0016605387 -0.00017985766)
(-0.00028880586 -0.00023378235 -0.0001667121)
(-2.4682847e-06 0.0003504632 -0.00014547972)
(-0.00019286469 0.0010313065 -7.6666663e-05)
(-0.0013239861 0.0038925342 -5.4762222e-05)
(-0.003751857 0.0069680006 -3.4557429e-05)
(-0.0071733001 0.0099108206 -1.8463928e-05)
(-0.011414808 0.012527399 -4.6681814e-06)
(-0.016341484 0.014714506 6.6946354e-06)
(-0.021809621 0.016430504 1.5611557e-05)
(-0.02767588 0.017672021 2.219718e-05)
(-0.033802399 0.01845525 2.6529959e-05)
(-0.04005685 0.018803215 2.8636623e-05)
(-0.046311839 0.01873808 2.8494433e-05)
(-0.052444062 0.018277409 2.6032458e-05)
(-0.058333357 0.017433438 2.1141134e-05)
(-0.063862063 0.016214497 1.3690274e-05)
(-0.068914994 0.014627826 3.553347e-06)
(-0.073380204 0.012683111 -9.363809e-06)
(-0.077150615 0.010396211 -2.5091794e-05)
(-0.080126454 0.0077926379 -4.3566253e-05)
(-0.082218394 0.0049104453 -6.4598876e-05)
(-0.083351221 0.001802282 -8.7853764e-05)
(-0.083467826 -0.0014636075 -0.00011283238)
(-0.082533266 -0.0048035782 -0.00013887083)
(-0.080538655 -0.0081200482 -0.00016515153)
(-0.077504586 -0.011304339 -0.00019073311)
(-0.073483762 -0.014240835 -0.00021459757)
(-0.068562535 -0.016812392 -0.00023571362)
(-0.06286101 -0.018906779 -0.00025311195)
(-0.056531405 -0.020423857 -0.00026596596)
(-0.049754415 -0.021283052 -0.00027366986)
(-0.042733395 -0.021430618 -0.00027590466)
(-0.035686351 -0.020846128 -0.00027268207)
(-0.028835915 -0.019547672 -0.00026435795)
(-0.022397714 -0.017595383 -0.00025161136)
(-0.016567765 -0.015093163 -0.00023539066)
(-0.011509861 -0.012188863 -0.00021683007)
(-0.0073438915 -0.0090736801 -0.00019715517)
(-0.0041345372 -0.0059816744 -0.00017764179)
(-0.0018816044 -0.0031890332 -0.00015952556)
(-0.00053619357 -0.00101432 -0.00014313226)
(-4.1244311e-05 0.00015894743 -0.0001190411)
(-0.00025011653 0.0017985705 -9.2153419e-05)
(-0.0016597726 0.0059841411 -6.5262719e-05)
(-0.0046244563 0.010198618 -4.1576296e-05)
(-0.0087321701 0.014107022 -2.3521445e-05)
(-0.013751606 0.017522338 -8.483053e-06)
(-0.019515081 0.020347119 3.6559377e-06)
(-0.025854146 0.022545926 1.310731e-05)
(-0.032607011 0.024122004 2.0187129e-05)
(-0.039621883 0.025098111 2.5117623e-05)
(-0.046755012 0.02550318 2.8017065e-05)
(-0.0538688 0.025364231 2.8911076e-05)
(-0.060830248 0.02470254 2.7740412e-05)
(-0.067509641 0.023533176 2.4376546e-05)
(-0.073779768 0.02186698 1.8645432e-05)
(-0.079515879 0.019714125 1.0357239e-05)
(-0.084596503 0.017088493 -6.5956508e-07)
(-0.08890513 0.014012236 -1.4521466e-05)
(-0.092332706 0.01052001 -3.1252634e-05)
(-0.094780824 0.0066624813 -5.0749787e-05)
(-0.096165469 0.0025088053 -7.2752258e-05)
(-0.096421124 -0.0018521461 -9.6820747e-05)
(-0.095505034 -0.0063119937 -0.00012232926)
(-0.093401439 -0.010744589 -0.00014847126)
(-0.090125484 -0.015009424 -0.00017428686)
(-0.085726505 -0.018956673 -0.00019870877)
(-0.080290341 -0.02243383 -0.00022062764)
(-0.073940284 -0.025293751 -0.00023897247)
(-0.066836247 -0.027403768 -0.00025279895)
(-0.059171761 -0.028655373 -0.00026137667)
(-0.051168507 -0.028973823 -0.00026426488)
(-0.04306824 -0.028326934 -0.00026136612)
(-0.035122189 -0.026732291 -0.0002529483)
(-0.02757834 -0.024262245 -0.00023962898)
(-0.020667354 -0.021046298 -0.00022232117)
(-0.014588354 -0.017270895 -0.00020214227)
(-0.0094958148 -0.013177228 -0.00018031248)
(-0.0054864848 -0.0090579352 -0.00015813629)
(-0.0025879541 -0.0052522176 -0.00013690476)
(-0.00078447206 -0.0021405323 -0.00011662173)
(-7.6874489e-05 -0.00016053802 -8.9417579e-05)
(-0.0003029563 0.0027365294 -0.00010297703)
(-0.0019754991 0.0084981049 -7.1005635e-05)
(-0.0054521418 0.014028581 -4.385775e-05)
(-0.010217974 0.019021396 -2.3713037e-05)
(-0.015985183 0.023311103 -7.2177228e-06)
(-0.022552801 0.026818205 5.9712881e-06)
(-0.029727187 0.02952244 1.6268574e-05)
(-0.037328211 0.031439787 2.4171994e-05)
(-0.045190988 0.032603412 3.0031631e-05)
(-0.053161895 0.033050382 3.4044411e-05)
(-0.061095252 0.032813702 3.6273467e-05)
(-0.068850863 0.031918833 3.6661643e-05)
(-0.076292144 0.030383792 3.505241e-05)
(-0.083284993 0.028221866 3.1218894e-05)
(-0.089697553 0.025446024 2.4898763e-05)
(-0.095400893 0.022074174 1.5833581e-05)
(-0.10027058 0.018134572 3.8112062e-06)
(-0.10418904 0.013670805 -1.1290715e-05)
(-0.10704872 0.00874593 -2.946278e-05)
(-0.10875573 0.0034454458 -5.0526607e-05)
(-0.10923405 -0.0021211666 -7.4106224e-05)
(-0.10842999 -0.0078205222 -9.9613742e-05)
(-0.10631684 -0.01349715 -0.00012624845)
(-0.10289945 -0.018977286 -0.00015302051)
(-0.09821843 -0.024074607 -0.00017879423)
(-0.092353559 -0.028597968 -0.00020235448)
(-0.085426034 -0.03236099 -0.00022249232)
(-0.077598901 -0.035193198 -0.00023810264)
(-0.069075173 -0.036952159 -0.00024828379)
(-0.060093128 -0.037535847 -0.00025242719)
(-0.050918477 -0.03689426 -0.00025028491)
(-0.041833355 -0.035039225 -0.00024200449)
(-0.03312248 -0.032051391 -0.00022812381)
(-0.025057302 -0.028083649 -0.00020952215)
(-0.017879657 -0.023360674 -0.00018732514)
(-0.011786483 -0.018174995 -0.00016279501)
(-0.0069140654 -0.0128804 -0.00013733102)
(-0.0033238356 -0.0078822658 -0.00011235938)
(-0.0010368637 -0.0036261492 -8.7651802e-05)
(-0.00011093613 -0.00060701894 -5.7213103e-05)
(-0.0003516934 0.0038338219 -0.00010767392)
(-0.0022696862 0.011410363 -7.0516842e-05)
(-0.0062274793 0.018427304 -4.0038873e-05)
(-0.011614749 0.024619961 -1.7788363e-05)
(-0.018090317 0.029857565 2.7564092e-07)
(-0.025421023 0.034089883 1.4705017e-05)
(-0.033388717 0.037320718 2.6099275e-05)
(-0.041795673 0.039585252 3.5119236e-05)
(-0.05046497 0.040931445 4.2225929e-05)
(-0.059234591 0.04140724 4.7680149e-05)
(-0.067952675 0.041053186 5.1569566e-05)
(-0.07647404 0.039899668 5.3827555e-05)
(-0.084657597 0.037967842 5.4258942e-05)
(-0.092364714 0.035273272 5.2573713e-05)
(-0.099458591 0.03183129 4.8426568e-05)
(-0.10580463 0.027663183 4.1461174e-05)
(-0.11127169 0.022802464 3.1357981e-05)
(-0.11573423 0.01730063 1.7883889e-05)
(-0.11907517 0.011231986 9.4131266e-07)
(-0.12118942 0.0046971946 -1.9386478e-05)
(-0.12198809 -0.002174712 -4.2798025e-05)
(-0.12140313 -0.0092260712 -6.8751924e-05)
(-0.11939248 -0.016272197 -9.6456092e-05)
(-0.11594549 -0.02310529 -0.000124887)
(-0.11108823 -0.02950058 -0.00015282808)
(-0.10488841 -0.03522494 -0.00017893567)
(-0.097459312 -0.040047915 -0.00020182865)
(-0.088962026 -0.043754928 -0.00022019576)
(-0.079605254 -0.04616212 -0.0002329104)
(-0.069641893 -0.047131958 -0.00023913933)
(-0.059361872 -0.046588355 -0.00023843034)
(-0.049080956 -0.044529872 -0.00023076591)
(-0.039125749 -0.041039503 -0.00021657407)
(-0.029815738 -0.036289766 -0.00019669027)
(-0.021444143 -0.030542382 -0.00017226309)
(-0.014259514 -0.024142635 -0.00014463768)
(-0.0084461234 -0.017509197 -0.00011537188)
(-0.0041057538 -0.011119106 -8.6105985e-05)
(-0.0013000785 -0.0054896957 -5.644648e-05)
(-0.0001446607 -0.0011817409 -2.249537e-05)
(-0.00039639256 0.0050786757 -0.0001049249)
(-0.0025408053 0.01469349 -6.2443752e-05)
(-0.0069442142 0.023357984 -2.8837556e-05)
(-0.012909248 0.030860816 -4.5359692e-06)
(-0.020045659 0.037117356 1.5143802e-05)
(-0.028090313 0.042116913 3.0951054e-05)
(-0.036802158 0.045895793 4.3655942e-05)
(-0.045967208 0.048514824 5.4065301e-05)
(-0.055397848 0.050041368 6.2735005e-05)
(-0.064925217 0.05053731 6.9975065e-05)
(-0.074393076 0.0500526 7.588447e-05)
(-0.083653298 0.04862349 8.0375197e-05)
(-0.092562458 0.046274538 8.3202334e-05)
(-0.10097956 0.04302332 8.4001798e-05)
(-0.10876487 0.038886827 8.233384e-05)
(-0.11577979 0.033888625 7.7731575e-05)
(-0.12188764 0.028066013 6.9753751e-05)
(-0.1269554 0.021476599 5.8040318e-05)
(-0.13085612 0.014203878 4.2368615e-05)
(-0.13347227 0.0063614894 2.2707488e-05)
(-0.13469977 -0.0019040849 -7.353453e-07)
(-0.13445283 -0.010412655 -2.7484323e-05)
(-0.1326696 -0.018951381 -5.6767453e-05)
(-0.12931855 -0.027278408 -8.7533322e-05)
(-0.12440509 -0.035129037 -0.00011847978)
(-0.11797827 -0.042224888 -0.00014811716)
(-0.11013686 -0.048286162 -0.00017486025)
(-0.10103395 -0.0530469 -0.00019714448)
(-0.090879077 -0.056272754 -0.00021355742)
(-0.079936765 -0.05778034 -0.00022297133)
(-0.068520637 -0.057456693 -0.00022465889)
(-0.056982439 -0.055276918 -0.00021837494)
(-0.045695959 -0.051317901 -0.00020439125)
(-0.035036655 -0.045766102 -0.00018347546)
(-0.025358972 -0.03891806 -0.00015680195)
(-0.016973704 -0.03117332 -0.00012583084)
(-0.010123132 -0.02302049 -9.2339048e-05)
(-0.0049573042 -0.015016289 -5.8260311e-05)
(-0.0015839102 -0.0077601725 -2.3088282e-05)
(-0.00018000395 -0.0018919998 1.4775656e-05)
(-0.00043687318 0.0064585703 -9.3527484e-05)
(-0.0027868522 0.018316906 -4.5547555e-05)
(-0.0075959005 0.02877833 -9.0631654e-06)
(-0.014088641 0.037694918 1.7190741e-05)
(-0.021830808 0.045038222 3.8494549e-05)
(-0.03053227 0.050846286 5.5786875e-05)
(-0.03993132 0.055195705 6.999689e-05)
(-0.049799511 0.058179131 8.2062596e-05)
(-0.059940136 0.059887935 9.2620372e-05)
(-0.07017912 0.060401161 0.00010201621)
(-0.080357623 0.059780205 0.00011034834)
(-0.090326509 0.058068289 0.00011749626)
(-0.099942082 0.055293696 0.00012315482)
(-0.10906306 0.051475678 0.00012687512)
(-0.11754872 0.046631959 0.00012811107)
(-0.12525818 0.040786894 0.00012627121)
(-0.13205051 0.033979548 0.00012077568)
(-0.1377859 0.026271126 0.00011111723)
(-0.14232754 0.017751396 9.6924521e-05)
(-0.14554452 0.0085438135 7.8025375e-05)
(-0.14731572 -0.001190857 5.4505695e-05)
(-0.14753462 -0.011252633 2.6743182e-05)
(-0.14611544 -0.021402754 -4.5317462e-06)
(-0.14300051 -0.031366235 -3.8258173e-05)
(-0.13816826 -0.040837692 -7.3054348e-05)
(-0.13164197 -0.049490601 -0.00010727471)
(-0.12349841 -0.056990432 -0.00013910153)
(-0.11387531 -0.063011807 -0.00016666867)
(-0.10297655 -0.067259348 -0.00018821022)
(-0.091073518 -0.06949129 -0.00020222069)
(-0.078501387 -0.069544194 -0.0002076069)
(-0.065648988 -0.06735634 -0.00020380939)
(-0.052942017 -0.062986915 -0.0001908737)
(-0.040820059 -0.056628016 -0.00016945594)
(-0.029709663 -0.048607167 -0.00014074425)
(-0.019996218 -0.039379409 -0.00010633526)
(-0.011992172 -0.029509504 -6.8281184e-05)
(-0.0059060266 -0.01964435 -2.8889881e-05)
(-0.0018995946 -0.010479296 1.2418821e-05)
(-0.00021911032 -0.002750491 5.4756094e-05)
(-0.00047276066 0.0079598542 -7.2390889e-05)
(-0.0030053068 0.022246668 -1.8706511e-05)
(-0.0081754822 0.034640714 2.0370453e-05)
(-0.015139639 0.045066393 4.8451059e-05)
(-0.023425074 0.053560169 7.1366158e-05)
(-0.03271809 0.060216907 9.0236788e-05)
(-0.04273898 0.065160519 0.00010614114)
(-0.053246925 0.068521231 0.00012013545)
(-0.064037882 0.070418882 0.00013292448)
(-0.074934242 0.07095292 0.00014487925)
(-0.085776313 0.07019836 0.00015608727)
(-0.096415828 0.068206614 0.00016638642)
(-0.10671081 0.065010087 0.00017540229)
(-0.11652174 0.06062935 0.00018259148)
(-0.12570895 0.055081782 0.00018728999)
(-0.1341311 0.048390753 0.0001887671)
(-0.14164462 0.040594629 0.00018628534)
(-0.14810402 0.031755109 0.00017916626)
(-0.15336319 0.021964577 0.0001668604)
(-0.15727766 0.011352258 0.00014901868)
(-0.15970803 8.901191e-05 0.00012556155)
(-0.16052492 -0.011609441 9.6749812e-05)
(-0.15961529 -0.023481692 6.3212496e-05)
(-0.15689042 -0.035221786 2.5992173e-05)
(-0.15229557 -0.046484024 -1.3468967e-05)
(-0.14582082 -0.056891696 -5.3371517e-05)
(-0.13751249 -0.066050539 -9.1644134e-05)
(-0.12748404 -0.073567427 -0.00012607187)
(-0.11592514 -0.079074256 -0.00015446184)
(-0.10310687 -0.082256241 -0.00017483399)
(-0.089381225 -0.082882845 -0.00018561677)
(-0.075173045 -0.080838454 -0.00018582096)
(-0.060963179 -0.076149011 -0.00017516402)
(-0.047263094 -0.06900036 -0.00015411773)
(-0.034583092 -0.059744612 -0.00012384995)
(-0.023397397 -0.048892507 -8.6101745e-05)
(-0.014103446 -0.037091898 -4.3252173e-05)
(-0.0069814343 -0.025092622 1.9332188e-06)
(-0.0022590072 -0.013702947 5.0080719e-05)
(-0.00026414631 -0.0037760397 9.7636351e-05)
(-0.00050355112 0.009567443 -4.0545397e-05)
(-0.0031932761 0.026445191 1.9071761e-05)
(-0.0086754052 0.040892104 6.0427589e-05)
(-0.016048495 0.052912591 9.0193191e-05)
(-0.024807366 0.062615423 0.00011469714)
(-0.03461842 0.070159227 0.00013523574)
(-0.045186795 0.07572141 0.00015302703)
(-0.056261504 0.07947501 0.00016923422)
(-0.067632973 0.081572551 0.0001846207)
(-0.079121714 0.082137096 0.00019957435)
(-0.090568873 0.081259519 0.00021416502)
(-0.10182886 0.079000774 0.00022818258)
(-0.11276336 0.075397893 0.00024117682)
(-0.1232367 0.070472449 0.00025250205)
(-0.13311239 0.064240359 0.00026136603)
(-0.14225078 0.056722071 0.00026688438)
(-0.15050761 0.047952512 0.00026814208)
(-0.15773347 0.037990338 0.00026426254)
(-0.16377429 0.026926307 0.00025448369)
(-0.16847278 0.014890606 0.00023823833)
(-0.17167133 0.0020590309 0.00021523625)
(-0.17321661 -0.011342257 0.00018555351)
(-0.17296594 -0.025033764 0.00014967815)
(-0.17079572 -0.038682244 0.00010858105)
(-0.16661244 -0.051903616 6.3725016e-05)
(-0.1603655 -0.064270379 1.7043417e-05)
(-0.15206157 -0.075324609 -2.9131458e-05)
(-0.14177939 -0.084597522 -7.2195397e-05)
(-0.12968349 -0.09163604 -0.00010945248)
(-0.11603436 -0.096035942 -0.00013833853)
(-0.10119274 -0.097479895 -0.00015666783)
(-0.085615079 -0.095777108 -0.00016287304)
(-0.069838048 -0.090899837 -0.00015620189)
(-0.054451424 -0.083010928 -0.00013682891)
(-0.040061187 -0.072476742 -0.00010583457)
(-0.027246487 -0.059861711 -6.5091335e-05)
(-0.016507705 -0.045903616 -1.7349993e-05)
(-0.0082137713 -0.031469867 3.4077625e-05)
(-0.0026743209 -0.017501843 8.9843441e-05)
(-0.00031729619 -0.0049938554 0.00014355989)
(-0.00052868088 0.011264648 2.8391947e-06)
(-0.0033477391 0.030871106 6.8631783e-05)
(-0.0090880528 0.047474054 0.00011192981)
(-0.016801586 0.061164148 0.00014322884)
(-0.025956889 0.0721284 0.00016929518)
(-0.036204181 0.080594913 0.00019159219)
(-0.047236295 0.086799864 0.00021146888)
(-0.058794245 0.090963769 0.00023018569)
(-0.070664657 0.093275768 0.0002485574)
(-0.082667722 0.093885671 0.00026698382)
(-0.094646997 0.092902527 0.00028551364)
(-0.10646128 0.090398323 0.00030388593)
(-0.11797782 0.08641538 0.00032157155)
(-0.1290669 0.080976106 0.00033781767)
(-0.13959748 0.074093915 0.0003516957)
(-0.14943402 0.065784413 0.00036215467)
(-0.15843404 0.056076244 0.00036808235)
(-0.1664467 0.045021275 0.00036837596)
(-0.17331224 0.032704008 0.0003620228)
(-0.17886253 0.019250186 0.00034818974)
(-0.18292318 0.0048345351 0.00032631925)
(-0.18531738 -0.010312572 0.00029623099)
(-0.18587199 -0.025899808 0.00025820668)
(-0.18442619 -0.041572073 0.0002130746)
(-0.18084315 -0.056910851 0.00016225645)
(-0.17502466 -0.071439348 0.00010777617)
(-0.16692827 -0.084633988 5.2212449e-05)
(-0.15658626 -0.095943792 -1.4165626e-06)
(-0.14412461 -0.10481883 -4.9841063e-05)
(-0.12977948 -0.11074796 -8.9794786e-05)
(-0.113908 -0.11330452 -0.00011831907)
(-0.096989367 -0.11219671 -0.00013308322)
(-0.079612825 -0.10731675 -0.0001326761)
(-0.062450283 -0.09878133 -0.00011680997)
(-0.046214682 -0.086954994 -8.6363508e-05)
(-0.031607748 -0.072449907 -4.3294465e-05)
(-0.019254154 -0.056099262 9.2425316e-06)
(-0.0096331387 -0.038903927 6.7295125e-05)
(-0.0031578297 -0.021961654 0.00013152281)
(-0.00038078522 -0.006435593 0.00019254844)
(-0.00054759928 0.013033168 5.8430321e-05)
(-0.0034658581 0.035479374 0.00013064868)
(-0.0094063975 0.054322972 0.00017553378)
(-0.017386396 0.06974529 0.0002082077)
(-0.026854435 0.082015894 0.00023580667)
(-0.037448153 0.091436756 0.00025995132)
(-0.048850775 0.09830715 0.00028211311)
(-0.060797325 0.10289913 0.00030364146)
(-0.07307218 0.10544208 0.0003253981)
(-0.085496594 0.10611561 0.00034779331)
(-0.097917949 0.10504935 0.0003708551)
(-0.11020101 0.10232799 0.00039427316)
(-0.12222042 0.098000032 0.00041744042)
(-0.13385451 0.09208879 0.00043949603)
(-0.14498015 0.084604372 0.00045937052)
(-0.15546858 0.075555809 0.00047583615)
(-0.16518214 0.064962755 0.00048756585)
(-0.17397175 0.052866569 0.00049320328)
(-0.1816753 0.03934076 0.00049144628)
(-0.18811716 0.024500892 0.00048114373)
(-0.19310912 0.0085140091 0.00046140487)
(-0.19645328 -0.0083925673 0.0004317184)
(-0.19794729 -0.025923369 0.00039206974)
(-0.19739265 -0.04370887 0.00034305421)
(-0.1946065 -0.061302523 0.00028596551)
(-0.18943731 -0.078182568 0.00022284544)
(-0.18178454 -0.09376068 0.00015647423)
(-0.17162149 -0.10739972 9.0281704e-05)
(-0.15902009 -0.11844267 2.8164854e-05)
(-0.14417482 -0.12625405 -2.5791815e-05)
(-0.12742191 -0.13027328 -6.7680024e-05)
(-0.1092488 -0.1300771 -9.4182367e-05)
(-0.090288549 -0.12544458 -0.00010298451)
(-0.071294714 -0.11641496 -9.3106252e-05)
(-0.053096439 -0.10332684 -6.5045962e-05)
(-0.036536438 -0.086827872 -2.0750465e-05)
(-0.022388443 -0.067848917 3.6214043e-05)
(-0.011268764 -0.04754043 0.000101158)
(-0.0037218437 -0.027182722 0.00017472883)
(-0.00045691159 -0.0081393822 0.00024442444)
(-0.00055984455 0.014853263 0.00012670824)
(-0.0035453379 0.040221776 0.00020560683)
(-0.0096248091 0.06137078 0.00025171038)
(-0.017792804 0.07857453 0.00028559393)
(-0.027484128 0.092187645 0.00031468845)
(-0.03832716 0.10258895 0.00034076039)
(-0.04999793 0.11014418 0.00036539561)
(-0.062227203 0.11518037 0.00039002628)
(-0.07479841 0.11797048 0.00041555973)
(-0.087535023 0.11872695 0.00044241922)
(-0.10028947 0.11760247 0.00047061691)
(-0.11293389 0.11469633 0.00049979909)
(-0.12535206 0.11006442 0.00052928659)
(-0.13743243 0.10373139 0.00055811445)
(-0.14906227 0.0957036 0.00058507248)
(-0.16012262 0.085982168 0.00060875049)
(-0.17048407 0.074575416 0.00062759267)
(-0.18000324 0.061510787 0.00063996494)
(-0.18852004 0.046846252 0.00064423868)
(-0.19585597 0.030681469 0.0006388927)
(-0.20181373 0.013168866 0.00062263413)
(-0.20617875 -0.0054753461 0.00059453616)
(-0.2087231 -0.024960524 0.0005541863)
(-0.20921262 -0.044912161 0.00050183542)
(-0.20741816 -0.064864857 0.00043853434)
(-0.20313139 -0.084259654 0.0003662359)
(-0.19618606 -0.1024483 0.00028783837)
(-0.18648429 -0.11870744 0.00020714175)
(-0.17402711 -0.13226603 0.00012869044)
(-0.15894668 -0.14234853 5.7485085e-05)
(-0.14153584 -0.14823509 -1.4347139e-06)
(-0.12226912 -0.14933666 -4.3508497e-05)
(-0.1018073 -0.14527869 -6.5214668e-05)
(-0.080978726 -0.13598182 -6.4571645e-05)
(-0.060733907 -0.12172372 -4.1434723e-05)
(-0.042074316 -0.1031659 2.4285185e-06)
(-0.02595048 -0.081333242 6.3075161e-05)
(-0.013148243 -0.057540538 0.00013498815)
(-0.004378598 -0.033279404 0.00021878034)
(-0.00054808344 -0.010149843 0.00029872425)
(-0.00056512258 0.016704136 0.00020794381)
(-0.0035848218 0.045047815 0.00029378198)
(-0.0097399827 0.068546103 0.00034072806)
(-0.018014597 0.087565905 0.00037564735)
(-0.027835516 0.10254742 0.00040618427)
(-0.038824728 0.1139479 0.00043423842)
(-0.050653066 0.12220188 0.00046150295)
(-0.063048418 0.1276943 0.00048948919)
(-0.075794275 0.13074479 0.0005191526)
(-0.088717242 0.13160155 0.00055093631)
(-0.1016758 0.13044302 0.00058484629)
(-0.11455071 0.12738527 0.00062049639)
(-0.12723646 0.12249313 0.00065714618)
(-0.13963366 0.11579342 0.00069373585)
(-0.15164252 0.10728888 0.00072892023)
(-0.16315701 0.0969719 0.00076110677)
(-0.17405977 0.084837732 0.00078850294)
(-0.18421764 0.070897085 0.00080917829)
(-0.19347778 0.055188373 0.00082114577)
(-0.20166471 0.03778998 0.00082246604)
(-0.20857841 0.018832872 0.00081137697)
(-0.21399413 -0.0014862889 0.00078644865)
(-0.21766446 -0.022891662 0.00074676139)
(-0.2193246 -0.045015034 0.00069209315)
(-0.21870194 -0.067384155 0.00062311053)
(-0.21553095 -0.089414512 0.00054153401)
(-0.20957472 -0.11040753 0.00045025068)
(-0.20065358 -0.12955895 0.00035333777)
(-0.1886808 -0.14598189 0.00025595655)
(-0.17370326 -0.15874899 0.00016408187)
(-0.15594313 -0.16695712 8.4049846e-05)
(-0.13583341 -0.1698146 2.1938028e-05)
(-0.11403768 -0.16674579 -1.7164454e-05)
(-0.091443308 -0.15750014 -2.9876466e-05)
(-0.069120482 -0.14224565 -1.5040927e-05)
(-0.04824434 -0.1216226 2.602263e-05)
(-0.029971804 -0.096736575 8.9098136e-05)
(-0.015296622 -0.069077571 0.00016777353)
(-0.005140128 -0.04037899 0.00026260482)
(-0.00065685525 -0.01251807 0.00035459644)
(-0.00056338825 0.018564536 0.00030218184)
(-0.0035843182 0.049906101 0.00039523015)
(-0.009751959 0.075776052 0.00044264359)
(-0.018051163 0.096630833 0.00047841226)
(-0.027905939 0.11299474 0.00051030901)
(-0.038934099 0.12540358 0.00054035318)
(-0.050802754 0.1343622 0.00057034025)
(-0.063237895 0.14031587 0.00060186095)
(-0.076023793 0.14363374 0.00063592603)
(-0.088990874 0.14460281 0.0006730106)
(-0.10200451 0.14343009 0.0007131293)
(-0.11495519 0.14025091 0.00075587973)
(-0.12774955 0.13514102 0.00080047628)
(-0.14030233 0.12813082 0.00084577892)
(-0.15252914 0.11922005 0.0008903191)
(-0.16434008 0.10839231 0.00093232855)
(-0.17563383 0.095628831 0.00096977739)