/*--------------------------------*- C++ -*----------------------------------*\
  =========                 |
  \\      /  F ield         | OpenFOAM: The Open Source CFD Toolbox
   \\    /   O peration     | Website:  https://openfoam.org
    \\  /    A nd           | Version:  7
     \\/     M anipulation  |
\*---------------------------------------------------------------------------*/
FoamFile
{
    version     2.0;
    format      ascii;
    class       volScalarField;
    location    "3.3";
    object      p;
}
// * * * * * * * * * * * * * * * * * * * * * * * * * * * * * * * * * * * * * //

dimensions      [1 -1 -2 0 0 0 0];

internalField   nonuniform List<scalar> 
19968
(
1
1
1
1
1
1
1
1
1
1
1
1
1
1
1
1
1
1
1
1
1
1
1
1
1
1
1
1
1
1
1
1
1
1
1
1
1
1
1
1
1
1
1
1
1
1
1
1
1.09108
6.89301
10.4147
10.4574
10.5073
10.5631
10.624
10.6889
10.754
10.8145
10.868
10.916
10.9623
11.0115
11.0662
11.1243
11.1807
11.2298
11.2705
11.3065
11.3425
11.3823
11.4261
11.4701
11.511
11.5487
11.5843
11.6179
11.6505
11.684
11.7192
11.7559
11.7932
11.8296
11.8628
11.8907
11.9124
11.9286
11.9418
11.9548
11.9698
11.9877
12.0073
12.0266
12.044
12.0581
12.0681
12.0749
1
1
1
1
1
1
1
1
1
1
1
1
1
1
1
1
1
1
1
1
1
1
1
1
1
1
1
1
1
1
1
1
1
1
1
1
1
1
1
1
1
1
1
1
1
1
1
1
1.07321
6.83916
10.3972
10.4592
10.5058
10.5622
10.6228
10.6876
10.7525
10.8127
10.8662
10.9139
10.9599
11.0088
11.0629
11.1202
11.176
11.225
11.2659
11.302
11.3383
11.3779
11.4218
11.4659
11.5076
11.546
11.5822
11.6161
11.6486
11.6815
11.7157
11.7511
11.7873
11.8228
11.8556
11.8837
11.9058
11.9227
11.9362
11.9492
11.9639
11.9814
12.0007
12.0199
12.0372
12.0512
12.0611
12.0678
1
1
1
1
1
1
1
1
1
1
1
1
1
1
1
1
1
1
1
1
1
1
1
1
1
1
1
1
1
1
1
1
1
1
1
1
1
1
1
1
1
1
1
1
1
1
1
1
1.00369
6.65133
10.3886
10.4532
10.4992
10.5585
10.6197
10.6849
10.7494
10.8092
10.8622
10.9095
10.9548
11.003
11.0564
11.1126
11.1676
11.2165
11.2576
11.2941
11.3307
11.37
11.414
11.4582
11.501
11.5407
11.578
11.6124
11.645
11.6772
11.7102
11.744
11.7784
11.8127
11.8448
11.873
11.8959
11.9135
11.9274
11.9401
11.9541
11.9705
11.9889
12.0077
12.0247
12.0384
12.0478
12.0542
1
1
1
1
1
1
1
1
1
1
1
1
1
1
1
1
1
1
1
1
1
1
1
1
1
1
1
1
1
1
1
1
1
1
1
1
1
1
1
1
1
1
1
1
1
1
1
1
1.00004
6.32772
10.3686
10.4435
10.4891
10.5498
10.61
10.6747
10.7384
10.7977
10.8507
10.8979
10.9432
10.9914
11.0445
11.1
11.1543
11.2031
11.2442
11.2809
11.3179
11.357
11.401
11.4453
11.4893
11.5301
11.5686
11.6034
11.6357
11.6671
11.6984
11.7302
11.7627
11.7954
11.8267
11.855
11.8788
11.8977
11.9125
11.9254
11.9387
11.9541
11.9715
11.9895
12.0061
12.0193
12.0282
12.0343
1
1
1
1
1
1
1
1
1
1
1
1
1
1
1
1
1
1
1
1
1
1
1
1
1
1
1
1
1
1
1
1
1
1
1
1
1
1
1
1
1
1
1
1
1
1
1
1
1
5.87069
10.3228
10.4304
10.4779
10.5394
10.5989
10.6637
10.7269
10.7858
10.8385
10.8855
10.93
10.9773
11.0295
11.0837
11.1367
11.1855
11.2269
11.264
11.3013
11.3402
11.3841
11.4282
11.4728
11.5144
11.5535
11.5883
11.6201
11.6504
11.6802
11.7103
11.7413
11.7726
11.8031
11.8313
11.8558
11.8759
11.892
11.9055
11.9183
11.9324
11.9484
11.9652
11.981
11.9937
12.0022
12.0081
1
1
1
1
1
1
1
1
1
1
1
1
1
1
1
1
1
1
1
1
1
1
1
1
1
1
1
1
1
1
1
1
1
1
1
1
1
1
1
1
1
1
1
1
1
1
1
1
1
5.28116
10.2306
10.4164
10.466
10.5267
10.5852
10.6493
10.7116
10.7697
10.8223
10.8693
10.9133
10.9597
11.0109
11.0642
11.1163
11.1655
11.2079
11.2454
11.2831
11.3218
11.3651
11.4089
11.4532
11.495
11.5338
11.568
11.5989
11.6281
11.6567
11.6855
11.715
11.7449
11.7739
11.801
11.8253
11.8459
11.8629
11.8769
11.8893
11.9018
11.9156
11.9303
11.9445
11.9563
11.9642
11.9702
1
1
1
1
1
1
1
1
1
1
1
1
1
1
1
1
1
1
1
1
1
1
1
1
1
1
1
1
1
1
1
1
1
1
1
1
1
1
1
1
1
1
1
1
1
1
1
1
1
4.56181
10.0588
10.3967
10.4463
10.507
10.5657
10.6291
10.6903
10.7476
10.7998
10.8473
10.8913
10.9364
10.9861
11.0381
11.0889
11.1381
11.1812
11.2188
11.2565
11.2946
11.3366
11.3797
11.423
11.4644
11.5024
11.5359
11.5659
11.5943
11.6222
11.6502
11.6788
11.7075
11.7352
11.7611
11.7849
11.806
11.8243
11.8395
11.8524
11.8641
11.8759
11.8882
11.9004
11.9113
11.9191
11.9254
1
1
1
1
1
1
1
1
1
1
1
1
1
1
1
1
1
1
1
1
1
1
1
1
1
1
1
1
1
1
1
1
1
1
1
1
1
1
1
1
1
1
1
1
1
1
1
1
1
3.73639
9.76157
10.3677
10.418
10.48
10.5395
10.6022
10.6629
10.7199
10.7723
10.8206
10.8654
10.9096
10.9573
11.008
11.0576
11.1059
11.1494
11.1862
11.2228
11.2595
11.2989
11.3404
11.3814
11.422
11.459
11.492
11.5213
11.5493
11.5769
11.6045
11.6325
11.6604
11.687
11.7119
11.735
11.7562
11.7753
11.7917
11.8053
11.8163
11.8259
11.8351
11.8443
11.8533
11.8606
11.8666
1
1
1
1
1
1
1
1
1
1
1
1
1
1
1
1
1
1
1
1
1
1
1
1
1
1
1
1
1
1
1
1
1
1
1
1
1
1
1
1
1
1
1
1
1
1
1
1
1
2.8407
9.28271
10.346
10.4041
10.4658
10.5241
10.5853
10.644
10.6984
10.7487
10.7956
10.8401
10.8832
10.9288
10.9775
11.0258
11.0724
11.116
11.1524
11.1873
11.2217
11.2574
11.2963
11.3344
11.3731
11.4083
11.44
11.4674
11.4936
11.5192
11.5448
11.5708
11.5968
11.6217
11.645
11.6669
11.6877
11.7075
11.7255
11.7407
11.7526
11.7617
11.7694
11.7765
11.7842
11.791
11.7966
1
1
1
1
1
1
1
1
1
1
1
1
1
1
1
1
1
1
1
1
1
1
1
1
1
1
1
1
1
1
1
1
1
1
1
1
1
1
1
1
1
1
1
1
1
1
1
1
1
1.94154
8.49185
10.3602
10.3704
10.4341
10.4871
10.5454
10.6039
10.6594
10.7107
10.7581
10.8029
10.8459
10.8902
10.9378
10.9862
11.0318
11.0752
11.1121
11.1455
11.1782
11.2105
11.2466
11.2826
11.3202
11.3541
11.3849
11.4109
11.4351
11.4583
11.4812
11.5043
11.5274
11.5498
11.5707
11.5903
11.6093
11.6277
11.6448
11.6593
11.6699
11.6774
11.6822
11.6856
11.6902
11.6948
11.6983
1
1
1
1
1
1
1
1
1
1
1
1
1
1
1
1
1
1
1
1
1
1
1
1
1
1
1
1
1
1
1
1
1
1
1
1
1
1
1
1
1
1
1
1
1
1
1
1
1
1.16543
7.18689
10.4131
10.404
10.4467
10.4968
10.546
10.5965
10.6458
10.6917
10.7346
10.7759
10.816
10.8555
10.8971
10.9403
10.9814
11.0213
11.0576
11.0877
11.1173
11.1458
11.1772
11.2106
11.2452
11.278
11.3077
11.3327
11.3551
11.3761
11.3964
11.4165
11.4364
11.4555
11.4733
11.4899
11.5058
11.5215
11.5368
11.5505
11.5611
11.569
11.5736
11.5758
11.5781
11.5805
11.5819
1
1
1
1
1
1
1
1
1
1
1
1
1
1
1
1
1
1
1
1
1
1
1
1
1
1
1
1
1
1
1
1
1
1
1
1
1
1
1
1
1
1
1
1
1
1
1
1
1
1.00148
5.39668
10.1278
10.2626
10.3085
10.3709
10.4262
10.4821
10.537
10.588
10.6345
10.6777
10.7189
10.7589
10.7991
10.8415
10.8835
10.923
10.9601
10.9914
11.0204
11.0489
11.0776
11.1091
11.1414
11.174
11.2035
11.2287
11.2505
11.2701
11.2885
11.3061
11.3232
11.3397
11.3552
11.3695
11.3829
11.3956
11.4072
11.4171
11.4236
11.427
11.4257
11.4224
11.4189
11.4164
11.4147
1
1
1
1
1
1
1
1
1
1
1
1
1
1
1
1
1
1
1
1
1
1
1
1
1
1
1
1
1
1
1
1
1
1
1
1
1
1
1
1
1
1
1
1
1
1
1
1
1
1
3.34899
9.46898
10.2143
10.2791
10.3399
10.3888
10.4375
10.4865
10.534
10.5784
10.6196
10.6586
10.6962
10.7325
10.7698
10.8081
10.8444
10.8793
10.9104
10.9373
10.9633
10.9876
11.0134
11.0398
11.068
11.0943
11.117
11.1356
11.1513
11.1652
11.1778
11.1893
11.1997
11.2085
11.2151
11.2194
11.2218
11.2229
11.2233
11.2231
11.2225
11.2213
11.2186
11.216
11.2125
11.2104
1
1
1
1
1
1
1
1
1
1
1
1
1
1
1
1
1
1
1
1
1
1
1
1
1
1
1
1
1
1
1
1
1
1
1
1
1
1
1
1
1
1
1
1
1
1
1
1
1
1
1.56384
7.91379
10.2605
10.2427
10.2931
10.3314
10.3734
10.4164
10.4595
10.5011
10.5402
10.5769
10.6118
10.6445
10.6763
10.7092
10.7416
10.7729
10.8026
10.8277
10.8498
10.8707
10.8901
10.9101
10.931
10.9522
10.9712
10.9864
10.998
11.0066
11.0133
11.0185
11.022
11.0241
11.0237
11.0209
11.0158
11.0095
11.0025
10.9947
10.9839
10.9697
10.9479
10.9211
10.8921
10.8674
1
1
1
1
1
1
1
1
1
1
1
1
1
1
1
1
1
1
1
1
1
1
1
1
1
1
1
1
1
1
1
1
1
1
1
1
1
1
1
1
1
1
1
1
1
1
1
1
1
1
1.00975
5.0611
9.99308
10.1391
10.1832
10.2256
10.2714
10.3164
10.3604
10.4024
10.4413
10.4768
10.5093
10.5391
10.5668
10.594
10.621
10.6476
10.6732
10.6963
10.7153
10.7317
10.7458
10.7585
10.7702
10.7828
10.7952
10.8052
10.8108
10.8128
10.8116
10.8059
10.799
10.7891
10.7749
10.7551
10.7293
10.6976
10.6597
10.616
10.5676
10.5166
10.4718
10.4312
10.4086
10.3965
1
1
1
1
1
1
1
1
1
1
1
1
1
1
1
1
1
1
1
1
1
1
1
1
1
1
1
1
1
1
1
1
1
1
1
1
1
1
1
1
1
1
1
1
1
1
1
1
1
1
1
2.09883
8.48924
10.0828
10.1059
10.1565
10.1987
10.2389
10.278
10.316
10.3517
10.3842
10.413
10.4386
10.4615
10.4825
10.5027
10.5223
10.5412
10.5589
10.5736
10.5846
10.5933
10.5989
10.5997
10.5997
10.6
10.5998
10.5962
10.5882
10.5739
10.5546
10.5313
10.5031
10.4684
10.4256
10.3745
10.3159
10.2511
10.1816
10.1082
10.0331
9.94492
9.8593
9.74502
9.83448
1
1
1
1
1
1
1
1
1
1
1
1
1
1
1
1
1
1
1
1
1
1
1
1
1
1
1
1
1
1
1
1
1
1
1
1
1
1
1
1
1
1
1
1
1
1
1
1
1
1
1
1.03536
5.77694
9.97868
10.0567
10.0894
10.1261
10.1595
10.1924
10.2252
10.2569
10.2862
10.3122
10.3347
10.3543
10.371
10.3854
10.3984
10.4104
10.4213
10.4306
10.4369
10.4405
10.4395
10.4325
10.4215
10.4093
10.3967
10.382
10.3629
10.3369
10.3036
10.2633
10.2154
10.158
10.0888
10.0053
9.90651
9.78745
9.64347
9.45361
9.20138
8.82438
8.26696
7.34647
5.45329
1
1
1
1
1
1
1
1
1
1
1
1
1
1
1
1
1
1
1
1
1
1
1
1
1
1
1
1
1
1
1
1
1
1
1
1
1
1
1
1
1
1
1
1
1
1
1
1
1
1
1
0.999937
3.00748
9.01472
9.96988
9.9972
10.0548
10.0921
10.1237
10.153
10.1814
10.208
10.2316
10.2513
10.2673
10.2803
10.291
10.299
10.3046
10.3089
10.312
10.3133
10.312
10.3065
10.295
10.2762
10.2526
10.2272
10.2002
10.1695
10.132
10.0857
10.0295
9.96275
9.8827
9.78747
9.67097
9.53323
9.36176
9.15407
8.87485
8.51286
7.99339
7.34632
6.11074
4.51006
1
1
1
1
1
1
1
1
1
1
1
1
1
1
1
1
1
1
1
1
1
1
1
1
1
1
1
1
1
1
1
1
1
1
1
1
1
1
1
1
1
1
1
1
1
1
1
1
1
1
1
0.999988
1.13735
7.03482
10.051
10.0157
10.02
10.0429
10.0633
10.0839
10.1049
10.1249
10.143
10.1584
10.1707
10.1804
10.1879
10.1904
10.1899
10.1873
10.1834
10.1781
10.1709
10.1597
10.1436
10.1193
10.0871
10.0498
10.0094
9.96528
9.91487
9.85602
9.78483
9.70109
9.59936
9.47995
9.33357
9.16175
8.95024
8.69392
8.36832
7.94558
7.41948
6.64766
5.64456
4.53809
1
1
1
1
1
1
1
1
1
1
1
1
1
1
1
1
1
1
1
1
1
1
1
1
1
1
1
1
1
1
1
1
1
1
1
1
1
1
1
1
1
1
1
1
1
1
1
1
1
1
1
0.999999
1.00052
3.95631
9.30102
9.84917
9.89706
9.94312
9.96757
9.98705
10.0057
10.0237
10.0402
10.0548
10.066
10.0736
10.0782
10.0773
10.0732
10.066
10.0558
10.0431
10.0286
10.0109
9.9896
9.9614
9.92348
9.87718
9.82382
9.76539
9.70027
9.62801
9.54291
9.44461
9.32573
9.18629
9.01799
8.81971
8.58269
8.29818
7.95359
7.52437
6.99867
6.32065
5.56272
4.72788
1
1
1
1
1
1
1
1
1
1
1
1
1
1
1
1
1
1
1
1
1
1
1
1
1
1
1
1
1
1
1
1
1
1
1
1
1
1
1
1
1
1
1
1
1
1
1
1
1
1
1
1
0.999999
1.38912
7.52545
9.91037
9.85827
9.87674
9.89098
9.90399
9.91786
9.9314
9.94335
9.95384
9.96233
9.96779
9.96867
9.96498
9.95744
9.94526
9.92913
9.90976
9.88796
9.86312
9.83459
9.80063
9.75793
9.70583
9.64319
9.5726
9.49342
9.40703
9.30909
9.19827
9.06796
8.9154
8.73495
8.52258
8.27399
7.9801
7.64017
7.22237
6.74467
6.19263
5.58961
4.93978
1
1
1
1
1
1
1
1
1
1
1
1
1
1
1
1
1
1
1
1
1
1
1
1
1
1
1
1
1
1
1
1
1
1
1
1
1
1
1
1
1
1
1
1
1
1
1
1
1
1
1
1
1
1.00471
4.23751
9.25948
9.71422
9.74948
9.78365
9.80715
9.82238
9.83372
9.8429
9.8509
9.85791
9.86169
9.85936
9.85144
9.83901
9.82212
9.80122
9.77641
9.74766
9.71495
9.67828
9.63754
9.58967
9.53318
9.46455
9.38557
9.2957
9.19701
9.08767
8.96596
8.82763
8.66835
8.48375
8.26907
8.02186
7.73346
7.4062
7.02301
6.6057
6.13819
5.65336
5.11976
1
1
1
1
1
1
1
1
1
1
1
1
1
1
1
1
1
1
1
1
1
1
1
1
1
1
1
1
1
1
1
1
1
1
1
1
1
1
1
1
1
1
1
1
1
1
1
1
1
1
1
1
1
0.999996
1.34873
7.39259
9.79704
9.73487
9.72933
9.73704
9.74227
9.74681
9.75021
9.75227
9.75296
9.75203
9.74628
9.73534
9.72002
9.69973
9.67486
9.64555
9.61125
9.57326
9.53102
9.48423
9.43067
9.3691
9.29583
9.21185
9.11576
9.00899
8.8907
8.76
8.61487
8.45176
8.26731
8.05692
7.82092
7.54514
7.24187
6.89726
6.53369
6.13325
5.71821
5.27887
1
1
1
1
1
1
1
1
1
1
1
1
1
1
1
1
1
1
1
1
1
1
1
1
1
1
1
1
1
1
1
1
1
1
1
1
1
1
1
1
1
1
1
1
1
1
1
1
1
1
1
1
1
0.999999
1.00369
3.85573
9.06139
9.54468
9.59572
9.62096
9.63207
9.63858
9.64045
9.64062
9.63882
9.6363
9.63019
9.61769
9.59967
9.57529
9.54542
9.5117
9.47286
9.43119
9.38432
9.33126
9.27101
9.20318
9.12523
9.03827
8.9399
8.83036
8.70821
8.57298
8.42413
8.25956
8.07781
7.87441
7.65363
7.39547
7.12035
6.81315
6.49628
6.14237
5.78601
5.40625
1
1
1
1
1
1
1
1
1
1
1
1
1
1
1
1
1
1
1
1
1
1
1
1
1
1
1
1
1
1
1
1
1
1
1
1
1
1
1
1
1
1
1
1
1
1
1
1
1
1
1
1
1
1
0.999998
1.22137
6.58312
9.57359
9.53965
9.53891
9.5463
9.55169
9.55203
9.54931
9.54273
9.53432
9.52337
9.50738
9.48613
9.45871
9.42568
9.38851
9.34611
9.30071
9.24993
9.19259
9.12693
9.0534
8.97098
8.88108
8.78142
8.67152
8.54907
8.41308
8.26377
8.09904
7.92109
7.72245
7.51366
7.27459
7.02614
6.75155
6.47416
6.15944
5.84826
5.51513
1
1
1
1
1
1
1
1
1
1
1
1
1
1
1
1
1
1
1
1
1
1
1
1
1
1
1
1
1
1
1
1
1
1
1
1
1
1
1
1
1
1
1
1
1
1
1
1
1
1
1
1
1
1
1
1.00146
2.64379
8.44124
9.40056
9.41833
9.43875
9.44984
9.45061
9.44597
9.43585
9.42335
9.40847
9.39
9.36581
9.33641
9.30164
9.2622
9.21747
9.16879
9.11408
9.05304
8.98333
8.90545
8.81951
8.72731
8.62699
8.51778
8.39778
8.26479
8.12044
7.95911
7.78889
7.59399
7.39441
7.17482
6.94752
6.70078
6.45416
6.1716
5.8993
5.60242
1
1
1
1
1
1
1
1
1
1
1
1
1
1
1
1
1
1
1
1
1
1
1
1
1
1
1
1
1
1
1
1
1
1
1
1
1
1
1
1
1
1
1
1
1
1
1
1
1
1
1
1
1
1
1
1
1.07648
4.97281
9.17044
9.37957
9.39334
9.39547
9.38851
9.37728
9.36153
9.34277
9.32053
9.29566
9.26541
9.23193
9.19508
9.15408
9.10709
9.0546
8.9948
8.92887
8.85595
8.77645
8.68862
8.59411
8.49237
8.38273
8.26458
8.13497
7.99768
7.84033
7.67669
7.49097
7.29965
7.09836
6.88553
6.66083
6.43544
6.1829
5.94115
5.67351
1
1
1
1
1
1
1
1
1
1
1
1
1
1
1
1
1
1
1
1
1
1
1
1
1
1
1
1
1
1
1
1
1
1
1
1
1
1
1
1
1
1
1
1
1
1
1
1
1
1
1
1
1
1
1
1
1.0002
1.41363
7.02319
9.38344
9.35488
9.32817
9.30332
9.2859
9.26594
9.24328
9.21722
9.18831
9.15423
9.11847
9.08001
9.03771
8.98956
8.93526
8.87261
8.80413
8.72996
8.64998
8.56305
8.46874
8.36694
8.25818
8.1419
8.01622
7.88356
7.73249
7.57636
7.40552
7.22335
7.03805
6.83781
6.63198
6.42024
6.19512
5.97258
5.7328
1
1
1
1
1
1
1
1
1
1
1
1
1
1
1
1
1
1
1
1
1
1
1
1
1
1
1
1
1
1
1
1
1
1
1
1
1
1
1
1
1
1
1
1
1
1
1
1
1
1
1
1
1
1
1
1
1
1.00505
2.95362
8.47721
9.19597
9.16091
9.16134
9.15649
9.14492
9.12871
9.1072
9.0814
9.04875
9.01361
8.97388
8.93005
8.8803
8.8249
8.76139
8.69222
8.61767
8.53801
8.45244
8.35889
8.25818
8.15084
8.03664
7.91335
7.78277
7.63942
7.48999
7.33169
7.16062
6.98934
6.8031
6.61352
6.41319
6.2105
6.00163
5.78739
1
1
1
1
1
1
1
1
1
1
1
1
1
1
1
1
1
1
1
1
1
1
1
1
1
1
1
1
1
1
1
1
1
1
1
1
1
1
1
1
1
1
1
1
1
1
1
1
1
1
1
1
1
1
1
1
1
1
1.10243
4.73226
8.93314
9.07659
9.0876
9.09363
9.08101
9.06185
9.03439
9.00211
8.96431
8.92451
8.87984
8.83192
8.77877
8.72114
8.65739
8.58889
8.51406
8.43466
8.34944
8.25726
8.15778
8.05243
7.94144
7.82058
7.69387
7.55711
7.41487
7.26633
7.10776
6.94771
6.77537
6.59904
6.41108
6.22475
6.02921
5.837
1
1
1
1
1
1
1
1
1
1
1
1
1
1
1
1
1
1
1
1
1
1
1
1
1
1
1
1
1
1
1
1
1
1
1
1
1
1
1
1
1
1
1
1
1
1
1
1
1
1
1
1
1
1
1
1
1
1
1.00041
1.36079
6.00935
8.95946
9.07109
9.04079
9.02757
9.00374
8.96853
8.92931
8.88494
8.8392
8.79014
8.73873
8.68301
8.62338
8.55781
8.48915
8.41577
8.33692
8.25351
8.16366
8.06714
7.9644
7.85574
7.73866
7.61628
7.48523
7.35065
7.20982
7.0628
6.91118
6.7512
6.58529
6.41097
6.2372
6.05604
5.88018
1
1
1
1
1
1
1
1
1
1
1
1
1
1
1
1
1
1
1
1
1
1
1
1
1
1
1
1
1
1
1
1
1
1
1
1
1
1
1
1
1
1
1
1
1
1
1
1
1
1
1
1
1
1
1
1
1
1
1
1.00395
1.73397
7.35278
9.09348
9.02342
8.97482
8.9254
8.87766
8.83253
8.78683
8.74094
8.69342
8.64345
8.58927
8.531
8.46733
8.39928
8.32725
8.25148
8.16776
8.08051
7.98534
7.88558
7.77968
7.66675
7.54898
7.42381
7.29621
7.16253
7.02497
6.87999
6.72931
6.57139
6.41102
6.24768
6.08058
5.91572
1
1
1
1
1
1
1
1
1
1
1
1
1
1
1
1
1
1
1
1
1
1
1
1
1
1
1
1
1
1
1
1
1
1
1
1
1
1
1
1
1
1
1
1
1
1
1
1
1
1
1
1
1
1
1
1
1
1
1
1.00001
1.01538
3.07637
8.26283
8.87749
8.81425
8.77634
8.74231
8.71061
8.67557
8.63826
8.59669
8.55115
8.50022
8.44411
8.38233
8.31496
8.24261
8.1676
8.08724
8.00153
7.90991
7.81309
7.71019
7.60077
7.48658
7.36763
7.24608
7.12008
6.99025
6.85226
6.70906
6.55974
6.41092
6.25673
6.10156
5.94518
1
1
1
1
1
1
1
1
1
1
1
1
1
1
1
1
1
1
1
1
1
1
1
1
1
1
1
1
1
1
1
1
1
1
1
1
1
1
1
1
1
1
1
1
1
1
1
1
1
1
1
1
1
1
1
1
1
1
1
1
1.00003
1.11123
4.24512
8.5054
8.71605
8.67079
8.66172
8.64006
8.61086
8.57463
8.53272
8.48599
8.4341
8.37692
8.31452
8.24678
8.17457
8.09949
8.02053
7.9361
7.84629
7.7517
7.65172
7.5456
7.434
7.31929
7.20248
7.08316
6.95832
6.82621
6.69022
6.55006
6.40902
6.26327
6.11782
5.96927
1
1
1
1
1
1
1
1
1
1
1
1
1
1
1
1
1
1
1
1
1
1
1
1
1
1
1
1
1
1
1
1
1
1
1
1
1
1
1
1
1
1
1
1
1
1
1
1
1
1
1
1
1
1
1
1
1
1
1
1
1
1.00055
1.27287
4.97778
8.47086
8.61134
8.59507
8.58136
8.55254
8.51637
8.47276
8.42383
8.37007
8.31179
8.24861
8.18095
8.10977
8.03525
7.95666
7.87314
7.78515
7.69289
7.59587
7.49334
7.38559
7.27462
7.16204
7.0474
6.92617
6.80026
6.6721
6.5407
6.40627
6.26923
6.13187
5.9915
1
1
1
1
1
1
1
1
1
1
1
1
1
1
1
1
1
1
1
1
1
1
1
1
1
1
1
1
1
1
1
1
1
1
1
1
1
1
1
1
1
1
1
1
1
1
1
1
1
1
1
1
1
1
1
1
1
1
1
1
1
1
1.00251
1.43801
5.48869
8.44367
8.56241
8.53754
8.50478
8.46414
8.41845
8.36885
8.31487
8.25546
8.19165
8.1241
8.05363
7.97959
7.90154
7.81938
7.73314
7.64276
7.54782
7.44805
7.34405
7.23637
7.1265
7.01424
6.89739
6.77752
6.65614
6.53178
6.4034
6.27447
6.14451
6.01237
1
1
1
1
1
1
1
1
1
1
1
1
1
1
1
1
1
1
1
1
1
1
1
1
1
1
1
1
1
1
1
1
1
1
1
1
1
1
1
1
1
1
1
1
1
1
1
1
1
1
1
1
1
1
1
1
1
1
1
1
1
1
1
1.00589
1.59781
5.90626
8.41248
8.49858
8.4565
8.41145
8.36304
8.31298
8.25762
8.19787
8.13465
8.06911
8.00031
7.92719
7.85007
7.76917
7.68439
7.59552
7.5023
7.40516
7.30462
7.20021
7.09359
6.985
6.87311
6.75788
6.64191
6.52324
6.40073
6.27862
6.15598
6.03131
1
1
1
1
1
1
1
1
1
1
1
1
1
1
1
1
1
1
1
1
1
1
1
1
1
1
1
1
1
1
1
1
1
1
1
1
1
1
1
1
1
1
1
1
1
1
1
1
1
1
1
1
1
1
1
1
1
1
1
1
1
1
1
1.00001
1.01044
1.7563
6.23364
8.35589
8.40671
8.36344
8.31739
8.2637
8.20543
8.14551
8.08347
8.01901
7.95056
7.87787
7.80183
7.72252
7.63964
7.55247
7.4612
7.36642
7.2688
7.16829
7.06536
6.96013
6.85213
6.74111
6.62983
6.51657
6.40014
6.28368
6.16777
6.0495
1
1
1
1
1
1
1
1
1
1
1
1
1
1
1
1
1
1
1
1
1
1
1
1
1
1
1
1
1
1
1
1
1
1
1
1
1
1
1
1
1
1
1
1
1
1
1
1
1
1
1
1
1
1
1
1
1
1
1
1
1
1
1
1
1.00002
1.0161
1.90599
6.43307
8.28651
8.31934
8.27188
8.21934
8.16211
8.10442
8.0425
7.9758
7.90466
7.83161
7.75618
7.67768
7.59552
7.50963
7.42051
7.32843
7.23384
7.13723
7.03819
6.93666
6.83266
6.72621
6.61923
6.51112
6.40064
6.28951
6.1794
6.067
1
1
1
1
1
1
1
1
1
1
1
1
1
1
1
1
1
1
1
1
1
1
1
1
1
1
1
1
1
1
1
1
1
1
1
1
1
1
1
1
1
1
1
1
1
1
1
1
1
1
1
1
1
1
1
1
1
1
1
1
1
1
1
1
1
1.00004
1.0226
2.01868
6.51955
8.21933
8.23649
8.17692
8.12367
8.06329
8.0002
7.93278
7.86297
7.79069
7.71506
7.63597
7.55376
7.46893
7.38172
7.29217
7.2006
7.10731
7.01207
6.91456
6.81502
6.71363
6.61131
6.5084
6.40382
6.29838
6.19323
6.08602
1
1
1
1
1
1
1
1
1
1
1
1
1
1
1
1
1
1
1
1
1
1
1
1
1
1
1
1
1
1
1
1
1
1
1
1
1
1
1
1
1
1
1
1
1
1
1
1
1
1
1
1
1
1
1
1
1
1
1
1
1
1
1
1
1
1
1.00007
1.02829
2.08297
6.52374
8.11205
8.14458
8.08473
8.02828
7.96143
7.89329
7.82342
7.75109
7.67523
7.59628
7.51501
7.43177
7.34655
7.25937
7.17062
7.08068
6.98922
6.89578
6.80085
6.70464
6.60741
6.50936
6.41013
6.30991
6.209
6.10601
1
1
1
1
1
1
1
1
1
1
1
1
1
1
1
1
1
1
1
1
1
1
1
1
1
1
1
1
1
1
1
1
1
1
1
1
1
1
1
1
1
1
1
1
1
1
1
1
1
1
1
1
1
1
1
1
1
1
1
1
1
1
1
1
1
1
1
1.00009
1.03193
2.10304
6.40638
8.03081
8.04745
7.98017
7.91995
7.85099
7.78306
7.71073
7.63537
7.55768
7.47808
7.3969
7.31398
7.22954
7.1439
7.05731
6.96947
6.88035
6.79027
6.69925
6.60719
6.51355
6.41888
6.32293
6.22584
6.12631
1
1
1
1
1
1
1
1
1
1
1
1
1
1
1
1
1
1
1
1
1
1
1
1
1
1
1
1
1
1
1
1
1
1
1
1
1
1
1
1
1
1
1
1
1
1
1
1
1
1
1
1
1
1
1
1
1
1
1
1
1
1
1
1
1
1
1
1
1.00011
1.03308
2.06682
6.19619
7.91774
7.94851
7.87327
7.81155
7.74315
7.67157
7.59716
7.52098
7.4439
7.36558
7.28596
7.20525
7.12364
7.04109
6.95715
6.87205
6.7858
6.69863
6.61051
6.52046
6.4293
6.33639
6.24256
6.14579
1
1
1
1
1
1
1
1
1
1
1
1
1
1
1
1
1
1
1
1
1
1
1
1
1
1
1
1
1
1
1
1
1
1
1
1
1
1
1
1
1
1
1
1
1
1
1
1
1
1
1
1
1
1
1
1
1
1
1
1
1
1
1
1
1
1
1
1
1
1.00012
1.03137
1.97915
5.87232
7.77737
7.84233
7.76499
7.70208
7.63205
7.56044
7.4864
7.41268
7.33833
7.26328
7.18748
7.11067
7.03239
6.95233
6.87078
6.7877
6.70325
6.6174
6.52979
6.44062
6.34976
6.25835
6.16409
1
1
1
1
1
1
1
1
1
1
1
1
1
1
1
1
1
1
1
1
1
1
1
1
1
1
1
1
1
1
1
1
1
1
1
1
1
1
1
1
1
1
1
1
1
1
1
1
1
1
1
1
1
1
1
1
1
1
1
1
1
1
1
1
1
1
1
1
1
1
1.00011
1.02687
1.84665
5.39773
7.61635
7.74272
7.65785
7.59119
7.52215
7.45367
7.38596
7.31746
7.24791
7.17697
7.10421
7.02921
6.95198
6.87288
6.79202
6.70931
6.62496
6.53898
6.45119
6.3622
6.27212
6.18026
1
1
1
1
1
1
1
1
1
1
1
1
1
1
1
1
1
1
1
1
1
1
1
1
1
1
1
1
1
1
1
1
1
1
1
1
1
1
1
1
1
1
1
1
1
1
1
1
1
1
1
1
1
1
1
1
1
1
1
1
1
1
1
1
1
1
1
1
1
1
1
1.00009
1.02072
1.67426
4.76728
7.42263
7.6421
7.5583
7.49539
7.43424
7.37161
7.30773
7.24231
7.17456
7.10431
7.03126
6.95567
6.87787
6.79819
6.71669
6.63344
6.54864
6.46237
6.37464
6.286
6.1969
1
1
1
1
1
1
1
1
1
1
1
1
1
1
1
1
1
1
1
1
1
1
1
1
1
1
1
1
1
1
1
1
1
1
1
1
1
1
1
1
1
1
1
1
1
1
1
1
1
1
1
1
1
1
1
1
1
1
1
1
1
1
1
1
1
1
1
1
1
1
1
1
1.00006
1.014
1.48046
4.05505
7.15853
7.54307
7.48352
7.4301
7.36869
7.30588
7.24025
7.17251
7.10247
7.02982
6.95515
6.87872
6.80071
6.72075
6.63908
6.55604
6.47126
6.38575
6.29968
6.21267
1
1
1
1
1
1
1
1
1
1
1
1
1
1
1
1
1
1
1
1
1
1
1
1
1
1
1
1
1
1
1
1
1
1
1
1
1
1
1
1
1
1
1
1
1
1
1
1
1
1
1
1
1
1
1
1
1
1
1
1
1
1
1
1
1
1
1
1
1
1
1
1
1
1.00004
1.00797
1.30397
3.39891
6.76398
7.44789
7.42768
7.36042
7.30073
7.23455
7.16681
7.09701
7.02569
6.95271
6.87786
6.80129
6.72316
6.64373
6.56253
6.48061
6.39804
6.31359
6.22942
1
1
1
1
1
1
1
1
1
1
1
1
1
1
1
1
1
1
1
1
1
1
1
1
1
1
1
1
1
1
1
1
1
1
1
1
1
1
1
1
1
1
1
1
1
1
1
1
1
1
1
1
1
1
1
1
1
1
1
1
1
1
1
1
1
1
1
1
1
1
1
1
1
1
1.00002
1.00378
1.17914
2.79065
6.20816
7.32625
7.40323
7.29018
7.2287
7.16191
7.0926
7.02203
6.95018
6.87693
6.80262
6.72661
6.64869
6.56964
6.48999
6.40874
6.32782
6.24766
1
1
1
1
1
1
1
1
1
1
1
1
1
1
1
1
1
1
1
1
1
1
1
1
1
1
1
1
1
1
1
1
1
1
1
1
1
1
1
1
1
1
1
1
1
1
1
1
1
1
1
1
1
1
1
1
1
1
1
1
1
1
1
1
1
1
1
1
1
1
1
1
1
1
1
1.00001
1.00164
1.09649
2.25554
5.44605
7.17993
7.2994
7.22152
7.15604
7.08929
7.01951
6.94665
6.87509
6.80257
6.72823
6.65333
6.5767
6.49842
6.42137
6.34373
6.26471
1
1
1
1
1
1
1
1
1
1
1
1
1
1
1
1
1
1
1
1
1
1
1
1
1
1
1
1
1
1
1
1
1
1
1
1
1
1
1
1
1
1
1
1
1
1
1
1
1
1
1
1
1
1
1
1
1
1
1
1
1
1
1
1
1
1
1
1
1
1
1
1
1
1
1
1
1
1.00063
1.04709
1.80595
4.53214
6.92338
7.21211
7.15687
7.08595
7.01575
6.94835
6.8774
6.80522
6.73484
6.6626
6.58796
6.51403
6.43832
6.36006
6.28433
1
1
1
1
1
1
1
1
1
1
1
1
1
1
1
1
1
1
1
1
1
1
1
1
1
1
1
1
1
1
1
1
1
1
1
1
1
1
1
1
1
1
1
1
1
1
1
1
1
1
1
1
1
1
1
1
1
1
1
1
1
1
1
1
1
1
1
1
1
1
1
1
1
1
1
1
1
1
1.00022
1.02057
1.45869
3.58596
6.49285
7.09525
7.11851
7.02215
6.95054
6.88418
6.81867
6.74862
6.67555
6.60429
6.53042
6.45379
6.38052
6.30548
1
1
1
1
1
1
1
1
1
1
1
1
1
1
1
1
1
1
1
1
1
1
1
1
1
1
1
1
1
1
1
1
1
1
1
1
1
1
1
1
1
1
1
1
1
1
1
1
1
1
1
1
1
1
1
1
1
1
1
1
1
1
1
1
1
1
1
1
1
1
1
1
1
1
1
1
1
1
1
1.00006
1.00779
1.22605
2.76114
5.76367
6.96375
7.04635
6.97048
6.90047
6.831
6.76086
6.69092
6.61878
6.54365
6.47183
6.39713
6.32033
1
1
1
1
1
1
1
1
1
1
1
1
1
1
1
1
1
1
1
1
1
1
1
1
1
1
1
1
1
1
1
1
1
1
1
1
1
1
1
1
1
1
1
1
1
1
1
1
1
1
1
1
1
1
1
1
1
1
1
1
1
1
1
1
1
1
1
1
1
1
1
1
1
1
1
1
1
1
1
1
1.00002
1.00248
1.09814
2.08959
4.79692
6.75539
6.96205
6.9158
6.82697
6.76095
6.70074
6.63166
6.55981
6.48673
6.40859
6.33883
1
1
1
1
1
1
1
1
1
1
1
1
1
1
1
1
1
1
1
1
1
1
1
1
1
1
1
1
1
1
1
1
1
1
1
1
1
1
1
1
1
1
1
1
1
1
1
1
1
1
1
1
1
1
1
1
1
1
1
1
1
1
1
1
1
1
1
1
1
1
1
1
1
1
1
1
1
1
1
1
1
1
1.00067
1.03767
1.59274
3.73934
6.29646
6.82486
6.86039
6.77585
6.71338
6.65401
6.59075
6.51708
6.44011
6.36387
1
1
1
1
1
1
1
1
1
1
1
1
1
1
1
1
1
1
1
1
1
1
1
1
1
1
1
1
1
1
1
1
1
1
1
1
1
1
1
1
1
1
1
1
1
1
1
1
1
1
1
1
1
1
1
1
1
1
1
1
1
1
1
1
1
1
1
1
1
1
1
1
1
1
1
1
1
1
1
1
1
1
1
1.00016
1.01266
1.27376
2.74655
5.50083
6.70658
6.78721
6.73456
6.66221
6.59874
6.53859
6.47184
6.39141
1
1
1
1
1
1
1
1
1
1
1
1
1
1
1
1
1
1
1
1
1
1
1
1
1
1
1
1
1
1
1
1
1
1
1
1
1
1
1
1
1
1
1
1
1
1
1
1
1
1
1
1
1
1
1
1
1
1
1
1
1
1
1
1
1
1
1
1
1
1
1
1
1
1
1
1
1
1
1
1
1
1
1
1
1.00003
1.00351
1.10173
1.99755
4.47772
6.35585
6.68077
6.68475
6.60292
6.54088
6.48538
6.42046
1
1
1
1
1
1
1
1
1
1
1
1
1
1
1
1
1
1
1
1
1
1
1
1
1
1
1
1
1
1
1
1
1
1
1
1
1
1
1
1
1
1
1
1
1
1
1
1
1
1
1
1
1
1
1
1
1
1
1
1
1
1
1
1
1
1
1
1
1
1
1
1
1
1
1
1
1
1
1
1
1
1
1
1
1
1.00001
1.00072
1.03326
1.50339
3.29028
5.69135
6.60076
6.65472
6.59688
6.52086
6.43291
1
1
1
1
1
1
1
1
1
1
1
1
1
1
1
1
1
1
1
1
1
1
1
1
1
1
1
1
1
1
1
1
1
1
1
1
1
1
1
1
1
1
1
1
1
1
1
1
1
1
1
1
1
1
1
1
1
1
1
1
1
1
1
1
1
1
1
1
1
1
1
1
1
1
1
1
1
1
1
1
1
1
1
1
1
1
1
1.00013
1.00982
1.19415
2.30649
4.80415
6.20043
6.58028
6.59329
6.51357
1
1
1
1
1
1
1
1
1
1
1
1
1
1
1
1
1
1
1
1
1
1
1
1
1
1
1
1
1
1
1
1
1
1
1
1
1
1
1
1
1
1
1
1
1
1
1
1
1
1
1
1
1
1
1
1
1
1
1
1
1
1
1
1
1
1
1
1
1
1
1
1
1
1
1
1
1
1
1
1
1
1
1
1
1
1
1
1
1.00002
1.0021
1.05957
1.6628
3.57707
5.63806
6.44218
6.54242
1
1
1
1
1
1
1
1
1
1
1
1
1
1
1
1
1
1
1
1
1
1
1
1
1
1
1
1
1
1
1
1
1
1
1
1
1
1
1
1
1
1
1
1
1
1
1
1
1
1
1
1
1
1
1
1
1
1
1
1
1
1
1
1
1
1
1
1
1
1
1
1
1
1
1
1
1
1
1
1
1
1
1
1
1
1
1
1
1
1
1.00035
1.01596
1.26222
2.47095
4.7291
6.28748
1
1
1
1
1
1
1
1
1
1
1
1
1
1
1
1
1
1
1
1
1
1
1
1
1
1
1
1
1
1
1
1
1
1
1
1
1
1
1
1
1
1
1
1
1
1
1
1
1
1
1
1
1
1
1
1
1
1
1
1
1
1
1
1
1
1
1
1
1
1
1
1
1
1
1
1
1
1
1
1
1
1
1
1
1
1
1
1
1
1
1
1.00005
1.00328
1.08052
1.71454
3.74132
1
1
1
1
1
1
1
1
1
1
1
1
1
1
1
1
1
1
1
1
1
1
1
1
1
1
1
1
1
1
1
1
1
1
1
1
1
1
1
1
1
1
1
1
1
1
1
1
1
1
1
1
1
1
1
1
1
1
1
1
1
1
1
1
1
1
1
1
1
1
1
1
1
1
1
1
1
1
1
1
1
1
1
1
1
1
1
1
1
1
1
1
1
1.00054
1.0204
1.3034
1
1
1
1
1
1
1
1
1
1
1
1
1
1
1
1
1
1
1
1
1
1
1
1
1
1
1
1
1
1
1
1
1
1
1
1
1
1
1
1
1
1
1
1
1
1
1
1
1
1
1
1
1
1
1
1
1
1
1
1
1
1
1
1
1
1
1
1
1
1
1
1
1
1
1
1
1
1
1
1
1
1
1
1
1
1
1
1
1
1
1
1
1
1
1.00008
1.004
1
1
1
1
1
1
1
1
1
1
1
1
1
1
1
1
1
1
1
1
1
1
1
1
1
1
1
1
1
1
1
1
1
1
1
1
1
1
1
1
1
1
1
1
1
1
1
1
1
1
1
1
1
1
1
1
1
1
1
1
1
1
1
1
1
1
1
1
1
1
1
1
1
1
1
1
1
1
1
1
1
1
1
1
1
1
1
1
1
1
1
1
1
1
1
1.00001
1
1
1
1
1
1
1
1
1
1
1
1
1
1
1
1
1
1
1
1
1
1
1
1
1
1
1
1
1
1
1
1
1
1
1
1
1
1
1
1
1
1
1
1
1
1
1
1
1
1
1
1
1
1
1
1
1
1
1
1
1
1
1
1
1
1
1
1
1
1
1
1
1
1
1
1
1
1
1
1
1
1
1
1
1
1
1
1
1
1
1
1
1
1
1
1
1
1
1
1
1
1
1
1
1
1
1
1
1
1
1
1
1
1
1
1
1
1
1
1
1
1
1
1
1
1
1
1
1
1
1
1
1
1
1
1
1
1
1
1
1
1
1
1
1
1
1
1
1
1
1
1
1
1
1
1
1
1
1
1
1
1
1
1
1
1
1
1
1
1
1
1
1
1
1
1
1
1
1
1
1
1
1
1
1
1
1
1
1
1
1
1
1
1
1
1
1
1
1
1
1
1
1
1
1
1
1
1
1
1
1
1
1
1
1
1
1
1
1
1
1
1
1
1
1
1
1
1
1
1
1
1
1
1
1
1
1
1
1
1
1
1
1
1
1
1
1
1
1
1
1
1
1
1
1
1
1
1
1
1
1
1
1
1
1
1
1
1
1
1
1
1
1
1
1
1
1
1
1
1
1
1
1
1
1
1
1
1
1
1
1
1
1
1
1
1
1
1
1
1
1
1
1
1
1
1
1
1
1
1
1
1
1
1
1
1
1
1
1
1
1
1
1
1
1
1
1
1
1
1
1
1
1
1
1
1
1
1
1
1
1
1
1
1
1
1
1
1
1
1
1
1
1
1
1
1
1
1
1
1
1
1
1
1
1
1
1
1
1
1
1
1
1
1
1
1
1
1
1
1
1
1
1
1
1
1
1
1
1
1
1
1
1
1
1
1
1
1
1
1
1
1
1
1
1
1
1
1
1
1
1
1
1
1
1
1
1
1
1
1
1
1
1
1
1
1
1
1
1
1
1
1
1
1
1
1
1
1
1
1
1
1
1
1
1
1
1
1
1
1
1
1
1
1
1
1
1
1
1
1
1
1
1
1
1
1
1
1
1
1
1
1
1
1
1
1
1
1
1
1
1
1
1
1
1
1
1
1
1
1
1
1
1
1
1
1
1
1
1
1
1
1
1
1
1
1
1
1
1
1
1
1
1
1
1
1
1
1
1
1
1
1
1
1
1
1
1
1
1
1
1
1
1
1
1
1
1
1
1
1
1
1
1
1
1
1
1
1
1
1
1
1
1
1
1
1
1
1
1
1
1
1
1
1
1
1
1
1
1
1
1
1
1
1
1
1
1
1
1
1
1
1
1
1
1
1
1
1
1
1
1
1
1
1
1
1
1
1
1
1
1
1
1
1
1
1
1
1
1
1
1
1
1
1
1
1
1
1
1
1
1
1
1
1
1
1
1
1
1
1
1
1
1
1
1
1
1
1
1
1
1
1
1
1
1
1
1
1
1
1
1
1
1
1
1
1
1
1
1
1
1
1
1
1
1
1
1
1
1
1
1
1
1
1
1
1
1
1
1
1
1
1
1
1
1
1
1
1
1
1
1
1
1
1
1
1
1
1
1
1
1
1
1
1
1
1
1
1
1
1
1
1
1
1
1
1
1
1
1
1
1
1
1
1
1
1
1
1
1
1
1
1
1
1
1
1
1
1
1
1
1
1
1
1
1
1
1
1
1
1
1
1
1
1
1
1
1
1
1
1
1
1
1
1
1
1
1
1
1
1
1
1
1
1
1
1
1
1
1
1
1
1
1
1
1
1
1
1
1
1
1
1
1
1
1
1
1
1
1
1
1
1
1
1
1
1
1
1
1
1
1
1
1
1
1
1
1
1
1
1
1
1
1
1
1
1
1
1
1
1
1
1
1
1
1
1
1
1
1
1
1
1
1
1
1
1
1
1
1
1
1
1
1
1
1
1
1
1
1
1
1
1
1
1
1
1
1
1
1
1
1
1
1
1
1
1
1
1
1
1
1
1
1
1
1
1
1
1
1
1
1
1
1
1
1
1
1
1
1
1
1
1
1
1
1
1
1
1
1
1
1
1
1
1
1
1
1
1
1
1
1
1
1
1
1
1
1
1
1
1
1
1
1
1
1
1
1
1
1
1
1
1
1
1
1
1
1
1
1
1
1
1
1
1
1
1
1
1
1
1
1
1
1
1
1
1
1
1
1
1
1
1
1
1
1
1
1
1
1
1
1
1
1
1
1
1
1
1
1
1
1
1
1
1
1
1
1
1
1
1
1
1
1
1
1
1
1
1
1
1
1
1
1
1
1
1
1
1
1
1
1
1
1
1
1
1
1
1
1
1
1
1
1
1
1
1
1
1
1
1
1
1
1
1
1
1
1
1
1
1
1
1
1
1
1
1
1
1
1
1
1
1
1
1
1
1
1
1
1
1
1
1
1
1
1
1
1
1
1
1
1
1
1
1
1
1
1
1
1
1
1
1
1
1
1
1
1
1
1
1
1
1
1
1
1
1
1
1
1
1
1
1
1
1
1
1
1
1
1
1
1
1
1
1
1
1
1
1
1
1
1
1
1
1
1
1
1
1
1
1
1
1
1
1
1
1
1
1
1
1
1
1
1
1
1
1
1
1
1
1
1
1
1
1
1
1
1
1
1
1
1
1
1
1
1
1
1
1
1
1
1
1
1
1
1
1
1
1
1
1
1
1
1
1
1
1
1
1
1
1
1
1
1
1
1
1
1
1
1
1
1
1
1
1
1
1
1
1
1
1
1
1
1
1
1
1
1
1
1
1
1
1
1
1
1
1
1
1
1
1
1
1
1
1
1
1
1
1
1
1
1
1
1
1
1
1
1
1
1
1
1
1
1
1
1
1
1
1
1
1
1
1
1
1
1
1
1
1
1
1
1
1
1
1
1
1
1
1
1
1
1
1
1
1
1
1
1
1
1
1
1
1
1
1
1
1
1
1
1
1
1
1
1
1
1
1
1
1
1
1
1
1
1
1
1
1
1
1
1
1
1
1
1
1
1
1
1
1
1
1
1
1
1
1
1
1
1
1
1
1
1
1
1
1
1
1
1
1
1
1
1
1
1
1
1
1
1
1
1
1
1
1
1
1
1
1
1
1
1
1
1
1
1
1
1
1
1
1
1
1
1
1
1
1
1
1
1
1
1
1
1
1
1
1
1
1
1
1
1
1
1
1
1
1
1
1
1
1
1
1
1
1
1
1
1
1
1
1
1
1
1
1
1
1
1
1
1
1
1
1
1.04178
0.215252
0.0737397
0.021813
0.0241214
0.0398785
0.073625
0.117088
0.166128
0.241264
0.333659
0.411432
0.495738
0.603404
0.644454
0.670919
0.712
0.772084
0.847197
0.910482
0.970089
1.00628
1.03241
1.03449
1.03612
1.04663
1.05078
1.06059
1.08951
1.1271
1.15709
1.1719
1.18188
1.19523
1.21121
1.22556
1.23191
1.23738
1.24304
1.25086
1.25608
1.26322
1.27635
1.29542
1.30818
1.31412
1.31812
1.32219
1.32677
1.33146
1.33245
1.32894
1.32463
1.32279
1.32473
1.3313
1.33871
1.3438
1.3453
1.34559
1.34619
1.34689
1.3456
2.57036
5.79929
6.33931
6.39082
6.41368
6.41472
6.41297
6.40376
6.38505
6.35576
6.31559
6.27109
6.22688
6.18559
6.14508
6.10133
6.05136
5.99518
5.93614
5.87901
5.82726
5.78192
5.74185
5.70399
5.66426
5.61909
5.56736
5.50991
5.44928
5.38996
5.3352
5.28671
5.24516
5.21011
5.1799
5.15217
5.12533
5.0984
5.06772
5.02888
4.98182
4.93053
4.87886
4.82836
4.77931
4.73006
4.67786
4.6244
4.57356
4.52872
4.49155
4.46249
4.43667
4.40742
4.37437
4.34013
4.30459
4.26646
4.22718
4.19056
4.15803
4.13213
4.10634
4.07166
4.03611
4.00205
3.96857
3.93199
3.88863
3.8329
3.77002
3.71408
3.66711
3.62885
3.59854
3.57211
3.55159
3.53879
3.52953
3.51488
3.49004
3.45869
3.41839
3.36835
3.323
3.28965
3.26362
3.24045
3.22201
3.20694
3.18911
3.16916
3.14924
3.12849
3.1051
3.07695
3.04314
3.00577
2.96877
2.93615
2.90912
2.8864
2.86658
2.84857
2.83185
2.81733
2.80441
2.79077
2.77543
2.75885
2.73851
2.71116
2.67685
2.63875
2.60301
2.57282
2.54689
2.52331
2.50044
2.47763
2.45424
2.43178
2.41252
2.39573
2.38119
2.36761
2.35418
2.34311
2.31884
1.92207
0.966056
0.542091
0.264954