/*--------------------------------*- C++ -*----------------------------------*\
  =========                 |
  \\      /  F ield         | OpenFOAM: The Open Source CFD Toolbox
   \\    /   O peration     | Website:  https://openfoam.org
    \\  /    A nd           | Version:  7
     \\/     M anipulation  |
\*---------------------------------------------------------------------------*/
FoamFile
{
    version     2.0;
    format      ascii;
    class       volScalarField;
    location    "3.3";
    object      rho;
}
// * * * * * * * * * * * * * * * * * * * * * * * * * * * * * * * * * * * * * //

dimensions      [1 -3 0 0 0 0 0];

internalField   nonuniform List<scalar> 
19968
(
1.40001
1.40001
1.40001
1.40001
1.40001
1.40001
1.40001
1.40001
1.40001
1.40001
1.40001
1.40001
1.40001
1.40001
1.40001
1.40001
1.40001
1.40001
1.40001
1.40001
1.40001
1.40001
1.40001
1.40001
1.40001
1.40001
1.40001
1.40001
1.40001
1.40001
1.40001
1.40001
1.40001
1.40001
1.40001
1.40001
1.40001
1.40001
1.40001
1.40001
1.40001
1.40001
1.40001
1.40001
1.40001
1.40001
1.40001
1.40001
1.45315
4.15702
5.41554
5.42849
5.44732
5.47036
5.49629
5.52377
5.55023
5.5729
5.59076
5.60513
5.61872
5.6342
5.65305
5.67474
5.69714
5.71782
5.73561
5.75093
5.76486
5.77824
5.79135
5.80377
5.81581
5.82851
5.84233
5.85636
5.86971
5.88216
5.89388
5.90549
5.91765
5.93017
5.94196
5.95173
5.9589
5.96401
5.96837
5.97314
5.9789
5.98543
5.99172
5.99676
6.0003
6.00271
6.00455
6.00632
1.40001
1.40001
1.40001
1.40001
1.40001
1.40001
1.40001
1.40001
1.40001
1.40001
1.40001
1.40001
1.40001
1.40001
1.40001
1.40001
1.40001
1.40001
1.40001
1.40001
1.40001
1.40001
1.40001
1.40001
1.40001
1.40001
1.40001
1.40001
1.40001
1.40001
1.40001
1.40001
1.40001
1.40001
1.40001
1.40001
1.40001
1.40001
1.40001
1.40001
1.40001
1.40001
1.40001
1.40001
1.40001
1.40001
1.40001
1.40001
1.4416
4.13189
5.40685
5.4292
5.44759
5.47083
5.49654
5.5238
5.54995
5.57237
5.59005
5.60427
5.61771
5.63303
5.65168
5.67308
5.69531
5.71601
5.73389
5.74932
5.76334
5.77665
5.78973
5.80215
5.81447
5.82747
5.84156
5.8557
5.86901
5.88124
5.89258
5.90375
5.9155
5.92773
5.93939
5.94921
5.95655
5.96187
5.96637
5.97115
5.97681
5.98319
5.98935
5.99434
5.99788
6.00027
6.00206
6.00382
1.40001
1.40001
1.40001
1.40001
1.40001
1.40001
1.40001
1.40001
1.40001
1.40001
1.40001
1.40001
1.40001
1.40001
1.40001
1.40001
1.40001
1.40001
1.40001
1.40001
1.40001
1.40001
1.40001
1.40001
1.40001
1.40001
1.40001
1.40001
1.40001
1.40001
1.40001
1.40001
1.40001
1.40001
1.40001
1.40001
1.40001
1.40001
1.40001
1.40001
1.40001
1.40001
1.40001
1.40001
1.40001
1.40001
1.40001
1.40001
1.4024
4.06228
5.40345
5.42765
5.44644
5.47099
5.49686
5.52401
5.5496
5.5714
5.58862
5.60246
5.61551
5.63045
5.64872
5.6697
5.69174
5.71259
5.73071
5.74641
5.76062
5.77382
5.78683
5.79917
5.81183
5.82529
5.83987
5.85429
5.86768
5.87971
5.8906
5.90116
5.9123
5.92405
5.93548
5.94536
5.95297
5.95859
5.96326
5.96796
5.97333
5.9793
5.98515
5.98997
5.99342
5.9957
5.99732
5.99897
1.40001
1.40001
1.40001
1.40001
1.40001
1.40001
1.40001
1.40001
1.40001
1.40001
1.40001
1.40001
1.40001
1.40001
1.40001
1.40001
1.40001
1.40001
1.40001
1.40001
1.40001
1.40001
1.40001
1.40001
1.40001
1.40001
1.40001
1.40001
1.40001
1.40001
1.40001
1.40001
1.40001
1.40001
1.40001
1.40001
1.40001
1.40001
1.40001
1.40001
1.40001
1.40001
1.40001
1.40001
1.40001
1.40001
1.40001
1.40001
1.40004
3.93246
5.39562
5.42382
5.44276
5.46819
5.49392
5.52095
5.54615
5.56767
5.58476
5.59841
5.6111
5.62562
5.64347
5.66402
5.68586
5.70691
5.7254
5.74153
5.75611
5.7693
5.78222
5.79435
5.8072
5.82103
5.83608
5.8508
5.86426
5.87604
5.8864
5.89624
5.90664
5.91782
5.92895
5.93889
5.94685
5.95295
5.95798
5.96277
5.9679
5.97345
5.97889
5.98346
5.98675
5.98889
5.99032
5.99187
1.40001
1.40001
1.40001
1.40001
1.40001
1.40001
1.40001
1.40001
1.40001
1.40001
1.40001
1.40001
1.40001
1.40001
1.40001
1.40001
1.40001
1.40001
1.40001
1.40001
1.40001
1.40001
1.40001
1.40001
1.40001
1.40001
1.40001
1.40001
1.40001
1.40001
1.40001
1.40001
1.40001
1.40001
1.40001
1.40001
1.40001
1.40001
1.40001
1.40001
1.40001
1.40001
1.40001
1.40001
1.40001
1.40001
1.40001
1.40001
1.40001
3.74398
5.37828
5.41659
5.43669
5.4629
5.48886
5.51636
5.54198
5.56397
5.58145
5.59502
5.60696
5.6204
5.63714
5.65675
5.67802
5.69926
5.71831
5.73514
5.75038
5.76375
5.77655
5.78825
5.80087
5.81472
5.83
5.8449
5.85844
5.87009
5.88004
5.88927
5.899
5.9096
5.92039
5.93031
5.93859
5.94521
5.95072
5.95571
5.96066
5.96571
5.9706
5.97473
5.97775
5.97972
5.981
5.98252
1.40001
1.40001
1.40001
1.40001
1.40001
1.40001
1.40001
1.40001
1.40001
1.40001
1.40001
1.40001
1.40001
1.40001
1.40001
1.40001
1.40001
1.40001
1.40001
1.40001
1.40001
1.40001
1.40001
1.40001
1.40001
1.40001
1.40001
1.40001
1.40001
1.40001
1.40001
1.40001
1.40001
1.40001
1.40001
1.40001
1.40001
1.40001
1.40001
1.40001
1.40001
1.40001
1.40001
1.40001
1.40001
1.40001
1.40001
1.40001
1.40001
3.49619
5.34789
5.40824
5.42978
5.45605
5.4821
5.51008
5.53635
5.55922
5.57762
5.59166
5.60312
5.61526
5.63043
5.64867
5.66906
5.69046
5.71035
5.72808
5.74424
5.75807
5.77072
5.78183
5.79368
5.80702
5.82205
5.83694
5.85052
5.86217
5.87192
5.88065
5.88972
5.89962
5.90981
5.91938
5.92765
5.93454
5.94041
5.94559
5.95036
5.95482
5.95886
5.96219
5.96463
5.96631
5.96745
5.96898
1.40001
1.40001
1.40001
1.40001
1.40001
1.40001
1.40001
1.40001
1.40001
1.40001
1.40001
1.40001
1.40001
1.40001
1.40001
1.40001
1.40001
1.40001
1.40001
1.40001
1.40001
1.40001
1.40001
1.40001
1.40001
1.40001
1.40001
1.40001
1.40001
1.40001
1.40001
1.40001
1.40001
1.40001
1.40001
1.40001
1.40001
1.40001
1.40001
1.40001
1.40001
1.40001
1.40001
1.40001
1.40001
1.40001
1.40001
1.40001
1.40001
3.18491
5.29541
5.40097
5.42193
5.4477
5.47384
5.50211
5.52897
5.55286
5.57253
5.58771
5.59936
5.61036
5.62354
5.63971
5.6584
5.67928
5.69971
5.71816
5.73525
5.74973
5.76223
5.77265
5.78318
5.79547
5.80984
5.82463
5.83832
5.85022
5.86008
5.86855
5.87705
5.88626
5.89584
5.905
5.91321
5.92037
5.92671
5.93234
5.93725
5.94137
5.94465
5.94711
5.94885
5.95023
5.95133
5.95296
1.40001
1.40001
1.40001
1.40001
1.40001
1.40001
1.40001
1.40001
1.40001
1.40001
1.40001
1.40001
1.40001
1.40001
1.40001
1.40001
1.40001
1.40001
1.40001
1.40001
1.40001
1.40001
1.40001
1.40001
1.40001
1.40001
1.40001
1.40001
1.40001
1.40001
1.40001
1.40001
1.40001
1.40001
1.40001
1.40001
1.40001
1.40001
1.40001
1.40001
1.40001
1.40001
1.40001
1.40001
1.40001
1.40001
1.40001
1.40001
1.40001
2.8119
5.201
5.39848
5.41661
5.44093
5.46603
5.4934
5.52016
5.54477
5.56586
5.58289
5.59586
5.60658
5.61809
5.63196
5.64835
5.66759
5.68782
5.7064
5.72386
5.7388
5.75101
5.76074
5.76955
5.78037
5.79367
5.80825
5.82206
5.83439
5.84459
5.85302
5.86105
5.86962
5.87861
5.88736
5.89541
5.90268
5.90935
5.91539
5.92051
5.92434
5.92678
5.92811
5.9288
5.92952
5.93042
5.93197
1.40001
1.40001
1.40001
1.40001
1.40001
1.40001
1.40001
1.40001
1.40001
1.40001
1.40001
1.40001
1.40001
1.40001
1.40001
1.40001
1.40001
1.40001
1.40001
1.40001
1.40001
1.40001
1.40001
1.40001
1.40001
1.40001
1.40001
1.40001
1.40001
1.40001
1.40001
1.40001
1.40001
1.40001
1.40001
1.40001
1.40001
1.40001
1.40001
1.40001
1.40001
1.40001
1.40001
1.40001
1.40001
1.40001
1.40001
1.40001
1.40001
2.38052
5.03693
5.40604
5.42227
5.4431
5.46494
5.4896
5.51465
5.53845
5.55994
5.57832
5.59286
5.60409
5.61458
5.62637
5.64025
5.65697
5.67609
5.69442
5.71166
5.72668
5.73854
5.74783
5.75505
5.76408
5.77564
5.78933
5.80265
5.81476
5.82481
5.83276
5.83988
5.84736
5.85539
5.86346
5.87114
5.87838
5.88532
5.89188
5.89755
5.90165
5.9039
5.90462
5.90461
5.90482
5.90554
5.90694
1.40001
1.40001
1.40001
1.40001
1.40001
1.40001
1.40001
1.40001
1.40001
1.40001
1.40001
1.40001
1.40001
1.40001
1.40001
1.40001
1.40001
1.40001
1.40001
1.40001
1.40001
1.40001
1.40001
1.40001
1.40001
1.40001
1.40001
1.40001
1.40001
1.40001
1.40001
1.40001
1.40001
1.40001
1.40001
1.40001
1.40001
1.40001
1.40001
1.40001
1.40001
1.40001
1.40001
1.40001
1.40001
1.40001
1.40001
1.40001
1.40001
1.92635
4.76732
5.42567
5.41902
5.43626
5.45352
5.47545
5.49953
5.52355
5.54592
5.56564
5.58201
5.5949
5.60598
5.61745
5.63027
5.6449
5.66226
5.67993
5.69661
5.71175
5.72369
5.73317
5.73994
5.74771
5.75748
5.76989
5.78252
5.79414
5.80388
5.81129
5.81735
5.82345
5.83013
5.83709
5.84392
5.85051
5.85697
5.86319
5.86857
5.87223
5.87381
5.87353
5.87222
5.87124
5.87112
5.87174
1.40001
1.40001
1.40001
1.40001
1.40001
1.40001
1.40001
1.40001
1.40001
1.40001
1.40001
1.40001
1.40001
1.40001
1.40001
1.40001
1.40001
1.40001
1.40001
1.40001
1.40001
1.40001
1.40001
1.40001
1.40001
1.40001
1.40001
1.40001
1.40001
1.40001
1.40001
1.40001
1.40001
1.40001
1.40001
1.40001
1.40001
1.40001
1.40001
1.40001
1.40001
1.40001
1.40001
1.40001
1.40001
1.40001
1.40001
1.40001
1.40001
1.50156
4.28393
5.44334
5.43111
5.4406
5.45573
5.47381
5.49434
5.51542
5.53531
5.55348
5.56994
5.58408
5.59585
5.60679
5.61801
5.62994
5.6442
5.66011
5.67525
5.68963
5.70153
5.71111
5.71813
5.72467
5.73265
5.74321
5.75478
5.76576
5.77517
5.78227
5.7875
5.79218
5.79723
5.80267
5.80819
5.81366
5.81917
5.8247
5.82976
5.83335
5.83512
5.8348
5.833
5.83109
5.83003
5.82987
1.40001
1.40001
1.40001
1.40001
1.40001
1.40001
1.40001
1.40001
1.40001
1.40001
1.40001
1.40001
1.40001
1.40001
1.40001
1.40001
1.40001
1.40001
1.40001
1.40001
1.40001
1.40001
1.40001
1.40001
1.40001
1.40001
1.40001
1.40001
1.40001
1.40001
1.40001
1.40001
1.40001
1.40001
1.40001
1.40001
1.40001
1.40001
1.40001
1.40001
1.40001
1.40001
1.40001
1.40001
1.40001
1.40001
1.40001
1.40001
1.40001
1.40101
3.54169
5.32025
5.37437
5.38982
5.4116
5.43197
5.45365
5.4756
5.49627
5.51518
5.53256
5.54831
5.56201
5.57412
5.58602
5.59806
5.61098
5.62557
5.64004
5.65401
5.66666
5.6769
5.68508
5.69159
5.69886
5.70785
5.71828
5.72864
5.73773
5.74478
5.74966
5.75335
5.757
5.76109
5.76545
5.76984
5.77419
5.77838
5.78195
5.78402
5.78427
5.78204
5.77812
5.77393
5.77103
5.76973
1.40001
1.40001
1.40001
1.40001
1.40001
1.40001
1.40001
1.40001
1.40001
1.40001
1.40001
1.40001
1.40001
1.40001
1.40001
1.40001
1.40001
1.40001
1.40001
1.40001
1.40001
1.40001
1.40001
1.40001
1.40001
1.40001
1.40001
1.40001
1.40001
1.40001
1.40001
1.40001
1.40001
1.40001
1.40001
1.40001
1.40001
1.40001
1.40001
1.40001
1.40001
1.40001
1.40001
1.40001
1.40001
1.40001
1.40001
1.40001
1.40001
1.40001
2.62692
5.09604
5.36632
5.38896
5.41049
5.42802
5.44594
5.46429
5.48226
5.49912
5.51465
5.52889
5.5417
5.55298
5.56381
5.57489
5.58613
5.59856
5.61138
5.6236
5.63523
5.64483
5.65269
5.65867
5.66473
5.67155
5.67963
5.68803
5.69562
5.70154
5.70528
5.70723
5.70839
5.70953
5.71061
5.71143
5.71191
5.71212
5.71214
5.71181
5.71078
5.70858
5.7049
5.70113
5.69815
5.69689
1.40001
1.40001
1.40001
1.40001
1.40001
1.40001
1.40001
1.40001
1.40001
1.40001
1.40001
1.40001
1.40001
1.40001
1.40001
1.40001
1.40001
1.40001
1.40001
1.40001
1.40001
1.40001
1.40001
1.40001
1.40001
1.40001
1.40001
1.40001
1.40001
1.40001
1.40001
1.40001
1.40001
1.40001
1.40001
1.40001
1.40001
1.40001
1.40001
1.40001
1.40001
1.40001
1.40001
1.40001
1.40001
1.40001
1.40001
1.40001
1.40001
1.40001
1.7372
4.58868
5.40887
5.39438
5.40939
5.42164
5.43571
5.45033
5.46514
5.47949
5.49287
5.50514
5.51634
5.52621
5.53528
5.54458
5.55404
5.56402
5.57462
5.58469
5.59414
5.60265
5.60935
5.61459
5.61899
5.62369
5.62919
5.63526
5.64094
5.64508
5.64731
5.64752
5.64639
5.6447
5.64267
5.64046
5.63791
5.6351
5.63224
5.62907
5.6243
5.61742
5.60724
5.59566
5.58463
5.57611
1.40001
1.40001
1.40001
1.40001
1.40001
1.40001
1.40001
1.40001
1.40001
1.40001
1.40001
1.40001
1.40001
1.40001
1.40001
1.40001
1.40001
1.40001
1.40001
1.40001
1.40001
1.40001
1.40001
1.40001
1.40001
1.40001
1.40001
1.40001
1.40001
1.40001
1.40001
1.40001
1.40001
1.40001
1.40001
1.40001
1.40001
1.40001
1.40001
1.40001
1.40001
1.40001
1.40001
1.40001
1.40001
1.40001
1.40001
1.40001
1.40001
1.40001
1.40691
3.40385
5.29188
5.36923
5.38866
5.40218
5.4156
5.42896
5.44252
5.45567
5.46786
5.47877
5.48843
5.49686
5.50423
5.51122
5.51824
5.52546
5.5331
5.54067
5.54755
5.55377
5.55874
5.56215
5.56412
5.56591
5.56826
5.57129
5.57405
5.57542
5.57496
5.57212
5.56778
5.56174
5.55426
5.545
5.53419
5.52172
5.50734
5.49089
5.47236
5.45205
5.4333
5.41652
5.40771
5.40362
1.40001
1.40001
1.40001
1.40001
1.40001
1.40001
1.40001
1.40001
1.40001
1.40001
1.40001
1.40001
1.40001
1.40001
1.40001
1.40001
1.40001
1.40001
1.40001
1.40001
1.40001
1.40001
1.40001
1.40001
1.40001
1.40001
1.40001
1.40001
1.40001
1.40001
1.40001
1.40001
1.40001
1.40001
1.40001
1.40001
1.40001
1.40001
1.40001
1.40001
1.40001
1.40001
1.40001
1.40001
1.40001
1.40001
1.40001
1.40001
1.40001
1.40001
1.40001
2.03275
4.82017
5.37897
5.3751
5.38721
5.39937
5.41187
5.42426
5.43624
5.44737
5.45724
5.46558
5.47247
5.47799
5.48243
5.48633
5.49012
5.49404
5.4981
5.5018
5.50468
5.50685
5.50746
5.50584
5.50325
5.50079
5.49919
5.49742
5.49429
5.48901
5.48158
5.47179
5.45941
5.44419
5.42603
5.40517
5.38204
5.35701
5.33066
5.30321
5.27472
5.23678
5.19192
5.13431
5.15268
1.40001
1.40001
1.40001
1.40001
1.40001
1.40001
1.40001
1.40001
1.40001
1.40001
1.40001
1.40001
1.40001
1.40001
1.40001
1.40001
1.40001
1.40001
1.40001
1.40001
1.40001
1.40001
1.40001
1.40001
1.40001
1.40001
1.40001
1.40001
1.40001
1.40001
1.40001
1.40001
1.40001
1.40001
1.40001
1.40001
1.40001
1.40001
1.40001
1.40001
1.40001
1.40001
1.40001
1.40001
1.40001
1.40001
1.40001
1.40001
1.40001
1.40001
1.4
1.42521
3.70964
5.30291
5.34638
5.36153
5.37556
5.38742
5.39881
5.40999
5.42061
5.43025
5.43843
5.44489
5.44962
5.4526
5.45422
5.4551
5.45574
5.45641
5.45694
5.45683
5.45603
5.45359
5.44878
5.44207
5.43477
5.42783
5.42067
5.41261
5.40251
5.38985
5.37409
5.35478
5.3313
5.30307
5.26954
5.23053
5.18423
5.12893
5.0566
4.96001
4.81086
4.57949
4.1709
3.26283
1.40001
1.40001
1.40001
1.40001
1.40001
1.40001
1.40001
1.40001
1.40001
1.40001
1.40001
1.40001
1.40001
1.40001
1.40001
1.40001
1.40001
1.40001
1.40001
1.40001
1.40001
1.40001
1.40001
1.40001
1.40001
1.40001
1.40001
1.40001
1.40001
1.40001
1.40001
1.40001
1.40001
1.40001
1.40001
1.40001
1.40001
1.40001
1.40001
1.40001
1.40001
1.40001
1.40001
1.40001
1.40001
1.40001
1.40001
1.40001
1.40001
1.40001
1.40001
1.39991
2.48553
4.97682
5.31505
5.32627
5.34856
5.3626
5.37422
5.38492
5.3953
5.4051
5.41367
5.42031
5.42476
5.42709
5.42771
5.42694
5.42529
5.42333
5.42127
5.4187
5.41533
5.41035
5.40315
5.39321
5.38121
5.36872
5.35616
5.34287
5.3277
5.30966
5.28785
5.2617
5.22995
5.19195
5.14561
5.09115
5.02388
4.94286
4.83412
4.69233
4.4841
4.21436
3.67291
2.91217
1.40001
1.40001
1.40001
1.40001
1.40001
1.40001
1.40001
1.40001
1.40001
1.40001
1.40001
1.40001
1.40001
1.40001
1.40001
1.40001
1.40001
1.40001
1.40001
1.40001
1.40001
1.40001
1.40001
1.40001
1.40001
1.40001
1.40001
1.40001
1.40001
1.40001
1.40001
1.40001
1.40001
1.40001
1.40001
1.40001
1.40001
1.40001
1.40001
1.40001
1.40001
1.40001
1.40001
1.40001
1.40001
1.40001
1.40001
1.40001
1.40001
1.40001
1.40001
1.39999
1.49876
4.26397
5.35485
5.33993
5.33949
5.34571
5.35195
5.35907
5.36699
5.37505
5.38254
5.38871
5.39295
5.39511
5.39531
5.39333
5.38997
5.38593
5.38155
5.37668
5.3709
5.36328
5.35365
5.34107
5.32513
5.30749
5.28904
5.26977
5.24871
5.22503
5.19701
5.16424
5.12431
5.07717
5.01921
4.9511
4.86733
4.76581
4.63646
4.46719
4.25266
3.92917
3.48986
2.97307
1.40001
1.40001
1.40001
1.40001
1.40001
1.40001
1.40001
1.40001
1.40001
1.40001
1.40001
1.40001
1.40001
1.40001
1.40001
1.40001
1.40001
1.40001
1.40001
1.40001
1.40001
1.40001
1.40001
1.40001
1.40001
1.40001
1.40001
1.40001
1.40001
1.40001
1.40001
1.40001
1.40001
1.40001
1.40001
1.40001
1.40001
1.40001
1.40001
1.40001
1.40001
1.40001
1.40001
1.40001
1.40001
1.40001
1.40001
1.40001
1.40001
1.40001
1.40001
1.4
1.40037
2.93739
5.09082
5.28904
5.30065
5.31436
5.3209
5.32639
5.33245
5.33912
5.34574
5.35168
5.35589
5.35777
5.35761
5.35519
5.35135
5.3464
5.34048
5.33354
5.32555
5.31576
5.30403
5.28947
5.27083
5.24905
5.2249
5.19924
5.17152
5.14164
5.10734
5.06831
5.02141
4.96634
4.89966
4.8208
4.72614
4.61204
4.47291
4.29792
4.08007
3.79281
3.4619
3.07831
1.40001
1.40001
1.40001
1.40001
1.40001
1.40001
1.40001
1.40001
1.40001
1.40001
1.40001
1.40001
1.40001
1.40001
1.40001
1.40001
1.40001
1.40001
1.40001
1.40001
1.40001
1.40001
1.40001
1.40001
1.40001
1.40001
1.40001
1.40001
1.40001
1.40001
1.40001
1.40001
1.40001
1.40001
1.40001
1.40001
1.40001
1.40001
1.40001
1.40001
1.40001
1.40001
1.40001
1.40001
1.40001
1.40001
1.40001
1.40001
1.40001
1.40001
1.40001
1.40001
1.4
1.65093
4.48924
5.33335
5.30795
5.30955
5.30814
5.30766
5.30903
5.31166
5.31462
5.31749
5.31961
5.32018
5.3187
5.31543
5.31096
5.30481
5.29733
5.28874
5.27894
5.26729
5.2534
5.23675
5.21621
5.19183
5.16349
5.13236
5.09829
5.06189
5.0215
4.97655
4.92429
4.86341
4.7914
4.70642
4.60642
4.48742
4.34852
4.17597
3.9756
3.73955
3.47497
3.18117
1.40001
1.40001
1.40001
1.40001
1.40001
1.40001
1.40001
1.40001
1.40001
1.40001
1.40001
1.40001
1.40001
1.40001
1.40001
1.40001
1.40001
1.40001
1.40001
1.40001
1.40001
1.40001
1.40001
1.40001
1.40001
1.40001
1.40001
1.40001
1.40001
1.40001
1.40001
1.40001
1.40001
1.40001
1.40001
1.40001
1.40001
1.40001
1.40001
1.40001
1.40001
1.40001
1.40001
1.40001
1.40001
1.40001
1.40001
1.40001
1.40001
1.40001
1.40001
1.40001
1.4
1.40339
3.06738
5.08389
5.2687
5.27517
5.28273
5.28646
5.2873
5.28731
5.28711
5.28684
5.28641
5.28489
5.28117
5.27565
5.26913
5.26112
5.25206
5.24188
5.23017
5.21649
5.20048
5.18199
5.15997
5.13405
5.10319
5.06835
5.02947
4.98745
4.94158
4.89119
4.83456
4.76985
4.69515
4.6083
4.50793
4.39018
4.2553
4.09562
3.91917
3.71801
3.50505
3.26486
1.40001
1.40001
1.40001
1.40001
1.40001
1.40001
1.40001
1.40001
1.40001
1.40001
1.40001
1.40001
1.40001
1.40001
1.40001
1.40001
1.40001
1.40001
1.40001
1.40001
1.40001
1.40001
1.40001
1.40001
1.40001
1.40001
1.40001
1.40001
1.40001
1.40001
1.40001
1.40001
1.40001
1.40001
1.40001
1.40001
1.40001
1.40001
1.40001
1.40001
1.40001
1.40001
1.40001
1.40001
1.40001
1.40001
1.40001
1.40001
1.40001
1.40001
1.40001
1.40001
1.40001
1.4
1.62823
4.44126
5.31142
5.28354
5.276
5.27413
5.2716
5.26894
5.26578
5.26189
5.25733
5.25222
5.24552
5.23738
5.22867
5.2186
5.20739
5.19512
5.18131
5.16605
5.14871
5.12886
5.10553
5.07831
5.046
5.00926
4.96774
4.92213
4.87209
4.81725
4.75678
4.68924
4.61321
4.52674
4.42968
4.31594
4.18994
4.04535
3.89083
3.71854
3.53623
3.33896
1.40001
1.40001
1.40001
1.40001
1.40001
1.40001
1.40001
1.40001
1.40001
1.40001
1.40001
1.40001
1.40001
1.40001
1.40001
1.40001
1.40001
1.40001
1.40001
1.40001
1.40001
1.40001
1.40001
1.40001
1.40001
1.40001
1.40001
1.40001
1.40001
1.40001
1.40001
1.40001
1.40001
1.40001
1.40001
1.40001
1.40001
1.40001
1.40001
1.40001
1.40001
1.40001
1.40001
1.40001
1.40001
1.40001
1.40001
1.40001
1.40001
1.40001
1.40001
1.40001
1.40001
1.4
1.4027
2.91029
5.03949
5.21976
5.23348
5.24027
5.24173
5.24105
5.23806
5.23352
5.22747
5.22075
5.21262
5.20234
5.19083
5.17802
5.16358
5.14845
5.132
5.11488
5.09582
5.07405
5.04888
5.02001
4.98653
4.94907
4.90688
4.86018
4.80843
4.75136
4.68868
4.61953
4.54329
4.45819
4.36586
4.25794
4.14241
4.01254
3.87722
3.72412
3.56783
3.3981
1.40001
1.40001
1.40001
1.40001
1.40001
1.40001
1.40001
1.40001
1.40001
1.40001
1.40001
1.40001
1.40001
1.40001
1.40001
1.40001
1.40001
1.40001
1.40001
1.40001
1.40001
1.40001
1.40001
1.40001
1.40001
1.40001
1.40001
1.40001
1.40001
1.40001
1.40001
1.40001
1.40001
1.40001
1.40001
1.40001
1.40001
1.40001
1.40001
1.40001
1.40001
1.40001
1.40001
1.40001
1.40001
1.40001
1.40001
1.40001
1.40001
1.40001
1.40001
1.40001
1.40001
1.40001
1.4
1.55264
4.10894
5.24006
5.22625
5.22304
5.22269
5.22143
5.21803
5.21276
5.20516
5.19612
5.18571
5.17329
5.15916
5.14359
5.12653
5.10855
5.08922
5.06937
5.04792
5.02414
4.99695
4.96626
4.93158
4.8935
4.85126
4.80477
4.75311
4.69581
4.63282
4.56319
4.48773
4.40348
4.31474
4.21323
4.10745
3.99013
3.87079
3.73415
3.59734
3.44877
1.40001
1.40001
1.40001
1.40001
1.40001
1.40001
1.40001
1.40001
1.40001
1.40001
1.40001
1.40001
1.40001
1.40001
1.40001
1.40001
1.40001
1.40001
1.40001
1.40001
1.40001
1.40001
1.40001
1.40001
1.40001
1.40001
1.40001
1.40001
1.40001
1.40001
1.40001
1.40001
1.40001
1.40001
1.40001
1.40001
1.40001
1.40001
1.40001
1.40001
1.40001
1.40001
1.40001
1.40001
1.40001
1.40001
1.40001
1.40001
1.40001
1.40001
1.40001
1.40001
1.40001
1.40001
1.4
1.40111
2.34928
4.88313
5.20798
5.19844
5.19838
5.1972
5.19315
5.18694
5.17813
5.16778
5.15607
5.1427
5.12695
5.10942
5.09069
5.07041
5.04855
5.02579
5.00137
4.97504
4.94556
4.91285
4.87676
4.83796
4.79572
4.74979
4.69939
4.64358
4.58282
4.51469
4.44227
4.35912
4.2734
4.17889
4.08074
3.97393
3.86663
3.74307
3.62287
3.49042
1.40001
1.40001
1.40001
1.40001
1.40001
1.40001
1.40001
1.40001
1.40001
1.40001
1.40001
1.40001
1.40001
1.40001
1.40001
1.40001
1.40001
1.40001
1.40001
1.40001
1.40001
1.40001
1.40001
1.40001
1.40001
1.40001
1.40001
1.40001
1.40001
1.40001
1.40001
1.40001
1.40001
1.40001
1.40001
1.40001
1.40001
1.40001
1.40001
1.40001
1.40001
1.40001
1.40001
1.40001
1.40001
1.40001
1.40001
1.40001
1.40001
1.40001
1.40001
1.40001
1.40001
1.40001
1.40001
1.40001
1.45707
3.42394
5.10735
5.19638
5.19534
5.19143
5.18421
5.17507
5.16386
5.15113
5.1368
5.12123
5.10329
5.08389
5.06363
5.04178
5.01779
4.99211
4.96418
4.93449
4.90248
4.86815
4.83063
4.79047
4.74742
4.70121
4.65158
4.59725
4.5396
4.4734
4.404
4.32479
4.24243
4.15518
4.06243
3.96407
3.86497
3.75354
3.64613
3.52623
1.40001
1.40001
1.40001
1.40001
1.40001
1.40001
1.40001
1.40001
1.40001
1.40001
1.40001
1.40001
1.40001
1.40001
1.40001
1.40001
1.40001
1.40001
1.40001
1.40001
1.40001
1.40001
1.40001
1.40001
1.40001
1.40001
1.40001
1.40001
1.40001
1.40001
1.40001
1.40001
1.40001
1.40001
1.40001
1.40001
1.40001
1.40001
1.40001
1.40001
1.40001
1.40001
1.40001
1.40001
1.40001
1.40001
1.40001
1.40001
1.40001
1.40001
1.40001
1.40001
1.40001
1.40001
1.40001
1.40001
1.40016
1.66974
4.32843
5.21438
5.19915
5.18345
5.16838
5.15611
5.1425
5.12775
5.11174
5.09465
5.07544
5.05528
5.03408
5.01118
4.98594
4.95857
4.92835
4.89634
4.86251
4.82672
4.78845
4.74744
4.7036
4.6571
4.60773
4.55465
4.49876
4.43518
4.36913
4.2964
4.21819
4.13782
4.05036
3.95976
3.86605
3.76585
3.66627
3.55822
1.40001
1.40001
1.40001
1.40001
1.40001
1.40001
1.40001
1.40001
1.40001
1.40001
1.40001
1.40001
1.40001
1.40001
1.40001
1.40001
1.40001
1.40001
1.40001
1.40001
1.40001
1.40001
1.40001
1.40001
1.40001
1.40001
1.40001
1.40001
1.40001
1.40001
1.40001
1.40001
1.40001
1.40001
1.40001
1.40001
1.40001
1.40001
1.40001
1.40001
1.40001
1.40001
1.40001
1.40001
1.40001
1.40001
1.40001
1.40001
1.40001
1.40001
1.40001
1.40001
1.40001
1.40001
1.40001
1.40001
1.40001
1.40384
2.51342
4.91936
5.15599
5.13718
5.13209
5.1236
5.11233
5.09939
5.08474
5.06866
5.05011
5.03036
5.00853
4.98479
4.95853
4.93017
4.89885
4.86562
4.83057
4.79378
4.7549
4.71305
4.66855
4.62158
4.57208
4.51913
4.4634
4.40253
4.33907
4.27162
4.1983
4.12418
4.04297
3.95955
3.87066
3.78005
3.68613
3.58912
1.40001
1.40001
1.40001
1.40001
1.40001
1.40001
1.40001
1.40001
1.40001
1.40001
1.40001
1.40001
1.40001
1.40001
1.40001
1.40001
1.40001
1.40001
1.40001
1.40001
1.40001
1.40001
1.40001
1.40001
1.40001
1.40001
1.40001
1.40001
1.40001
1.40001
1.40001
1.40001
1.40001
1.40001
1.40001
1.40001
1.40001
1.40001
1.40001
1.40001
1.40001
1.40001
1.40001
1.40001
1.40001
1.40001
1.40001
1.40001
1.40001
1.40001
1.40001
1.40001
1.40001
1.40001
1.40001
1.40001
1.40001
1.40001
1.4754
3.34456
5.05174
5.11034
5.11029
5.10853
5.09962
5.08719
5.07118
5.05313
5.03264
5.01125
4.98763
4.96234
4.93469
4.90519
4.87333
4.83978
4.80391
4.76642
4.72677
4.68445
4.63931
4.59197
4.54257
4.48944
4.43424
4.37517
4.31399
4.25017
4.18192
4.1126
4.0375
3.96001
3.87675
3.79347
3.70548
3.61823
1.40001
1.40001
1.40001
1.40001
1.40001
1.40001
1.40001
1.40001
1.40001
1.40001
1.40001
1.40001
1.40001
1.40001
1.40001
1.40001
1.40001
1.40001
1.40001
1.40001
1.40001
1.40001
1.40001
1.40001
1.40001
1.40001
1.40001
1.40001
1.40001
1.40001
1.40001
1.40001
1.40001
1.40001
1.40001
1.40001
1.40001
1.40001
1.40001
1.40001
1.40001
1.40001
1.40001
1.40001
1.40001
1.40001
1.40001
1.40001
1.40001
1.40001
1.40001
1.40001
1.40001
1.40001
1.40001
1.40001
1.40001
1.40001
1.40034
1.64028
3.90921
5.07776
5.11151
5.09777
5.08878
5.07573
5.05751
5.03749
5.01516
4.992
4.96714
4.94093
4.91261
4.88244
4.84976
4.8159
4.78027
4.74256
4.70307
4.66098
4.61618
4.56886
4.51928
4.4665
4.41189
4.35403
4.29501
4.23355
4.16951
4.10335
4.0333
3.9603
3.88308
3.80545
3.72397
3.64418
1.40001
1.40001
1.40001
1.40001
1.40001
1.40001
1.40001
1.40001
1.40001
1.40001
1.40001
1.40001
1.40001
1.40001
1.40001
1.40001
1.40001
1.40001
1.40001
1.40001
1.40001
1.40001
1.40001
1.40001
1.40001
1.40001
1.40001
1.40001
1.40001
1.40001
1.40001
1.40001
1.40001
1.40001
1.40001
1.40001
1.40001
1.40001
1.40001
1.40001
1.40001
1.40001
1.40001
1.40001
1.40001
1.40001
1.40001
1.40001
1.40001
1.40001
1.40001
1.40001
1.40001
1.40001
1.40001
1.40001
1.40001
1.40001
1.40001
1.40307
1.86206
4.53166
5.15565
5.11909
5.09037
5.06299
5.03733
5.01353
4.98994
4.96649
4.94238
4.91714
4.88991
4.8607
4.82905
4.79553
4.76042
4.72383
4.68397
4.64257
4.59777
4.55098
4.50168
4.44966
4.39593
4.33946
4.28231
4.22286
4.16191
4.09777
4.0311
3.96106
3.88958
3.81637
3.74106
3.66628
1.40001
1.40001
1.40001
1.40001
1.40001
1.40001
1.40001
1.40001
1.40001
1.40001
1.40001
1.40001
1.40001
1.40001
1.40001
1.40001
1.40001
1.40001
1.40001
1.40001
1.40001
1.40001
1.40001
1.40001
1.40001
1.40001
1.40001
1.40001
1.40001
1.40001
1.40001
1.40001
1.40001
1.40001
1.40001
1.40001
1.40001
1.40001
1.40001
1.40001
1.40001
1.40001
1.40001
1.40001
1.40001
1.40001
1.40001
1.40001
1.40001
1.40001
1.40001
1.40001
1.40001
1.40001
1.40001
1.40001
1.40001
1.40001
1.40001
1.40001
1.41181
2.59221
4.8859
5.08188
5.05147
5.02759
5.0052
4.98429
4.96275
4.9415
4.91878
4.89479
4.86874
4.84051
4.8098
4.77667
4.74148
4.7052
4.66663
4.62569
4.58208
4.53613
4.48758
4.4364
4.38346
4.32884
4.27342
4.21636
4.1578
4.09581
4.03152
3.96431
3.89712
3.82738
3.75697
3.68569
1.40001
1.40001
1.40001
1.40001
1.40001
1.40001
1.40001
1.40001
1.40001
1.40001
1.40001
1.40001
1.40001
1.40001
1.40001
1.40001
1.40001
1.40001
1.40001
1.40001
1.40001
1.40001
1.40001
1.40001
1.40001
1.40001
1.40001
1.40001
1.40001
1.40001
1.40001
1.40001
1.40001
1.40001
1.40001
1.40001
1.40001
1.40001
1.40001
1.40001
1.40001
1.40001
1.40001
1.40001
1.40001
1.40001
1.40001
1.40001
1.40001
1.40001
1.40001
1.40001
1.40001
1.40001
1.40001
1.40001
1.40001
1.40001
1.40001
1.40001
1.40003
1.48164
3.15552
4.95703
5.01867
4.99772
4.98933
4.97469
4.95614
4.93496
4.91143
4.88605
4.8588
4.82955
4.79821
4.76469
4.72935
4.69284
4.65466
4.61404
4.57098
4.52574
4.47816
4.42806
4.37584
4.32257
4.26867
4.21391
4.15686
4.09662
4.03448
3.97035
3.90568
3.83882
3.77201
3.70364
1.40001
1.40001
1.40001
1.40001
1.40001
1.40001
1.40001
1.40001
1.40001
1.40001
1.40001
1.40001
1.40001
1.40001
1.40001
1.40001
1.40001
1.40001
1.40001
1.40001
1.40001
1.40001
1.40001
1.40001
1.40001
1.40001
1.40001
1.40001
1.40001
1.40001
1.40001
1.40001
1.40001
1.40001
1.40001
1.40001
1.40001
1.40001
1.40001
1.40001
1.40001
1.40001
1.40001
1.40001
1.40001
1.40001
1.40001
1.40001
1.40001
1.40001
1.40001
1.40001
1.40001
1.40001
1.40001
1.40001
1.40001
1.40001
1.40001
1.40001
1.40001
1.40046
1.58792
3.50102
4.95239
4.97956
4.97081
4.96195
4.94612
4.9265
4.90327
4.87752
4.84962
4.81979
4.78791
4.75416
4.71894
4.68233
4.64395
4.60338
4.56079
4.51629
4.46973
4.42094
4.37012
4.3182
4.26586
4.21281
4.15695
4.09881
4.03938
3.97827
3.91562
3.85173
3.78768
3.72225
1.40001
1.40001
1.40001
1.40001
1.40001
1.40001
1.40001
1.40001
1.40001
1.40001
1.40001
1.40001
1.40001
1.40001
1.40001
1.40001
1.40001
1.40001
1.40001
1.40001
1.40001
1.40001
1.40001
1.40001
1.40001
1.40001
1.40001
1.40001
1.40001
1.40001
1.40001
1.40001
1.40001
1.40001
1.40001
1.40001
1.40001
1.40001
1.40001
1.40001
1.40001
1.40001
1.40001
1.40001
1.40001
1.40001
1.40001
1.40001
1.40001
1.40001
1.40001
1.40001
1.40001
1.40001
1.40001
1.40001
1.40001
1.40001
1.40001
1.40001
1.40001
1.40001
1.40201
1.69158
3.7498
4.96673
4.96916
4.9558
4.93826
4.91721
4.89389
4.86869
4.84149
4.81185
4.78018
4.74677
4.71195
4.67546
4.63711
4.59686
4.55476
4.51081
4.46493
4.41711
4.36771
4.31703
4.2657
4.21343
4.15904
4.1031
4.04612
3.98746
3.92675
3.86567
3.80416
3.74173
1.40001
1.40001
1.40001
1.40001
1.40001
1.40001
1.40001
1.40001
1.40001
1.40001
1.40001
1.40001
1.40001
1.40001
1.40001
1.40001
1.40001
1.40001
1.40001
1.40001
1.40001
1.40001
1.40001
1.40001
1.40001
1.40001
1.40001
1.40001
1.40001
1.40001
1.40001
1.40001
1.40001
1.40001
1.40001
1.40001
1.40001
1.40001
1.40001
1.40001
1.40001
1.40001
1.40001
1.40001
1.40001
1.40001
1.40001
1.40001
1.40001
1.40001
1.40001
1.40001
1.40001
1.40001
1.40001
1.40001
1.40001
1.40001
1.40001
1.40001
1.40001
1.40001
1.40001
1.40468
1.78951
3.9593
4.97474
4.96226
4.93787
4.91225
4.88585
4.85946
4.83135
4.80165
4.77055
4.73835
4.70461
4.6688
4.63103
4.5914
4.54993
4.5066
4.46139
4.41458
4.36654
4.31711
4.26689
4.21591
4.16339
4.10912
4.05409
3.99743
3.93875
3.88009
3.82122
3.76153
1.40001
1.40001
1.40001
1.40001
1.40001
1.40001
1.40001
1.40001
1.40001
1.40001
1.40001
1.40001
1.40001
1.40001
1.40001
1.40001
1.40001
1.40001
1.40001
1.40001
1.40001
1.40001
1.40001
1.40001
1.40001
1.40001
1.40001
1.40001
1.40001
1.40001
1.40001
1.40001
1.40001
1.40001
1.40001
1.40001
1.40001
1.40001
1.40001
1.40001
1.40001
1.40001
1.40001
1.40001
1.40001
1.40001
1.40001
1.40001
1.40001
1.40001
1.40001
1.40001
1.40001
1.40001
1.40001
1.40001
1.40001
1.40001
1.40001
1.40001
1.40001
1.40001
1.40001
1.40001
1.40824
1.88518
4.12018
4.97028
4.95036
4.9195
4.8901
4.85957
4.82784
4.79626
4.76443
4.73197
4.69806
4.66237
4.62515
4.58636
4.54591
4.50351
4.45931
4.41366
4.36687
4.31898
4.27018
4.22042
4.16932
4.11656
4.06325
4.00861
3.95223
3.89566
3.83931
3.78198
1.40001
1.40001
1.40001
1.40001
1.40001
1.40001
1.40001
1.40001
1.40001
1.40001
1.40001
1.40001
1.40001
1.40001
1.40001
1.40001
1.40001
1.40001
1.40001
1.40001
1.40001
1.40001
1.40001
1.40001
1.40001
1.40001
1.40001
1.40001
1.40001
1.40001
1.40001
1.40001
1.40001
1.40001
1.40001
1.40001
1.40001
1.40001
1.40001
1.40001