/*--------------------------------*- C++ -*----------------------------------*\
  =========                 |
  \\      /  F ield         | OpenFOAM: The Open Source CFD Toolbox
   \\    /   O peration     | Website:  https://openfoam.org
    \\  /    A nd           | Version:  7
     \\/     M anipulation  |
\*---------------------------------------------------------------------------*/
FoamFile
{
    version     2.0;
    format      ascii;
    class       volVectorField;
    location    "3.3";
    object      U;
}
// * * * * * * * * * * * * * * * * * * * * * * * * * * * * * * * * * * * * * //

dimensions      [0 1 -1 0 0 0 0];

internalField   nonuniform List<vector> 
19968
(
(3 6.29585e-17 0)
(3 -1.01149e-16 0)
(3 1.11642e-16 0)
(3 2.32342e-16 0)
(3 1.11287e-16 0)
(3 6.68064e-17 0)
(3 1.04412e-16 0)
(3 1.40528e-16 0)
(3 6.95139e-16 0)
(3 8.00108e-16 0)
(3 9.45258e-16 0)
(3 6.76065e-16 0)
(3 8.57767e-16 0)
(3 1.09218e-15 0)
(3 4.10077e-16 0)
(3 8.31705e-16 0)
(3 1.93955e-15 0)
(3 2.10668e-15 0)
(3 1.45293e-15 0)
(3 -5.37921e-16 0)
(3 -3.46467e-16 0)
(3 4.3518e-16 0)
(3 -3.28213e-17 0)
(3 -3.9133e-16 0)
(3 -5.02253e-16 0)
(3 -1.9162e-16 0)
(3 8.39957e-16 0)
(3 6.75529e-16 0)
(3 4.93701e-16 0)
(3 -6.24149e-17 0)
(3 -5.9244e-16 0)
(3 -5.41735e-16 0)
(3 -5.27954e-16 0)
(3 -7.22493e-16 0)
(3 -8.87657e-16 0)
(3 -9.60366e-16 0)
(3 2.76619e-16 0)
(3 2.74929e-16 0)
(3 1.04665e-16 0)
(3 -1.12727e-16 0)
(3 -6.59321e-16 0)
(3 -1.71518e-15 0)
(3 -1.13061e-15 0)
(3 -3.741e-16 0)
(3 -4.55202e-16 0)
(3 -5.98581e-16 0)
(3 -2.03826e-16 0)
(3 1.29475e-16 0)
(2.9475 -0.00667345 0)
(1.07235 0.00605268 0)
(0.764466 0.00569522 0)
(0.747665 0.00886097 0)
(0.732298 0.00906912 0)
(0.71666 0.00901654 0)
(0.700541 0.00894284 0)
(0.684097 0.00880852 0)
(0.667946 0.00854316 0)
(0.652734 0.00824066 0)
(0.638629 0.00805442 0)
(0.625294 0.0080936 0)
(0.612027 0.00843168 0)
(0.59799 0.00903095 0)
(0.58269 0.00962431 0)
(0.56652 0.00979463 0)
(0.550628 0.00940221 0)
(0.535846 0.00891214 0)
(0.521959 0.00882726 0)
(0.508062 0.00925239 0)
(0.493196 0.00993159 0)
(0.477089 0.010302 0)
(0.460498 0.00999812 0)
(0.44423 0.00964733 0)
(0.428118 0.00992738 0)
(0.411704 0.0104704 0)
(0.39522 0.0106692 0)
(0.379204 0.0106417 0)
(0.363614 0.0107656 0)
(0.348062 0.0109826 0)
(0.332339 0.0111425 0)
(0.316321 0.0112566 0)
(0.299852 0.0113689 0)
(0.282867 0.0114891 0)
(0.265465 0.0116217 0)
(0.247846 0.0117737 0)
(0.230166 0.0119604 0)
(0.212444 0.012181 0)
(0.194547 0.0124298 0)
(0.17624 0.0127054 0)
(0.15732 0.013009 0)
(0.137709 0.0133508 0)
(0.117491 0.0137307 0)
(0.0968205 0.0141114 0)
(0.0758286 0.0144475 0)
(0.0545266 0.0147524 0)
(0.0328922 0.014875 0)
(0.0112419 0.0150231 0)
(3 -1.30001e-17 0)
(3 -1.12131e-16 0)
(3 4.53857e-16 0)
(3 8.44483e-16 0)
(3 1.08969e-15 0)
(3 1.21942e-15 0)
(3 1.14712e-15 0)
(3 1.47233e-15 0)
(3 1.87668e-15 0)
(3 1.89485e-15 0)
(3 1.85618e-15 0)
(3 1.568e-15 0)
(3 1.41907e-15 0)
(3 2.37793e-15 0)
(3 2.75006e-15 0)
(3 1.98974e-15 0)
(3 2.29973e-15 0)
(3 2.92098e-15 0)
(3 6.78241e-16 0)
(3 -1.44557e-15 0)
(3 -1.03987e-15 0)
(3 -5.22437e-16 0)
(3 -6.82695e-16 0)
(3 -7.53911e-16 0)
(3 -3.16838e-16 0)
(3 3.90939e-16 0)
(3 2.27413e-16 0)
(3 1.04975e-16 0)
(3 -4.71702e-16 0)
(3 -7.25097e-16 0)
(3 -7.13071e-16 0)
(3 -9.44787e-16 0)
(3 -6.82084e-16 0)
(3 -9.33615e-16 0)
(3 -1.48074e-15 0)
(3 -1.48971e-15 0)
(3 -8.10572e-16 0)
(3 -1.00106e-15 0)
(3 -1.21546e-15 0)
(3 -1.2417e-15 0)
(3 -1.36115e-15 0)
(3 -9.9905e-16 0)
(3 -9.98772e-16 0)
(3 -1.42521e-15 0)
(3 -1.71627e-15 0)
(3 -1.29072e-15 0)
(3 -6.83508e-16 0)
(3 -7.51141e-17 0)
(2.96076 -0.00536981 0)
(1.07373 0.0293379 0)
(0.758723 0.0231945 0)
(0.7424 0.0240913 0)
(0.729353 0.0258932 0)
(0.714881 0.0266596 0)
(0.699359 0.0272035 0)
(0.682927 0.0272898 0)
(0.666418 0.0267109 0)
(0.650717 0.0257098 0)
(0.636158 0.0249437 0)
(0.622425 0.0249039 0)
(0.608818 0.025799 0)
(0.594545 0.0275041 0)
(0.579102 0.0292448 0)
(0.56278 0.0298324 0)
(0.546686 0.0287508 0)
(0.531646 0.0271901 0)
(0.51748 0.0267222 0)
(0.503446 0.0278329 0)
(0.488636 0.0298056 0)
(0.472613 0.0309688 0)
(0.456081 0.0302097 0)
(0.43974 0.0292167 0)
(0.423529 0.0299267 0)
(0.407142 0.0314698 0)
(0.390678 0.0320393 0)
(0.374646 0.0319883 0)
(0.358981 0.0323909 0)
(0.343335 0.0330828 0)
(0.32751 0.0336233 0)
(0.311407 0.0340418 0)
(0.294904 0.0344441 0)
(0.277972 0.0348473 0)
(0.260729 0.0352735 0)
(0.243356 0.0357522 0)
(0.22598 0.0363319 0)
(0.208595 0.0370122 0)
(0.191071 0.0377785 0)
(0.173193 0.0386349 0)
(0.154771 0.0395916 0)
(0.13571 0.040687 0)
(0.116048 0.0419154 0)
(0.0958877 0.0431682 0)
(0.0753082 0.0443133 0)
(0.0543029 0.045381 0)
(0.0328357 0.0458915 0)
(0.0112657 0.0465005 0)
(3 -3.59046e-17 0)
(3 4.88113e-16 0)
(3 5.74739e-16 0)
(3 8.26677e-16 0)
(3 1.36364e-15 0)
(3 1.50773e-15 0)
(3 1.56573e-15 0)
(3 1.6809e-15 0)
(3 5.35241e-16 0)
(3 3.84445e-16 0)
(3 3.32436e-16 0)
(3 4.35203e-16 0)
(3 1.0215e-15 0)
(3 1.18068e-15 0)
(3 1.04751e-15 0)
(3 1.09249e-15 0)
(3 2.09095e-16 0)
(3 -5.96006e-16 0)
(3 -9.23846e-16 0)
(3 -1.01531e-15 0)
(3 -1.12007e-15 0)
(3 -1.19889e-15 0)
(3 -1.27109e-15 0)
(3 -5.37449e-16 0)
(3 -7.99957e-16 0)
(3 -1.37339e-15 0)
(3 -2.03141e-15 0)
(3 -2.01649e-15 0)
(3 -1.73158e-15 0)
(3 -1.02685e-15 0)
(3 -9.50538e-16 0)
(3 -1.14977e-15 0)
(3 -7.48853e-16 0)
(3 -3.31551e-16 0)
(3 -4.92931e-16 0)
(3 -1.61045e-15 0)
(3 -2.64043e-15 0)
(3 -1.60386e-15 0)
(3 -1.29597e-15 0)
(3 -1.38255e-15 0)
(3 -1.29856e-15 0)
(3 -1.31526e-15 0)
(3 -5.14041e-16 0)
(3 8.49944e-17 0)
(3 8.81633e-16 0)
(3 1.30247e-15 0)
(3 1.08592e-15 0)
(3 -1.29141e-16 0)
(2.99769 0.00233461 0)
(1.10655 0.0503507 0)
(0.765053 0.0404861 0)
(0.747145 0.0393693 0)
(0.734251 0.0424249 0)
(0.719513 0.0442164 0)
(0.703833 0.0459388 0)
(0.686955 0.0467695 0)
(0.669808 0.0462873 0)
(0.653364 0.044769 0)
(0.638076 0.0433994 0)
(0.623694 0.0432217 0)
(0.60956 0.0446024 0)
(0.594952 0.047321 0)
(0.579313 0.0501472 0)
(0.562757 0.0512306 0)
(0.546336 0.0496929 0)
(0.530864 0.0472089 0)
(0.516167 0.0463018 0)
(0.501772 0.0479276 0)
(0.486899 0.0510361 0)
(0.470849 0.0529927 0)
(0.45427 0.051986 0)
(0.437745 0.0505385 0)
(0.421301 0.0516666 0)
(0.404818 0.054117 0)
(0.388205 0.0550192 0)
(0.371965 0.054911 0)
(0.356012 0.0555213 0)
(0.340035 0.0565898 0)
(0.323837 0.0574153 0)
(0.30735 0.0580587 0)
(0.29049 0.0586821 0)
(0.273272 0.0592973 0)
(0.255834 0.0599365 0)
(0.238343 0.0606444 0)
(0.220901 0.0615002 0)
(0.203501 0.0625115 0)
(0.186034 0.063667 0)
(0.168328 0.0649917 0)
(0.150227 0.0665131 0)
(0.131632 0.0683061 0)
(0.112542 0.0703647 0)
(0.093012 0.0725249 0)
(0.0730823 0.0745695 0)
(0.0527408 0.0765376 0)
(0.0319005 0.0775849 0)
(0.0109714 0.0788376 0)
(3 3.99925e-17 0)
(3 4.2389e-16 0)
(3 4.90823e-16 0)
(3 4.25787e-16 0)
(3 8.72869e-16 0)
(3 8.94904e-16 0)
(3 8.43839e-16 0)
(3 4.8945e-16 0)
(3 -1.78093e-16 0)
(3 -6.58102e-16 0)
(3 -1.95451e-17 0)
(3 7.40925e-16 0)
(3 1.35073e-15 0)
(3 1.18709e-15 0)
(3 6.85596e-16 0)
(3 9.06677e-17 0)
(3 -8.20185e-16 0)
(3 -9.63218e-16 0)
(3 -6.16178e-16 0)
(3 -1.61669e-16 0)
(3 1.09833e-16 0)
(3 -4.35494e-16 0)
(3 -1.02728e-15 0)
(3 -1.31519e-15 0)
(3 -1.33412e-15 0)
(3 -1.33424e-15 0)
(3 -6.27118e-16 0)
(3 -4.9568e-16 0)
(3 -6.89421e-16 0)
(3 -1.43012e-15 0)
(3 -1.55847e-15 0)
(3 -1.20417e-15 0)
(3 -1.0479e-15 0)
(3 -5.64105e-16 0)
(3 -5.44178e-16 0)
(3 -9.81403e-16 0)
(3 -8.23778e-16 0)
(3 -2.73772e-16 0)
(3 3.58854e-17 0)
(3 -3.74645e-17 0)
(3 -6.15012e-16 0)
(3 -5.8873e-16 0)
(3 7.16281e-16 0)
(3 3.06183e-15 0)
(3 3.35017e-15 0)
(3 3.07868e-15 0)
(3 1.95392e-15 0)
(3 1.77703e-15 0)
(3 9.94682e-06 0)
(1.15956 0.0712284 0)
(0.767938 0.059577 0)
(0.747087 0.0560918 0)
(0.734055 0.0604467 0)
(0.718791 0.063347 0)
(0.703087 0.0663237 0)
(0.686259 0.0679261 0)
(0.669269 0.0674938 0)
(0.652993 0.065349 0)
(0.637879 0.0631051 0)
(0.623719 0.0624901 0)
(0.609943 0.0641369 0)
(0.595885 0.0677242 0)
(0.580858 0.0716092 0)
(0.564707 0.0733738 0)
(0.54841 0.0717528 0)
(0.532873 0.068557 0)
(0.517952 0.0671439 0)
(0.503481 0.0690856 0)
(0.488877 0.073154 0)
(0.473097 0.07594 0)
(0.456683 0.074955 0)
(0.440164 0.0732602 0)
(0.423655 0.0747962 0)
(0.407245 0.0781192 0)
(0.390574 0.0794559 0)
(0.374153 0.0794043 0)
(0.357904 0.0802773 0)
(0.341571 0.0817547 0)
(0.324954 0.0829213 0)
(0.308016 0.0838698 0)
(0.290711 0.0847977 0)
(0.273089 0.0856928 0)
(0.255288 0.0865909 0)
(0.23745 0.0875429 0)
(0.21965 0.0886474 0)
(0.201886 0.0899134 0)
(0.184087 0.0913267 0)
(0.166144 0.0929384 0)
(0.147953 0.0948031 0)
(0.129428 0.0970592 0)
(0.110535 0.0997304 0)
(0.0912852 0.102638 0)
(0.0716805 0.105491 0)
(0.0517253 0.108346 0)
(0.0312571 0.109971 0)
(0.0107779 0.111953 0)
(3 -6.84503e-17 0)
(3 -2.90735e-16 0)
(3 -8.27364e-16 0)
(3 -1.20103e-15 0)
(3 -1.03284e-15 0)
(3 -2.91047e-16 0)
(3 -1.37963e-16 0)
(3 8.12616e-17 0)
(3 4.46299e-16 0)
(3 9.87236e-16 0)
(3 1.53448e-15 0)
(3 1.70465e-15 0)
(3 1.24067e-15 0)
(3 6.62064e-16 0)
(3 5.40935e-16 0)
(3 2.62505e-16 0)
(3 -2.88879e-16 0)
(3 -5.60984e-16 0)
(3 -4.27177e-16 0)
(3 5.26024e-17 0)
(3 7.75664e-16 0)
(3 2.48675e-16 0)
(3 -1.3536e-16 0)
(3 -4.73322e-16 0)
(3 -2.04549e-16 0)
(3 3.27373e-16 0)
(3 4.92569e-16 0)
(3 2.97147e-16 0)
(3 -7.78663e-16 0)
(3 -1.7593e-15 0)
(3 -2.03574e-15 0)
(3 -2.34139e-15 0)
(3 -2.8387e-15 0)
(3 -2.81881e-15 0)
(3 -2.09936e-15 0)
(3 -1.43217e-15 0)
(3 -4.73202e-16 0)
(3 -7.62581e-16 0)
(3 -6.81445e-16 0)
(3 8.07928e-17 0)
(3 7.23535e-16 0)
(3 1.61142e-15 0)
(3 2.34858e-15 0)
(3 2.45331e-15 0)
(3 2.22019e-15 0)
(3 1.53974e-15 0)
(3 1.34251e-15 0)
(3 7.55831e-16 0)
(3 2.88579e-08 0)
(1.24399 0.0940738 0)
(0.77232 0.0810778 0)
(0.746927 0.0740862 0)
(0.734043 0.0791389 0)
(0.71899 0.0830129 0)
(0.703775 0.0870649 0)
(0.687231 0.0893809 0)
(0.670307 0.0892154 0)
(0.653809 0.0867516 0)
(0.638319 0.0836606 0)
(0.623776 0.0823379 0)
(0.609845 0.083953 0)
(0.59604 0.0882313 0)
(0.581547 0.0932245 0)
(0.565817 0.0959797 0)
(0.54963 0.094781 0)
(0.534038 0.0911954 0)
(0.518925 0.089204 0)
(0.504377 0.0911965 0)
(0.490107 0.0960289 0)
(0.474695 0.099704 0)
(0.458494 0.0990535 0)
(0.442083 0.0972676 0)
(0.425651 0.0991056 0)
(0.40951 0.103205 0)
(0.39298 0.105059 0)
(0.376572 0.105137 0)
(0.360257 0.10625 0)
(0.34383 0.108107 0)
(0.327075 0.109639 0)
(0.309972 0.110968 0)
(0.292491 0.112303 0)
(0.274682 0.11359 0)
(0.256667 0.114862 0)
(0.238552 0.116166 0)
(0.220395 0.117608 0)
(0.202211 0.119187 0)
(0.183984 0.12087 0)
(0.165675 0.122724 0)
(0.147241 0.124824 0)
(0.128619 0.127387 0)
(0.109742 0.130489 0)
(0.0905736 0.133991 0)
(0.0710711 0.137542 0)
(0.0512809 0.141261 0)
(0.0309455 0.143507 0)
(0.0107113 0.146282 0)
(3 7.70957e-17 0)
(3 2.12808e-16 0)
(3 -1.06514e-16 0)
(3 -4.64217e-16 0)
(3 -1.32211e-15 0)
(3 -1.31791e-15 0)
(3 -8.96095e-16 0)
(3 -8.3137e-16 0)
(3 -1.81086e-16 0)
(3 5.418e-17 0)
(3 2.30261e-16 0)
(3 2.13708e-16 0)
(3 -6.47839e-16 0)
(3 -3.3775e-16 0)
(3 1.77018e-16 0)
(3 5.97386e-16 0)
(3 6.95975e-16 0)
(3 5.81939e-16 0)
(3 3.04031e-16 0)
(3 6.62246e-17 0)
(3 -7.41398e-16 0)
(3 -3.3058e-17 0)
(3 3.73417e-16 0)
(3 9.97538e-16 0)
(3 2.42329e-17 0)
(3 -3.60117e-16 0)
(3 -1.35747e-15 0)
(3 -9.11646e-16 0)
(3 -5.1384e-16 0)
(3 1.55612e-16 0)
(3 -2.5243e-16 0)
(3 -1.28437e-15 0)
(3 -2.10169e-15 0)
(3 -3.04089e-15 0)
(3 -2.13477e-15 0)
(3 -7.73537e-17 0)
(3 5.01258e-16 0)
(3 3.49275e-16 0)
(3 -3.9268e-16 0)
(3 1.98338e-16 0)
(3 1.61403e-15 0)
(3 1.89508e-15 0)
(3 1.90205e-15 0)
(3 1.17902e-15 0)
(3 1.23518e-15 0)
(3 1.02991e-15 0)
(3 8.14221e-16 0)
(3 8.06462e-16 0)
(3 5.30832e-11 0)
(1.37191 0.118489 0)
(0.779948 0.105764 0)
(0.74848 0.0936879 0)
(0.735061 0.0984473 0)
(0.720024 0.103149 0)
(0.705017 0.108492 0)
(0.688485 0.111941 0)
(0.671409 0.112518 0)
(0.654536 0.110145 0)
(0.638553 0.106305 0)
(0.623479 0.103862 0)
(0.609161 0.104815 0)
(0.595398 0.109252 0)
(0.581398 0.115181 0)
(0.566157 0.119185 0)
(0.550077 0.118972 0)
(0.534351 0.11547 0)
(0.518982 0.112921 0)
(0.504184 0.114663 0)
(0.490087 0.120012 0)
(0.47499 0.124619 0)
(0.458895 0.124607 0)
(0.442509 0.122835 0)
(0.426044 0.1248 0)
(0.410062 0.129563 0)
(0.393563 0.132063 0)
(0.377029 0.132396 0)
(0.360542 0.133764 0)
(0.343955 0.136015 0)
(0.327024 0.137982 0)
(0.309736 0.139794 0)
(0.292061 0.141647 0)
(0.274027 0.143424 0)
(0.255743 0.145155 0)
(0.237293 0.146886 0)
(0.218741 0.148716 0)
(0.200132 0.150629 0)
(0.181507 0.152551 0)
(0.162897 0.154559 0)
(0.144304 0.156737 0)
(0.125696 0.159394 0)
(0.106984 0.16269 0)
(0.0881014 0.166569 0)
(0.0689701 0.17064 0)
(0.0497024 0.175148 0)
(0.0299146 0.178026 0)
(0.010405 0.181598 0)
(3 1.73026e-17 0)
(3 3.80075e-18 0)
(3 5.10998e-17 0)
(3 2.93351e-16 0)
(3 -2.90097e-16 0)
(3 -7.61867e-16 0)
(3 -8.13904e-16 0)
(3 -6.72999e-16 0)
(3 -4.92486e-16 0)
(3 -1.10997e-15 0)
(3 -1.37759e-15 0)
(3 -1.35418e-15 0)
(3 -7.22712e-16 0)
(3 -6.33804e-16 0)
(3 -6.15317e-16 0)
(3 -3.95042e-16 0)
(3 1.79947e-16 0)
(3 7.68085e-16 0)
(3 6.70211e-16 0)
(3 3.69708e-16 0)
(3 3.32393e-16 0)
(3 8.7464e-16 0)
(3 1.47801e-15 0)
(3 1.71491e-15 0)
(3 3.62641e-16 0)
(3 -1.02027e-15 0)
(3 -1.01205e-15 0)
(3 -4.16792e-16 0)
(3 6.88364e-16 0)
(3 1.25848e-15 0)
(3 1.16602e-15 0)
(3 6.12681e-16 0)
(3 4.47232e-17 0)
(3 4.1789e-16 0)
(3 6.10095e-16 0)
(3 5.93638e-16 0)
(3 1.60625e-16 0)
(3 -4.64794e-16 0)
(3 -1.12396e-15 0)
(3 -1.32264e-15 0)
(3 -2.12576e-16 0)
(3 8.97625e-16 0)
(3 1.13849e-15 0)
(3 8.4383e-16 0)
(3 1.17711e-15 0)
(3 1.58041e-15 0)
(3 1.24988e-15 0)
(3 1.41608e-15 0)
(3 1.06991e-13 0)
(1.5612 0.142213 0)
(0.794145 0.13287 0)
(0.753289 0.115343 0)
(0.738936 0.119185 0)
(0.723577 0.124261 0)
(0.708815 0.130707 0)
(0.692678 0.135434 0)
(0.675901 0.137001 0)
(0.659067 0.135109 0)
(0.642816 0.130934 0)
(0.627247 0.127315 0)
(0.612329 0.127079 0)
(0.598237 0.131019 0)
(0.584563 0.137477 0)
(0.569984 0.142815 0)
(0.554299 0.144052 0)
(0.538708 0.141149 0)
(0.523449 0.138095 0)
(0.508692 0.139233 0)
(0.495036 0.14469 0)
(0.480657 0.150111 0)
(0.464993 0.15104 0)
(0.448903 0.149373 0)
(0.432608 0.151298 0)
(0.416924 0.156588 0)
(0.400601 0.159948 0)
(0.383997 0.160769 0)
(0.36739 0.162497 0)
(0.350686 0.165236 0)
(0.333606 0.167787 0)
(0.316136 0.170253 0)
(0.29824 0.172797 0)
(0.279909 0.175225 0)
(0.261228 0.177561 0)
(0.24227 0.179854 0)
(0.223101 0.182201 0)
(0.203787 0.184568 0)
(0.184408 0.186822 0)
(0.16506 0.189018 0)
(0.145796 0.191214 0)
(0.126627 0.193794 0)
(0.107466 0.197007 0)
(0.0882522 0.200934 0)
(0.0688813 0.205155 0)
(0.0495375 0.210166 0)
(0.0297307 0.213525 0)
(0.0103757 0.21775 0)
(3 -1.7183e-16 0)
(3 -3.30379e-16 0)
(3 -5.11311e-16 0)
(3 -5.05202e-16 0)
(3 -2.23824e-16 0)
(3 -4.79231e-16 0)
(3 -8.07757e-16 0)
(3 -7.71465e-16 0)
(3 -8.3726e-16 0)
(3 -1.29843e-15 0)
(3 -1.73366e-15 0)
(3 -1.94529e-15 0)
(3 -1.67973e-15 0)
(3 -1.62488e-15 0)
(3 -1.43689e-15 0)
(3 -1.41534e-15 0)
(3 -9.85711e-16 0)
(3 -8.88655e-16 0)
(3 -1.04123e-15 0)
(3 -3.99808e-16 0)
(3 8.20816e-16 0)
(3 1.00437e-15 0)
(3 9.46906e-16 0)
(3 7.57204e-16 0)
(3 2.74103e-16 0)
(3 -1.83309e-16 0)
(3 -6.95012e-16 0)
(3 -8.48187e-16 0)
(3 -6.53692e-16 0)
(3 2.22301e-16 0)
(3 8.82179e-16 0)
(3 8.23571e-16 0)
(3 9.86216e-16 0)
(3 1.76974e-15 0)
(3 2.8187e-15 0)
(3 1.97938e-15 0)
(3 4.05874e-16 0)
(3 -7.72829e-16 0)
(3 -1.11447e-15 0)
(3 -1.5203e-16 0)
(3 2.06389e-15 0)
(3 2.05386e-15 0)
(3 1.26213e-15 0)
(3 2.01751e-16 0)
(3 -4.55676e-16 0)
(3 2.59766e-17 0)
(3 -2.6683e-16 0)
(3 8.48373e-16 0)
(3 -2.94417e-15 0)
(1.82731 0.161272 0)
(0.818879 0.161221 0)
(0.758485 0.140923 0)
(0.7425 0.142763 0)
(0.726349 0.146826 0)
(0.711604 0.153279 0)
(0.696102 0.159006 0)
(0.679874 0.161818 0)
(0.66325 0.161103 0)
(0.646715 0.157546 0)
(0.630534 0.153325 0)
(0.614784 0.151644 0)
(0.59985 0.154361 0)
(0.585898 0.160672 0)
(0.571688 0.167156 0)
(0.556263 0.170071 0)
(0.540508 0.168272 0)
(0.525115 0.164867 0)
(0.510041 0.164969 0)
(0.496405 0.170096 0)
(0.482666 0.176271 0)
(0.467443 0.178468 0)
(0.451701 0.177068 0)
(0.435697 0.178751 0)
(0.420519 0.184417 0)
(0.404789 0.188852 0)
(0.388557 0.190411 0)
(0.372335 0.192599 0)
(0.356078 0.195913 0)
(0.33943 0.199177 0)
(0.322344 0.202434 0)
(0.304769 0.20583 0)
(0.286634 0.209087 0)
(0.267994 0.21221 0)
(0.24891 0.215256 0)
(0.229454 0.218316 0)
(0.209702 0.221348 0)
(0.189752 0.224145 0)
(0.169743 0.226711 0)
(0.149772 0.229045 0)
(0.129899 0.231556 0)
(0.110074 0.234582 0)
(0.0902395 0.238315 0)
(0.0702856 0.242317 0)
(0.0504845 0.247502 0)
(0.0302699 0.251121 0)
(0.0105519 0.255781 0)
(3 2.73932e-16 0)
(3 1.67119e-16 0)
(3 2.45913e-16 0)
(3 4.09421e-17 0)
(3 1.34352e-16 0)
(3 4.01243e-16 0)
(3 4.33035e-16 0)
(3 2.94426e-16 0)
(3 -2.56786e-17 0)
(3 5.49845e-17 0)
(3 6.77579e-17 0)
(3 2.98608e-16 0)
(3 -7.17431e-16 0)
(3 -8.55682e-16 0)
(3 -7.00807e-16 0)
(3 -7.84209e-16 0)
(3 -1.33243e-15 0)
(3 -1.41417e-15 0)
(3 -1.18041e-15 0)
(3 -9.0329e-16 0)
(3 -1.08095e-15 0)
(3 -1.39106e-15 0)
(3 -1.29465e-15 0)
(3 -6.94902e-16 0)
(3 -1.81296e-16 0)
(3 3.7785e-16 0)
(3 7.45625e-16 0)
(3 -2.11725e-16 0)
(3 -5.14696e-16 0)
(3 2.81141e-16 0)
(3 1.00751e-15 0)
(3 1.23285e-15 0)
(3 1.78653e-15 0)
(3 2.36462e-15 0)
(3 9.67351e-16 0)
(3 5.74363e-16 0)
(3 4.00549e-16 0)
(3 -4.65699e-17 0)
(3 -9.20651e-17 0)
(3 -1.54731e-17 0)
(3 -1.63975e-16 0)
(3 -4.96106e-17 0)
(3 -3.80571e-16 0)
(3 -1.04465e-15 0)
(3 -1.63734e-15 0)
(3 -1.24591e-15 0)
(3 -7.54603e-16 0)
(3 8.56507e-16 0)
(3 -1.27391e-15 0)
(2.17847 0.172008 0)
(0.856781 0.195848 0)
(0.755796 0.1718 0)
(0.739855 0.169931 0)
(0.725105 0.172386 0)
(0.711666 0.177882 0)
(0.697949 0.183917 0)
(0.683491 0.187994 0)
(0.668192 0.188961 0)
(0.652349 0.186782 0)
(0.636445 0.182691 0)
(0.620664 0.179665 0)
(0.605381 0.180674 0)
(0.591239 0.186131 0)
(0.577489 0.193337 0)
(0.562469 0.198082 0)
(0.546391 0.197973 0)
(0.530441 0.194628 0)
(0.514559 0.193297 0)
(0.500104 0.197309 0)
(0.486423 0.203804 0)
(0.471225 0.207354 0)
(0.455271 0.206381 0)
(0.43896 0.20739 0)
(0.423602 0.212952 0)
(0.408122 0.218428 0)
(0.392002 0.22086 0)
(0.375954 0.223468 0)
(0.360088 0.227319 0)
(0.34399 0.231326 0)
(0.327563 0.235427 0)
(0.310758 0.239766 0)
(0.293423 0.243985 0)
(0.27554 0.248041 0)
(0.257124 0.252006 0)
(0.238199 0.255986 0)
(0.218787 0.259962 0)
(0.198919 0.263665 0)
(0.178709 0.267032 0)
(0.158254 0.269957 0)
(0.137656 0.272805 0)
(0.116922 0.275952 0)
(0.0960033 0.279638 0)
(0.0748839 0.283346 0)
(0.0538662 0.288571 0)
(0.0323714 0.292286 0)
(0.0112485 0.29724 0)
(3 5.10687e-17 0)
(3 2.49113e-16 0)
(3 4.91226e-16 0)
(3 6.87972e-16 0)
(3 4.42899e-16 0)
(3 3.38679e-16 0)
(3 3.76712e-16 0)
(3 3.33871e-16 0)
(3 9.81707e-17 0)
(3 7.12037e-17 0)
(3 2.24195e-16 0)
(3 3.95219e-16 0)
(3 -5.7508e-17 0)
(3 -3.38382e-16 0)
(3 -8.5937e-16 0)
(3 -8.38208e-16 0)
(3 -7.75566e-16 0)
(3 -8.29086e-16 0)
(3 -1.02797e-15 0)
(3 -1.17265e-15 0)
(3 -1.53647e-15 0)
(3 -1.78976e-15 0)
(3 -1.84111e-15 0)
(3 -1.51381e-15 0)
(3 -3.93597e-16 0)
(3 9.95115e-16 0)
(3 1.66859e-15 0)
(3 1.40949e-15 0)
(3 1.24956e-15 0)
(3 1.24634e-15 0)
(3 7.45025e-16 0)
(3 6.48825e-16 0)
(3 8.38861e-16 0)
(3 2.37446e-16 0)
(3 -1.22266e-15 0)
(3 -2.18062e-15 0)
(3 -1.97443e-15 0)
(3 -1.05623e-15 0)
(3 -6.3079e-16 0)
(3 -1.44521e-15 0)
(3 -2.87826e-15 0)
(3 -3.25015e-15 0)
(3 -3.27549e-15 0)
(3 -2.38484e-15 0)
(3 -1.71061e-15 0)
(3 -1.85864e-15 0)
(3 -3.89737e-16 0)
(3 1.66286e-16 0)
(3 8.82284e-17 0)
(2.62811 0.164511 0)
(0.942235 0.234943 0)
(0.774748 0.202832 0)
(0.763191 0.191882 0)
(0.747178 0.193948 0)
(0.732931 0.198631 0)
(0.718623 0.204136 0)
(0.704333 0.209559 0)
(0.689334 0.21313 0)
(0.673602 0.213502 0)
(0.657668 0.210859 0)
(0.641708 0.207644 0)
(0.625859 0.207167 0)
(0.610807 0.211377 0)
(0.596701 0.219077 0)
(0.581818 0.22628 0)
(0.565298 0.229097 0)
(0.548346 0.227099 0)
(0.531363 0.224776 0)
(0.515316 0.227296 0)
(0.500846 0.233804 0)
(0.485302 0.238985 0)
(0.468495 0.23919 0)
(0.451102 0.239467 0)
(0.434499 0.244443 0)
(0.418419 0.250711 0)
(0.401662 0.254106 0)
(0.38487 0.256971 0)
(0.368431 0.261054 0)
(0.351951 0.26553 0)
(0.335258 0.270235 0)
(0.318314 0.275361 0)
(0.300926 0.280528 0)
(0.283007 0.28561 0)
(0.264562 0.290692 0)
(0.2456 0.295876 0)
(0.226128 0.301168 0)
(0.206104 0.306233 0)
(0.1856 0.310904 0)
(0.164687 0.314944 0)
(0.143475 0.318616 0)
(0.122008 0.322299 0)
(0.100201 0.326189 0)
(0.0782472 0.329593 0)
(0.0562988 0.334727 0)
(0.0338921 0.338333 0)
(0.0117027 0.343471 0)
(3 -1.23181e-16 0)
(3 -2.78039e-17 0)
(3 -1.96969e-16 0)
(3 3.19922e-17 0)
(3 -7.51696e-16 0)
(3 -1.31952e-15 0)
(3 -1.48611e-15 0)
(3 -1.19666e-15 0)
(3 -8.70968e-16 0)
(3 -6.48088e-16 0)
(3 -7.36814e-16 0)
(3 -7.00883e-16 0)
(3 -2.87962e-16 0)
(3 -2.42084e-17 0)
(3 -1.75485e-18 0)
(3 1.0891e-16 0)
(3 2.09184e-17 0)
(3 -6.4413e-17 0)
(3 -3.57187e-16 0)
(3 -6.8595e-16 0)
(3 -7.70228e-16 0)
(3 -8.16776e-16 0)
(3 -4.44606e-16 0)
(3 -5.32848e-16 0)
(3 -7.99172e-17 0)
(3 6.27745e-17 0)
(3 -9.26617e-18 0)
(3 5.02454e-18 0)
(3 2.16447e-16 0)
(3 1.061e-16 0)
(3 8.70604e-17 0)
(3 5.05869e-16 0)
(3 4.55971e-16 0)
(3 -5.31465e-16 0)
(3 -6.67751e-16 0)
(3 -7.61434e-16 0)
(3 -5.3657e-16 0)
(3 -2.35269e-16 0)
(3 -2.08668e-16 0)
(3 2.51275e-17 0)
(3 -8.93776e-17 0)
(3 -2.79836e-16 0)
(3 -3.06163e-16 0)
(3 8.3692e-17 0)
(3 -3.50668e-17 0)
(3 7.11801e-17 0)
(3 -2.11541e-16 0)
(3 -3.92523e-16 0)
(3 -1.11076e-15 0)
(2.9882 0.023455 0)
(1.08618 0.25199 0)
(0.797415 0.212381 0)
(0.786212 0.214513 0)
(0.771532 0.219662 0)
(0.756269 0.224328 0)
(0.74139 0.229026 0)
(0.727024 0.234342 0)
(0.712723 0.238694 0)
(0.698123 0.240337 0)
(0.683201 0.239133 0)
(0.667901 0.236549 0)
(0.652258 0.235106 0)
(0.636787 0.237603 0)
(0.622416 0.24458 0)
(0.608368 0.253152 0)
(0.592774 0.258848 0)
(0.575907 0.25937 0)
(0.558789 0.257062 0)
(0.541789 0.257851 0)
(0.526494 0.263668 0)
(0.511108 0.270396 0)
(0.493913 0.273054 0)
(0.475718 0.273195 0)
(0.457792 0.277208 0)
(0.440821 0.284 0)
(0.423276 0.28888 0)
(0.405431 0.292432 0)
(0.387883 0.296855 0)
(0.370441 0.30184 0)
(0.352863 0.307169 0)
(0.335121 0.313075 0)
(0.317063 0.319211 0)
(0.298582 0.325338 0)
(0.279688 0.33152 0)
(0.260398 0.337863 0)
(0.240702 0.344451 0)
(0.220455 0.350964 0)
(0.199581 0.357192 0)
(0.17803 0.362828 0)
(0.155823 0.368042 0)
(0.133035 0.373059 0)
(0.109543 0.378006 0)
(0.0856583 0.381659 0)
(0.0616702 0.386933 0)
(0.0371206 0.390416 0)
(0.0127327 0.395796 0)
(3 2.18556e-17 0)
(3 -1.81305e-16 0)
(3 -6.5577e-16 0)
(3 -9.25405e-16 0)
(3 -8.48574e-16 0)
(3 -6.08789e-16 0)
(3 -7.94928e-16 0)
(3 -1.17135e-15 0)
(3 -1.23367e-15 0)
(3 -1.11287e-15 0)
(3 -9.07259e-16 0)
(3 -7.11246e-16 0)
(3 -2.26987e-16 0)
(3 8.56191e-16 0)
(3 1.31917e-15 0)
(3 1.58282e-15 0)
(3 1.68551e-15 0)
(3 1.61749e-15 0)
(3 1.33029e-15 0)
(3 6.98191e-16 0)
(3 4.2257e-16 0)
(3 3.87673e-16 0)
(3 6.22599e-16 0)
(3 4.04428e-16 0)
(3 2.32657e-17 0)
(3 -3.6449e-16 0)
(3 -2.13168e-16 0)
(3 -2.45164e-16 0)
(3 -2.90936e-16 0)
(3 -3.32032e-16 0)
(3 2.4188e-16 0)
(3 6.20331e-16 0)
(3 4.6929e-16 0)
(3 2.27977e-16 0)
(3 6.33895e-17 0)
(3 5.97906e-16 0)
(3 4.62747e-16 0)
(3 6.7473e-17 0)
(3 -8.07035e-17 0)
(3 6.68116e-16 0)
(3 9.14674e-16 0)
(3 8.26706e-16 0)
(3 3.61572e-16 0)
(3 8.99454e-16 0)
(3 9.14367e-16 0)
(3 2.84025e-16 0)
(3 -2.03615e-16 0)
(3 -1.66425e-16 0)
(3 -4.12149e-16 0)
(3.00154 0.000492004 0)
(1.3663 0.26691 0)
(0.806697 0.232247 0)
(0.778477 0.244055 0)
(0.763527 0.251908 0)
(0.747586 0.255443 0)
(0.733472 0.25908 0)
(0.720005 0.263312 0)
(0.706931 0.267368 0)
(0.693888 0.269918 0)
(0.680634 0.270592 0)
(0.666986 0.269803 0)
(0.652843 0.269041 0)
(0.638428 0.270611 0)
(0.62454 0.276217 0)
(0.61163 0.285008 0)
(0.598068 0.292994 0)
(0.583028 0.296356 0)
(0.567474 0.295545 0)
(0.551622 0.295439 0)
(0.536781 0.299977 0)
(0.523018 0.307506 0)
(0.507602 0.312816 0)
(0.490624 0.313913 0)
(0.473159 0.316772 0)
(0.456555 0.323203 0)
(0.439749 0.329288 0)
(0.422346 0.33371 0)
(0.404882 0.338387 0)
(0.387459 0.34367 0)
(0.369807 0.34941 0)
(0.351869 0.355892 0)
(0.333525 0.362851 0)
(0.314654 0.370002 0)
(0.295227 0.377344 0)
(0.275256 0.384988 0)
(0.25475 0.393114 0)
(0.233562 0.401459 0)
(0.211623 0.409773 0)
(0.18888 0.417544 0)
(0.165528 0.425014 0)
(0.141349 0.431796 0)
(0.116909 0.438341 0)
(0.0914941 0.442802 0)
(0.0657678 0.448225 0)
(0.0394451 0.451354 0)
(0.0133496 0.456754 0)
(3 -2.90333e-17 0)
(3 -7.96626e-17 0)
(3 -2.25081e-16 0)
(3 -2.73278e-16 0)
(3 -7.67819e-18 0)
(3 2.81042e-16 0)
(3 1.84242e-16 0)
(3 -1.9117e-16 0)
(3 -3.64451e-16 0)
(3 -8.47309e-16 0)
(3 -9.35062e-16 0)
(3 -1.1929e-15 0)
(3 -8.0465e-16 0)
(3 -4.08422e-16 0)
(3 -5.4597e-17 0)
(3 5.11521e-16 0)
(3 1.41708e-15 0)
(3 1.68493e-15 0)
(3 1.77092e-15 0)
(3 1.7794e-15 0)
(3 1.84318e-15 0)
(3 9.54174e-16 0)
(3 5.73149e-16 0)
(3 2.01887e-16 0)
(3 -8.94361e-16 0)
(3 -1.25596e-15 0)
(3 -1.53644e-15 0)
(3 -1.83894e-15 0)
(3 -2.11579e-15 0)
(3 -2.16441e-15 0)
(3 -1.077e-15 0)
(3 -3.55103e-16 0)
(3 -5.34664e-16 0)
(3 -4.57404e-16 0)
(3 -3.06302e-16 0)
(3 -3.22135e-16 0)
(3 -5.23338e-16 0)
(3 -8.29798e-16 0)
(3 -8.23138e-16 0)
(3 -4.488e-16 0)
(3 -1.76502e-16 0)
(3 -7.2724e-16 0)
(3 -1.28514e-15 0)
(3 -1.13136e-15 0)
(3 -5.61699e-16 0)
(3 -4.18115e-16 0)
(3 9.65578e-17 0)
(3 1.293e-15 0)
(3 1.17611e-15 0)
(3 8.45425e-07 0)
(1.96486 0.298268 0)
(0.850467 0.292115 0)
(0.769675 0.278244 0)
(0.758276 0.283555 0)
(0.745979 0.285297 0)
(0.734488 0.287539 0)
(0.722852 0.290518 0)
(0.711151 0.293685 0)
(0.699352 0.296271 0)
(0.687344 0.298021 0)
(0.674889 0.298901 0)
(0.661857 0.29938 0)
(0.648361 0.300821 0)
(0.634935 0.305217 0)
(0.622512 0.313162 0)
(0.610532 0.322055 0)
(0.597402 0.327849 0)
(0.583364 0.329311 0)
(0.568865 0.329584 0)
(0.554554 0.333132 0)
(0.541733 0.340796 0)
(0.528406 0.348734 0)
(0.512996 0.35257 0)
(0.496416 0.355299 0)
(0.480059 0.36127 0)
(0.463942 0.368657 0)
(0.447159 0.374954 0)
(0.429951 0.380847 0)
(0.412587 0.387098 0)
(0.394919 0.393775 0)
(0.37689 0.401279 0)
(0.358373 0.409468 0)
(0.339308 0.418121 0)
(0.319643 0.427062 0)
(0.29942 0.436329 0)
(0.278719 0.446144 0)
(0.257423 0.45628 0)
(0.235482 0.466566 0)
(0.212579 0.476311 0)
(0.188812 0.485963 0)
(0.163692 0.495198 0)
(0.137236 0.505028 0)
(0.108395 0.51318 0)
(0.0780485 0.52092 0)
(0.046494 0.524818 0)
(0.0154862 0.530053 0)
(3 1.1653e-17 0)
(3 -1.74852e-16 0)
(3 -1.33785e-16 0)
(3 3.94981e-17 0)
(3 2.15592e-16 0)
(3 2.70595e-16 0)
(3 4.01937e-16 0)
(3 4.69868e-16 0)
(3 5.5997e-16 0)
(3 3.97387e-16 0)
(3 -2.85688e-17 0)
(3 -1.08499e-16 0)
(3 -7.03301e-16 0)
(3 -1.26801e-15 0)
(3 -1.54218e-15 0)
(3 -9.39386e-16 0)
(3 -6.99748e-16 0)
(3 -8.01752e-16 0)
(3 -6.03042e-16 0)
(3 1.56358e-16 0)
(3 1.82048e-16 0)
(3 -1.16927e-16 0)
(3 -5.96577e-16 0)
(3 -1.12508e-15 0)
(3 -1.34784e-15 0)
(3 -1.9356e-15 0)
(3 -2.44301e-15 0)
(3 -2.9331e-15 0)
(3 -2.7431e-15 0)
(3 -2.39867e-15 0)
(3 -2.19677e-15 0)
(3 -2.16485e-15 0)
(3 -2.20972e-15 0)
(3 -2.11833e-15 0)
(3 -2.12437e-15 0)
(3 -1.73302e-15 0)
(3 -1.6425e-15 0)
(3 -1.72019e-15 0)
(3 -2.08844e-15 0)
(3 -2.83522e-15 0)
(3 -2.66927e-15 0)
(3 -2.05411e-15 0)
(3 -1.52635e-15 0)
(3 -1.71149e-15 0)
(3 -1.45877e-15 0)
(3 -8.56722e-16 0)
(3 -4.28646e-16 0)
(3 8.12174e-16 0)
(3 -5.60367e-16 0)
(3 1.99721e-09 0)
(2.85435 0.126521 0)
(1.04191 0.344814 0)
(0.809234 0.314927 0)
(0.795465 0.305035 0)
(0.778212 0.307414 0)
(0.76349 0.31033 0)
(0.749244 0.313428 0)
(0.735615 0.316441 0)
(0.722462 0.319324 0)
(0.709655 0.322263 0)
(0.69687 0.325166 0)
(0.683764 0.327717 0)
(0.670301 0.330046 0)
(0.656789 0.333613 0)
(0.644052 0.340058 0)
(0.632423 0.348496 0)
(0.620571 0.355834 0)
(0.607721 0.360018 0)
(0.594172 0.362119 0)
(0.580362 0.365583 0)
(0.567546 0.372899 0)
(0.555622 0.38249 0)
(0.542083 0.390077 0)
(0.526746 0.394482 0)
(0.510893 0.400227 0)
(0.495345 0.408417 0)
(0.479412 0.41694 0)
(0.462834 0.424981 0)
(0.445794 0.432961 0)
(0.428399 0.441148 0)
(0.410616 0.450038 0)
(0.392159 0.459861 0)
(0.373238 0.470349 0)
(0.353493 0.481347 0)
(0.332857 0.492753 0)
(0.31137 0.504947 0)
(0.288734 0.517851 0)
(0.264973 0.531624 0)
(0.239494 0.545659 0)
(0.212335 0.560377 0)
(0.183227 0.575339 0)
(0.152928 0.591053 0)
(0.121421 0.605435 0)
(0.0886307 0.616656 0)
(0.0542049 0.622536 0)
(0.0172592 0.625919 0)
(3 7.29688e-17 0)
(3 3.00601e-16 0)
(3 5.88147e-16 0)
(3 7.24567e-16 0)
(3 8.97639e-16 0)
(3 1.50915e-15 0)
(3 1.56311e-15 0)
(3 1.62251e-15 0)
(3 2.04206e-15 0)
(3 1.83852e-15 0)
(3 9.99961e-16 0)
(3 3.38113e-16 0)
(3 5.32572e-17 0)
(3 -8.27156e-16 0)
(3 -1.16693e-15 0)
(3 -1.14107e-15 0)
(3 -9.05783e-16 0)
(3 -1.03067e-15 0)
(3 -1.03865e-15 0)
(3 -1.04401e-15 0)
(3 -1.19886e-15 0)
(3 -1.57484e-15 0)
(3 -1.4679e-15 0)
(3 -1.31078e-15 0)
(3 -1.04532e-15 0)
(3 -9.0435e-16 0)
(3 1.39838e-16 0)
(3 -4.61776e-16 0)
(3 -1.21944e-15 0)
(3 -1.5624e-15 0)
(3 -1.81696e-15 0)
(3 -2.02183e-15 0)
(3 -1.88367e-15 0)
(3 -1.68745e-15 0)
(3 -1.21647e-15 0)
(3 -8.79141e-16 0)
(3 -7.33244e-16 0)
(3 -4.20212e-16 0)
(3 -8.16912e-16 0)
(3 -7.85489e-16 0)
(3 -1.00397e-15 0)
(3 -1.25472e-15 0)
(3 -1.45423e-15 0)
(3 -2.18895e-15 0)
(3 -1.73828e-15 0)
(3 -1.14121e-15 0)
(3 -1.24569e-15 0)
(3 -8.97096e-16 0)
(3 -3.3285e-15 0)
(3 3.93854e-12 0)
(3.01144 0.00242034 0)
(1.49846 0.378218 0)
(0.848943 0.334166 0)
(0.815937 0.345813 0)
(0.798243 0.349337 0)
(0.782164 0.349783 0)
(0.766457 0.350322 0)
(0.751414 0.350962 0)
(0.73696 0.352162 0)
(0.723124 0.354395 0)
(0.709838 0.357693 0)
(0.696777 0.361351 0)
(0.683634 0.364564 0)
(0.670471 0.367706 0)
(0.65781 0.372445 0)
(0.646308 0.379354 0)
(0.635542 0.386867 0)
(0.62438 0.392911 0)
(0.612458 0.397089 0)
(0.600033 0.40134 0)
(0.587858 0.408179 0)
(0.576897 0.418095 0)
(0.565927 0.428384 0)
(0.553181 0.435815 0)
(0.539257 0.442238 0)
(0.525239 0.45074 0)
(0.511073 0.460888 0)
(0.496389 0.471363 0)
(0.48094 0.48157 0)
(0.465149 0.491984 0)
(0.448559 0.502629 0)
(0.431959 0.514357 0)
(0.414371 0.527007 0)
(0.39606 0.540787 0)
(0.376478 0.555328 0)
(0.356014 0.571079 0)
(0.33446 0.588114 0)
(0.311871 0.606677 0)
(0.287995 0.626295 0)
(0.262731 0.646504 0)
(0.236006 0.666362 0)
(0.207261 0.684604 0)
(0.176642 0.702892 0)
(0.140397 0.723474 0)
(0.0951053 0.746847 0)
(0.0363814 0.766709 0)
(3 -1.4207e-17 0)
(3 -7.98803e-17 0)
(3 3.02401e-16 0)
(3 3.62612e-16 0)
(3 3.33834e-16 0)