/*--------------------------------*- C++ -*----------------------------------*\
  =========                 |
  \\      /  F ield         | OpenFOAM: The Open Source CFD Toolbox
   \\    /   O peration     | Website:  https://openfoam.org
    \\  /    A nd           | Version:  7
     \\/     M anipulation  |
\*---------------------------------------------------------------------------*/
FoamFile
{
    version     2.0;
    format      ascii;
    class       volScalarField;
    location    "33";
    object      p;
}
// * * * * * * * * * * * * * * * * * * * * * * * * * * * * * * * * * * * * * //

dimensions      [0 2 -2 0 0 0 0];

internalField   nonuniform List<scalar> 
16000
(
8.6264562e-06
-0.0001316816
-0.00044317812
-0.00084554004
-0.001263754
-0.0016524261
-0.0019806833
-0.0022296869
-0.0023888014
-0.0024523204
-0.002417301
-0.0022822856
-0.0020467063
-0.0017108093
-0.0012759521
-0.0007451413
-0.00012368556
0.00058014836
0.00135458
0.0021839512
0.003048633
0.0039252713
0.0047873928
0.0056064105
0.0063529912
0.0069987386
0.0075180892
0.0078902643
0.0081010963
0.0081445566
0.0080238552
0.0077520469
0.007352116
0.0068565565
0.0063062945
0.0057488414
0.005239146
0.0048334017
0.0045933616
0.0045544969
0.00015321522
8.3024003e-06
-0.00024178306
-0.00055066369
-0.0008728613
-0.0011740652
-0.0014300275
-0.0016245674
-0.0017473275
-0.0017918677
-0.0017542464
-0.0016320965
-0.0014241623
-0.0011302144
-0.00075124706
-0.00028986746
0.00024921708
0.00085870026
0.0015282509
0.0022442327
0.0029896368
0.0037444285
0.0044859046
0.0051897246
0.0058310499
0.0063859782
0.006833159
0.0071554675
0.0073415777
0.0073872522
0.0072961938
0.0070803959
0.0067600061
0.0063627487
0.0059228893
0.0054795365
0.0050738788
0.0047492207
0.0045506047
0.0045149976
0.00047187173
0.00025398735
-1.848984e-06
-0.00028089504
-0.00056113915
-0.00081807939
-0.0010339253
-0.0011966151
-0.0012979423
-0.0013323902
-0.0012962429
-0.0011869667
-0.0010029177
-0.00074333897
-0.00040857828
-4.5608599e-07
0.00047728728
0.0010185362
0.0016144042
0.0022529668
0.0029192204
0.0035952016
0.0042605364
0.0048932261
0.0054707479
0.0059713929
0.0063757549
0.0066682687
0.0068386745
0.0068832405
0.0068055551
0.0066167565
0.0063351833
0.0059855563
0.0055977998
0.0052054201
0.0048431561
0.00454529
0.0043479858
0.0042806214
0.00089348913
0.0005622294
0.00026153563
-2.4249307e-05
-0.00029485032
-0.0005339991
-0.00073013283
-0.00087603479
-0.00096662962
-0.00099822199
-0.00096800236
-0.00087368706
-0.00071340361
-0.00048581032
-0.00019039587
0.00017209793
0.00059918845
0.0010861612
0.0016256388
0.0022072793
0.0028176629
0.0034403455
0.0040563554
0.0046448856
0.0051843655
0.0056537952
0.0060342363
0.0063103368
0.0064717627
0.0065144032
0.0064411848
0.0062623163
0.0059948552
0.005661655
0.0052898926
0.0049093759
0.0045508457
0.0042443885
0.0040165546
0.0038810046
0.0013442879
0.00088462056
0.00052146497
0.00021114839
-6.656005e-05
-0.0003026164
-0.00049134835
-0.00063049555
-0.00071839857
-0.00075348837
-0.0007341024
-0.00065834254
-0.00052412872
-0.00032945103
-7.2773695e-05
0.00024645506
0.00062723488
0.0010664408
0.0015583086
0.0020940468
0.0026616355
0.003245858
0.0038286471
0.0043897508
0.00490776
0.0053614572
0.005731382
0.0060014507
0.0061604532
0.0062032761
0.0061317269
0.0059548246
0.00568841
0.0053540101
0.0049770745
0.0045850239
0.0042060394
0.0038673887
0.0035847299
0.0033611567
0.0017711343
0.0011780079
0.00074334678
0.00039729702
0.00010073305
-0.00014355676
-0.00033526488
-0.0004768476
-0.00056999706
-0.00061528628
-0.00061222247
-0.00055927976
-0.00045410469
-0.0002939016
-7.5952491e-05
0.00020176821
0.00053992393
0.00093713669
0.0013893566
0.0018893515
0.0024263917
0.002986205
0.0035512307
0.0041012487
0.0046143688
0.0050683866
0.0054424294
0.0057187356
0.0058843388
0.0059324288
0.0058632259
0.005684285
0.0054101582
0.0050613167
0.0046622743
0.0042393777
0.0038199112
0.0034303289
0.0030777294
0.002750441
0.0021288262
0.0014038495
0.00089426537
0.00050603576
0.00018276343
-7.8218028e-05
-0.00028142119
-0.0004336278
-0.0005396245
-0.00060195737
-0.00062117488
-0.0005960001
-0.00052366793
-0.00040043704
-0.00022222966
1.4637447e-05
0.00031266793
0.00067238794
0.0010915861
0.0015646595
0.0020821514
0.0026305863
0.0031926197
0.0037476346
0.0042727132
0.004744009
0.0051384584
0.0054357118
0.0056200667
0.005682115
0.0056198282
0.0054389395
0.0051526165
0.0047804288
0.0043464899
0.003877169
0.0034004959
0.0029440149
0.0025077439
0.0020661736
0.0023788012
0.0015273946
0.00094332235
0.00051015049
0.00015556582
-0.00012799206
-0.00034938841
-0.00051930597
-0.00064527817
-0.00073154437
-0.00077946355
-0.00078780597
-0.00075320372
-0.00067077567
-0.00053488027
-0.00033996492
-8.1475962e-05
0.00024321377
0.00063390888
0.0010867871
0.0015937708
0.0021422086
0.0027148617
0.0032904381
0.0038445409
0.0043510849
0.0047840928
0.0051197651
0.0053386543
0.0054276666
0.0053815461
0.0052035463
0.0049052076
0.0045053138
0.0040280101
0.0035005463
0.0029531284
0.0024162608
0.0018848583
0.0013223145
0.0024872507
0.0015169532
0.00086122018
0.0003827608
-5.5399713e-06
-0.00031576258
-0.00056074624
-0.00075467423
-0.00090746168
-0.0010247185
-0.0011083321
-0.0011568723
-0.001166144
-0.0011299099
-0.0010407406
-0.00089097128
-0.0006737352
-0.00038403088
-1.9767271e-05
0.00041727119
0.00092062008
0.0014786515
0.0020743247
0.0026856042
0.0032863137
0.0038475839
0.0043397704
0.0047347077
0.0050081349
0.0051420626
0.0051267494
0.0049618982
0.0046567996
0.0042293839
0.0037042243
0.0031102259
0.0024810122
0.0018517759
0.0012138766
0.00052039042
0.0024236998
0.0013434434
0.00062039681
9.7825103e-05
-0.00032520857
-0.00066505252
-0.00093821275
-0.0011620138
-0.0013484102
-0.0015040666
-0.0016311107
-0.0017276515
-0.0017884269
-0.0018056122
-0.0017697513
-0.0016707991
-0.0014992621
-0.0012474021
-0.00091044454
-0.00048773136
1.6275181e-05
0.00059137264
0.0012209809
0.0018824875
0.0025478612
0.0031850442
0.00375997
0.0042390572
0.0045919765
0.0047944433
0.0048307381
0.0046955679
0.0043948588
0.0039451935
0.0033717752
0.0027059134
0.0019858529
0.0012530919
0.00049660119
-0.0003405281
0.0021603722
0.00098022748
0.00019525212
-0.00036930526
-0.00082725301
-0.0011990274
-0.0015045462
-0.0017639558
-0.001990946
-0.0021929554
-0.0023720928
-0.0025257657
-0.0026474135
-0.0027273897
-0.0027539587
-0.0027144036
-0.0025962486
-0.0023885787
-0.0020834107
-0.0016770579
-0.0011713844
-0.0005745068
9.7890994e-05
0.0008230262
0.0015711892
0.0023069616
0.0029912235
0.0035838628
0.0040469747
0.0043482354
0.0044641045
0.0043824703
0.004104296
0.0036437665
0.0030264805
0.0022867355
0.0014686394
0.00062164937
-0.00026686234
-0.0012640295
0.0016720745
0.00040318738
-0.00043756995
-0.0010414068
-0.001533993
-0.0019397052
-0.0022816548
-0.0025825276
-0.0028574868
-0.0031145123
-0.0033554842
-0.0035769142
-0.0037707484
-0.0039253032
-0.004026308
-0.0040580601
-0.0040047053
-0.0038516471
-0.0035870596
-0.0032034352
-0.0026990788
-0.0020796209
-0.0013585877
-0.00055837078
0.00029005546
0.0011480072
0.0019709103
0.0027110976
0.0033214285
0.0037593951
0.0039912545
0.0039957014
0.0037665858
0.0033140434
0.0026632458
0.0018516797
0.00093051254
-4.1035622e-05
-0.0010766504
-0.002254499
0.00093640939
-0.00040901
-0.0012988022
-0.0019388698
-0.0024656084
-0.0029071841
-0.003289708
-0.00363816
-0.0039689631
-0.0042904615
-0.0046041579
-0.004905535
-0.0051849107
-0.0054283971
-0.0056189583
-0.0057375862
-0.0057646182
-0.0056812115
-0.0054709717
-0.0051216877
-0.0046271136
-0.0039889024
-0.0032175699
-0.002334
-0.0013696196
-0.0003659591
0.00062684591
0.0015527652
0.0023537876
0.002974788
0.0033688345
0.0035022698
0.003358884
0.0029423671
0.002275946
0.0013999523
0.00037360853
-0.0007321477
-0.0019316228
-0.0033152531
-6.5801599e-05
-0.0014745189
-0.0024061045
-0.0030791468
-0.0036394689
-0.0041188479
-0.0045462109
-0.0049486239
-0.0053436124
-0.0057397752
-0.0061381596
-0.0065331589
-0.0069133991
-0.0072626916
-0.0075610641
-0.0077859162
-0.0079133415
-0.0079196422
-0.0077830521
-0.0074856495
-0.0070154287
-0.0063685033
-0.0055509427
-0.0045805838
-0.0034880078
-0.0023167082
-0.0011220868
3.0977586e-05
0.0010721466
0.0019311482
0.0025443766
0.0028617768
0.0028530405
0.0025119459
0.001857336
0.00093133894
-0.00019811576
-0.0014463325
-0.0028278251
-0.0044468003
-0.0013499792
-0.0028078558
-0.0037735912
-0.0044762021
-0.0050694726
-0.0055885725
-0.0060650638
-0.0065279264
-0.0069956945
-0.0074771902
-0.007973013
-0.0084764921
-0.0089745807
-0.009448775
-0.0098760787
-0.010230086
-0.010482259
-0.010603441
-0.01056565
-0.010344145
-0.0099197698
-0.0092815091
-0.008429036
-0.0073751614
-0.0061477296
-0.004790658
-0.0033637027
-0.0019405657
-0.00060501964
0.00055508407
0.0014556766
0.0020254411
0.0022146645
0.0020022884
0.0013989944
0.00044665149
-0.00077797359
-0.0021743807
-0.003756865
-0.0056450373
-0.0029272181
-0.0044194394
-0.0054113869
-0.0061400114
-0.0067654377
-0.0073259747
-0.0078556426
-0.0083852028
-0.0089341724
-0.009511653
-0.010117903
-0.010745313
-0.011379282
-0.011999071
-0.012578666
-0.013087747
-0.013492852
-0.013758841
-0.013850701
-0.013735743
-0.013386181
-0.012782084
-0.011914563
-0.010788994
-0.0094279794
-0.0078735352
-0.006187994
-0.0044530398
-0.0027663414
-0.0012354013
3.1399458e-05
0.00093598053
0.0014026367
0.0013887905
0.00089133118
-5.1707995e-05
-0.0013554628
-0.0029017194
-0.004704094
-0.006899247
-0.0048037721
-0.0063152009
-0.0073252674
-0.008076161
-0.0087326014
-0.0093357595
-0.0099219584
-0.010523662
-0.011161423
-0.011844772
-0.012573838
-0.013340314
-0.014128277
-0.014914941
-0.015671392
-0.016363399
-0.016952421
-0.017396941
-0.017654228
-0.017682588
-0.017444149
-0.016908183
-0.016054915
-0.014879549
-0.013396401
-0.011642466
-0.0096798461
-0.0075962208
-0.005502544
-0.003527245
-0.0018065421
-0.00047112415
0.00036957403
0.00064285894
0.00032385877
-0.00055899525
-0.0019149396
-0.0036065999
-0.0056464593
-0.0081897572
-0.0069806728
-0.0084963419
-0.009516456
-0.010285608
-0.010971284
-0.011617231
-0.012261968
-0.012939663
-0.013672059
-0.014469372
-0.015331922
-0.016251057
-0.017209882
-0.01818388
-0.019141478
-0.020044666
-0.02084981
-0.021508808
-0.021970713
-0.022183967
-0.022099314
-0.021673426
-0.020873248
-0.019680921
-0.018099015
-0.016155687
-0.01390895
-0.011449123
-0.0088983216
-0.0064057859
-0.0041381558
-0.0022643917
-0.0009362218
-0.00026695594
-0.00031392424
-0.0010669832
-0.0024339453
-0.0042578835
-0.0065498947
-0.0094851015
-0.0094535497
-0.010959315
-0.01198165
-0.012764668
-0.013476777
-0.014164026
-0.014867106
-0.015622017
-0.016451977
-0.017368278
-0.018371867
-0.019454208
-0.020597898
-0.02177712
-0.022958005
-0.02409904
-0.025151645
-0.026061105
-0.026768007
-0.02721036
-0.027326518
-0.027058999
-0.026359275
-0.025193544
-0.023548967
-0.021440547
-0.018917415
-0.01606777
-0.013020933
-0.0099448451
-0.0070373901
-0.0045104365
-0.0025667312
-0.0013723139
-0.0010306208
-0.0015621318
-0.0028809968
-0.0048122941
-0.0073661217
-0.010738533
-0.01221272
-0.013696097
-0.01471335
-0.015505306
-0.016239525
-0.016964131
-0.017722103
-0.018551578
-0.01947772
-0.02051345
-0.021660917
-0.02291227
-0.024250145
-0.025647943
-0.027069976
-0.028471626
-0.029799667
-0.030992945
-0.031983584
-0.032698913
-0.033064296
-0.033006971
-0.032461098
-0.031374603
-0.02971548
-0.027481081
-0.024706234
-0.021471009
-0.017906074
-0.014193508
-0.010560656
-0.0072647866
-0.0045674422
-0.0027003594
-0.0018295538
-0.0020227346
-0.003212595
-0.0052109597
-0.0080287141
-0.011883746
-0.015243609
-0.016694818
-0.017700567
-0.018495796
-0.019245649
-0.020000225
-0.020805118
-0.021701177
-0.02271623
-0.023865584
-0.025153327
-0.026572969
-0.028107798
-0.029731001
-0.031405596
-0.03308434
-0.034709787
-0.036214695
-0.037522966
-0.038551336
-0.039212007
-0.039416361
-0.039079993
-0.038131132
-0.036515004
-0.034207143
-0.031222472
-0.027626073
-0.023542406
-0.019160533
-0.014732205
-0.010559246
-0.0069673283
-0.004266334
-0.002703428
-0.0024146898
-0.0033692005
-0.0053750451
-0.0084482612
-0.012829666
-0.01852757
-0.019940824
-0.020929952
-0.021721787
-0.022477862
-0.023250373
-0.024088215
-0.025035911
-0.026125009
-0.027374223
-0.028790489
-0.03036946
-0.032095738
-0.033942858
-0.035873049
-0.037836928
-0.039773303
-0.041609308
-0.043261069
-0.044635104
-0.045630712
-0.046143647
-0.046071282
-0.045317847
-0.043806765
-0.041487506
-0.038349687
-0.034436326
-0.029856985
-0.02479823
-0.019527629
-0.014386402
-0.0097655661
-0.0060631383
-0.0036265567
-0.0026855133
-0.0032699164
-0.0052002831
-0.0085064641
-0.013454171
-0.022043162
-0.023418254
-0.024387445
-0.025167837
-0.025916768
-0.026689062
-0.027538151
-0.028513758
-0.029652675
-0.030978369
-0.032501729
-0.034221418
-0.036124009
-0.038183889
-0.040362914
-0.042609947
-0.044860464
-0.047036449
-0.049046784
-0.050788373
-0.052148227
-0.053006817
-0.053242882
-0.052739552
-0.051394441
-0.049129254
-0.04590432
-0.041734172
-0.036704564
-0.030988555
-0.024857752
-0.018682817
-0.012915755
-0.0080479423
-0.0045443743
-0.0027562338
-0.0028056058
-0.0045502082
-0.0080489992
-0.013596629
-0.025767973
-0.027112259
-0.028060526
-0.028819437
-0.029542539
-0.030288511
-0.031117393
-0.032086442
-0.033239842
-0.034607557
-0.036205738
-0.038036958
-0.040090353
-0.042341528
-0.044752199
-0.047269665
-0.049826307
-0.052339297
-0.054710775
-0.056828694
-0.058568608
-0.059796649
-0.060373928
-0.060162619
-0.059035443
-0.056885157
-0.053640258
-0.049281859
-0.043863926
-0.037534729
-0.030555999
-0.023313471
-0.016309353
-0.010126668
-0.0053603701
-0.0025109816
-0.0018301926
-0.0032478719
-0.0068769552
-0.013049112
-0.029681105
-0.03101205
-0.031941213
-0.032665577
-0.033336917
-0.034020142
-0.034785231
-0.035700417
-0.036820207
-0.038183276
-0.039812517
-0.041715287
-0.043883701
-0.046294692
-0.048909775
-0.051674579
-0.054518325
-0.057353462
-0.060075684
-0.062564547
-0.064684979
-0.066289882
-0.067224111
-0.067330156
-0.066456885
-0.06446898
-0.061262345
-0.056781863
-0.051043774
-0.04416156
-0.036372754
-0.028060733
-0.019760986
-0.012138058
-0.0059212104
-0.0017843763
-0.00014997491
-0.0010657998
-0.0047365732
-0.011546103
-0.033766603
-0.03511507
-0.036030038
-0.036701946
-0.037285486
-0.037856079
-0.038498798
-0.039297769
-0.040321691
-0.041620612
-0.043225748
-0.04514995
-0.047388399
-0.049919072
-0.052702803
-0.055683019
-0.05878533
-0.061917176
-0.064967768
-0.067808542
-0.070294438
-0.072266146
-0.073553745
-0.073981995
-0.073376684
-0.071577244
-0.068447847
-0.063896666
-0.05789909
-0.050526554
-0.041979731
-0.032621442
-0.022999024
-0.013839937
-0.0060015822
-0.00034728155
0.0024890758
0.0022861023
-0.0013068568
-0.0087523229
-0.03801832
-0.039432891
-0.040341374
-0.040934857
-0.041380133
-0.041770469
-0.04221379
-0.042816875
-0.043667475
-0.044830004
-0.046345452
-0.048232493
-0.050488945
-0.053092963
-0.056003656
-0.059161192
-0.062486627
-0.065881661
-0.069228574
-0.07239055
-0.075212823
-0.077524593
-0.079142225
-0.079873986
-0.079526402
-0.077914353
-0.074873034
-0.070275689
-0.064056729
-0.056241934
-0.046986014
-0.036614987
-0.025664991
-0.014901036
-0.0052911374
0.0021079579
0.0064158375
0.0071750817
0.003815706
-0.0042478764
-0.04244725
-0.043999819
-0.044910743
-0.045386109
-0.045621597
-0.045740443
-0.045884691
-0.046192655
-0.046776854
-0.047719025
-0.049070868
-0.050856458
-0.053075027
-0.055703273
-0.058696832
-0.061990933
-0.065500598
-0.069120565
-0.072725298
-0.076169148
-0.079287484
-0.081898254
-0.083804838
-0.084800299
-0.084673387
-0.083217203
-0.080240781
-0.075585437
-0.069146921
-0.060905466
-0.050965333
-0.039603863
-0.027324815
-0.014902061
-0.0033867759
0.005980874
0.012049974
0.014063142
0.011136696
0.0024909732
-0.047093315
-0.048886025
-0.049805152
-0.050099079
-0.050021999
-0.049746468
-0.049464318
-0.049356373
-0.049565921
-0.050194251
-0.051303544
-0.052921602
-0.055046677
-0.057651392
-0.060685365
-0.064076531
-0.067731843
-0.071537358
-0.075358747
-0.079040007
-0.082406346
-0.085264154
-0.087403923
-0.088604124
-0.088636909
-0.087275284
-0.084304817
-0.079538214
-0.072836169
-0.064136227
-0.053492162
-0.041126343
-0.027493862
-0.013349653
0.00020564669
0.011771855
0.019918357
0.023528692
0.02129013
0.012119085
-0.052045515
-0.054218347
-0.055138079
-0.055146442
-0.054607196
-0.053771863
-0.052902609
-0.052235026
-0.051948229
-0.052163362
-0.052950729
-0.054338279
-0.056319323
-0.058858562
-0.061896378
-0.065350099
-0.069116257
-0.073070008
-0.077068124
-0.080940396
-0.084502441
-0.087548207
-0.089854771
-0.091185857
-0.091298021
-0.089943857
-0.086887452
-0.08191558
-0.07485722
-0.065611045
-0.054183119
-0.040739502
-0.025676481
-0.0097066894
0.0060550916
0.020082063
0.03066989
0.036293544
0.035076115
0.025465482
-0.057478187
-0.060214192
-0.061091427
-0.060639825
-0.059418561
-0.057801123
-0.056144501
-0.054750403
-0.053835574
-0.053537537
-0.053929
-0.055031806
-0.056828411
-0.059270296
-0.062285323
-0.065775154
-0.069624323
-0.073695121
-0.077829775
-0.081848912
-0.085553629
-0.08872491
-0.09112593
-0.092505133
-0.092601098
-0.091148676
-0.087889485
-0.082584764
-0.07503363
-0.065098542
-0.052740634
-0.038070585
-0.021420315
-0.0034422353
0.014768344
0.031597181
0.045084413
0.053256298
0.053516669
0.04360744
-0.06371902
-0.067237769
-0.067947388
-0.066741046
-0.064513034
-0.061816101
-0.059126357
-0.056817448
-0.055138547
-0.054233758
-0.054167593
-0.054946186
-0.056533162
-0.058860639
-0.061836523
-0.065347031
-0.069259378
-0.073421064
-0.077659896
-0.081783384
-0.085578633
-0.088812638
-0.091233703
-0.092574031
-0.09255398
-0.090888314
-0.087295324
-0.081509684
-0.073299495
-0.062490202
-0.048997748
-0.032875943
-0.014386522
0.005894744
0.026924324
0.047044735
0.064067456
0.075531146
0.077939352
0.068005242
-0.071381197
-0.075893896
-0.076132771
-0.07367263
-0.069958525
-0.065787692
-0.061769112
-0.058340373
-0.05576535
-0.054175427
-0.053609891
-0.05404579
-0.055416997
-0.057629088
-0.060565592
-0.064091872
-0.068056263
-0.072289648
-0.076604555
-0.080794023
-0.084630914
-0.087867701
-0.090237249
-0.091454827
-0.091221751
-0.089230989
-0.085175306
-0.078759922
-0.069717685
-0.057831627
-0.042965549
-0.025108108
-0.0044391354
0.018570129
0.042964836
0.067105018
0.088610781
0.10448327
0.11010484
0.10076072
-0.081631816
-0.087182036
-0.086270562
-0.081716609
-0.075814923
-0.069655078
-0.063961491
-0.059200782
-0.055613856
-0.053287023
-0.052209679
-0.052311174
-0.053484456
-0.055599735
-0.058511332
-0.062060317
-0.06607457
-0.070367407
-0.074735721
-0.078958095
-0.082793356
-0.085979712
-0.088234824
-0.089257085
-0.088728483
-0.086319163
-0.081693974
-0.074524964
-0.064503098
-0.051358938
-0.034889631
-0.014997778
0.0082487212
0.034515402
0.063013544
0.092226058
0.11966004
0.14172264
0.15240458
0.1451248
-0.096760169
-0.10273848
-0.099198255
-0.091155569
-0.082062825
-0.073261778
-0.065508131
-0.059217314
-0.0545405
-0.051469708
-0.049910505
-0.049723303
-0.050746141
-0.05280631
-0.055724812
-0.059316602
-0.063388671
-0.067737133
-0.072144116
-0.076374905
-0.080175624
-0.083271628
-0.0853668
-0.086143966
-0.085266875
-0.082383068
-0.077128543
-0.069138824
-0.058055891
-0.043544999
-0.025315443
-0.0031509671
0.023041352
0.05314178
0.086633844
0.12228349
0.15778134
0.18895215
0.20809836
0.20632819
-0.12133972
-0.12518736
-0.11587313
-0.10208124
-0.088417354
-0.076198327
-0.066005787
-0.058052258
-0.05229135
-0.048550281
-0.04660844
-0.046233076
-0.047194858
-0.049272781
-0.052253104
-0.055925406
-0.060077634
-0.064491048
-0.068935599
-0.073165958
-0.076918326
-0.079908075
-0.081828239
-0.082349038
-0.081118973
-0.077764674
-0.071896084
-0.063110531
-0.050996347
-0.035141934
-0.015145521
0.0093694562
0.038725901
0.073130175
0.11252028
0.15626309
0.20263137
0.24752363
0.28130144
0.29235703
-0.16445716
-0.1584329
-0.1371484
-0.11415747
-0.094107325
-0.077631223
-0.064737898
-0.055161815
-0.048489942
-0.044291609
-0.042172929
-0.041787515
-0.042832569
-0.045039823
-0.048164926
-0.051977257
-0.05625099
-0.060757544
-0.065259365
-0.069504913
-0.073224748
-0.076128541
-0.077902978
-0.07821073
-0.076690717
-0.072947978
-0.066577883
-0.057140788
-0.04417249
-0.027180475
-0.0056361367
0.021035221
0.053464562
0.092332069
0.13829672
0.19182737
0.25266848
0.31751189
0.37626904
0.41537121
-0.24629403
-0.20631808
-0.16213037
-0.12552901
-0.09714378
-0.075878297
-0.06048768
-0.049752475
-0.042660384
-0.038436351
-0.036490492
-0.036365543
-0.037697518
-0.040185332
-0.043567438
-0.047604424
-0.052066121
-0.056721916
-0.061333365
-0.065648517
-0.069397548
-0.072289483
-0.074009853
-0.074220073
-0.072558742
-0.068605763
-0.061961863
-0.052156039
-0.038683043
-0.020981229
0.0015961493
0.029825735
0.064686928
0.10746547
0.15987172
0.2241785
0.30290616
0.39553289
0.49624412
0.603213
-0.4254388
-0.26573017
-0.1772214
-0.12463601
-0.089116637
-0.065102769
-0.049323978
-0.039185456
-0.03298385
-0.029674243
-0.028570887
-0.029186936
-0.031157012
-0.034190092
-0.038037811
-0.042473532
-0.047278375
-0.052231404
-0.057102462
-0.061646765
-0.065600808
-0.068679185
-0.070571865
-0.070940749
-0.069408037
-0.065629911
-0.059132461
-0.04945291
-0.036074822
-0.01840324
0.0042718609
0.032847833
0.068543313
0.11314277
0.16943738
0.24201794
0.33806683
0.46591659
0.6430554
0.92086298
-0.79331275
-0.32444198
-0.14899723
-0.087725191
-0.055345594
-0.035999291
-0.025091325
-0.019200776
-0.016355307
-0.015618884
-0.016494122
-0.018653939
-0.02185306
-0.025888429
-0.030575447
-0.035733845
-0.041179065
-0.046716314
-0.052136023
-0.05721021
-0.061689534
-0.06530093
-0.067745934
-0.068700966
-0.067824563
-0.064708002
-0.058941816
-0.050072465
-0.037593389
-0.020927138
0.00061073491
0.027881451
0.062059167
0.10491378
0.15945175
0.23152843
0.33385189
0.49409265
0.79001681
1.3837788
1.2147623e-05
-0.00013071565
-0.00044290791
-0.00084546756
-0.0012638731
-0.0016526752
-0.0019810184
-0.0022300828
-0.0023892394
-0.0024527859
-0.0024177826
-0.0022827736
-0.0020471903
-0.0017112776
-0.0012763926
-0.00074554253
-0.00012403705
0.00057985691
0.0013543596
0.002183814
0.0030485908
0.0039253315
0.0047875553
0.0056066691
0.0063533381
0.0069991681
0.0075185951
0.0078908302
0.008101689
0.0081451337
0.0080243849
0.0077525193
0.0073525285
0.0068568847
0.0063064909
0.005748888
0.0052390494
0.0048331976
0.0045930728
0.0045544786
0.00015408501
8.8157752e-06
-0.00024133766
-0.00055019528
-0.0008723545
-0.0011735058
-0.0014294196
-0.0016239258
-0.0017466675
-0.0017912031
-0.0017535908
-0.0016314642
-0.001423568
-0.0011296713
-0.00075076695
-0.00028946081
0.00024953926
0.00085892622
0.0015283679
0.0022442308
0.0029895122
0.0037441826
0.0044855435
0.0051892528
0.0058304701
0.0063852986
0.0068324028
0.0071546723
0.0073407808
0.0073864728
0.0072954351
0.0070796706
0.0067593575
0.0063622326
0.0059225246
0.0054792874
0.0050737088
0.0047490619
0.0045504287
0.004515136
0.00047235298
0.00025425605
-1.5363224e-06
-0.00028063367
-0.00056094787
-0.00081792568
-0.0010337951
-0.0011965054
-0.0012978512
-0.0013323155
-0.0012961824
-0.0011869191
-0.0010028837
-0.00074332045
-0.00040857648
-4.703128e-07
0.00047725959
0.0010184983
0.0016143571
0.0022529084
0.0029191482
0.0035951172
0.004260448
0.0048931431
0.0054706722
0.0059713155
0.0063756642
0.0066681665
0.0068385797
0.0068831712
0.0068055037
0.0066166886
0.0063350743
0.005985426
0.0055976964
0.0052053618
0.0048431039
0.0045451643
0.0043477628
0.0042805836
0.00089397571
0.00056228917
0.00026178341
-2.4024614e-05
-0.00029471776
-0.00053391394
-0.00073007795
-0.00087600628
-0.00096662386
-0.00099823615
-0.00096803331
-0.00087373095
-0.00071345708
-0.0004858716
-0.00019046462
0.00017202199
0.00059910734
0.0010860799
0.001625564
0.0022072148
0.0028176072
0.0034402952
0.0040563106
0.0046448541
0.0051843589
0.005653816
0.0060342706
0.0063103634
0.0064717744
0.0065144169
0.0064412215
0.0062623665
0.005994874
0.0056616057
0.0052897934
0.0049092821
0.0045507743
0.0042442915
0.0040163988
0.0038808539
0.0013448283
0.00088447133
0.0005216805
0.00021140258
-6.6388428e-05
-0.00030247142
-0.00049121634
-0.00063037899
-0.00071829656
-0.00075340098
-0.00073403091
-0.00065828715
-0.0005240882
-0.00032942381
-7.2759281e-05
0.0002464553
0.00062721838
0.0010664066
0.0015582599
0.00209399
0.0026615749
0.003245792
0.0038285692
0.0043896578
0.0049076603
0.0053613675
0.0057313112
0.006001387
0.006160372
0.0062031681
0.0061316153
0.005954743
0.0056883581
0.0053539439
0.0049769576
0.0045848738
0.0042058948
0.0038672901
0.0035847305
0.003360939
0.0017717667
0.0011776711
0.00074352739
0.00039755317
0.0001008964
-0.00014341323
-0.00033512733
-0.00047672352
-0.00056988598
-0.000615187
-0.00061213641
-0.00055920912
-0.00045405064
-0.0002938636
-7.5928758e-05
0.00020177908
0.00053992083
0.00093711609
0.0013893159
0.0018892933
0.002426324
0.0029861351
0.0035511579
0.0041011641
0.0046142652
0.005068271
0.0054423225
0.0057186522
0.005884268
0.0059323398
0.0058631029
0.0056841517
0.005410054
0.0050612466
0.0046621977
0.0042392544
0.0038197352
0.0034302019
0.0030778106
0.0027501407
0.0021295611
0.0014033475
0.00089441986
0.00050629212
0.00018290978
-7.8088614e-05
-0.00028129201
-0.00043351111
-0.00053952163
-0.00060186606
-0.00062109467
-0.00059593236
-0.00052361493
-0.00040040066
-0.00022220989
1.4643078e-05
0.00031266235
0.0006723711
0.0010915539
0.0015646076
0.0020820816
0.002630508
0.0031925437
0.0037475626
0.004272634
0.0047439101
0.005138344
0.0054356051
0.0056199884
0.0056820557
0.0056197525
0.0054388252
0.0051524854
0.0047803227
0.0043464172
0.0038770805
0.0034003244
0.0029438761
0.0025079064
0.0020657973
0.0023796383
0.0015267452
0.00094346082
0.00051041552
0.0001557033
-0.00012786978
-0.00034925967
-0.00051918607
-0.00064517126
-0.00073144962
-0.00077938002
-0.0007877333
-0.00075314283
-0.0006707291
-0.00053485107
-0.00033995397
-8.1480377e-05
0.0002431985
0.00063388403
0.0010867481
0.0015937113
0.0021421282
0.002714771
0.0032903518
0.0038444639
0.0043510049
0.0047839921
0.0051196438
0.0053385372
0.0054275795
0.0053814825
0.0052034687
0.0049050914
0.0045051819
0.0040279062
0.003500457
0.0029529623
0.002416133
0.0018851157
0.0013218399
0.0024881871
0.0015161703
0.00086134809
0.0003830392
-5.4057124e-06
-0.00031564413
-0.00056061691
-0.00075454978
-0.00090734729
-0.0010246154
-0.001108241
-0.0011567931
-0.0011660759
-0.001129853
-0.0010406978
-0.00089094692
-0.00067373134
-0.00038404447
-1.9792107e-05
0.00041723834
0.00092057502
0.0014785847
0.0020742336
0.0026854997
0.0032862146
0.0038474991
0.0043396875
0.0047346048
0.0050080078
0.0051419362
0.0051266523
0.0049618252
0.0046567135
0.0042292655
0.0037041035
0.003110115
0.0024808298
0.0018516605
0.0012142434
0.00051981906
0.0024247318
0.001342541
0.00062051691
9.8118139e-05
-0.00032507375
-0.00066493446
-0.00093808203
-0.0011618862
-0.0013482897
-0.0015039545
-0.0016310095
-0.0017275633
-0.0017883516
-0.0018055484
-0.0017696984
-0.00167076
-0.0014992423
-0.0012474053
-0.00091046788
-0.0004877666
1.6234471e-05
0.00059132076
0.0012209074
0.0018823869
0.0025477438
0.0031849318
0.0037598758
0.0042389701
0.004591872
0.0047943141
0.0048306081
0.0046954644
0.0043947752
0.0039450997
0.0033716676
0.0027057914
0.0019856399
0.0012529758
0.00049708436
-0.00034119622
0.0021614946
0.00097922055
0.00019536736
-0.00036899788
-0.00082711564
-0.001198906
-0.0015044107
-0.0017638238
-0.0019908201
-0.0021928353
-0.0023719805
-0.0025256646
-0.0026473265
-0.0027273172
-0.0027538985
-0.0027143541
-0.0025962125
-0.0023885626
-0.0020834201
-0.0016770902
-0.0011714282
-0.00057455842
9.7830979e-05
0.00082294608
0.0015710802
0.0023068328
0.0029910986
0.0035837584
0.0040468814
0.0043481284
0.0044639757
0.0043823409
0.0041041879
0.0036436749
0.0030263934
0.0022866226
0.0014684003
0.00062152495
-0.00026625831
-0.0012648064
0.001673279
0.00040209141
-0.00043745541
-0.001041085
-0.0015338527
-0.0019395789
-0.0022815112
-0.0025823876
-0.0028573538
-0.0031143847
-0.0033553623
-0.0035768
-0.0037706457
-0.003925216
-0.0040262372
-0.0040580029
-0.0040046588
-0.0038516135
-0.0035870464
-0.0032034502
-0.0026991223
-0.0020796797
-0.0013586519
-0.00055844057
0.00028996763
0.0011478905
0.0019707723
0.0027109624
0.0033213145
0.0037592948
0.003991145
0.003995575
0.0037664587
0.0033139347
0.0026631636
0.0018515799
0.00093025638
-4.1164848e-05
-0.001075913
-0.0022554042
0.00093768526
-0.00041018045
-0.0012986844
-0.0019385324
-0.0024654642
-0.002907053
-0.0032895557
-0.0036380095
-0.0039688196
-0.0042903244
-0.004604027
-0.0049054101
-0.0051847932
-0.0054282914
-0.0056188694
-0.0057375159
-0.0057645635
-0.0056811682
-0.0054709408
-0.0051216779
-0.0046271355
-0.0039889532
-0.0032176404
-0.0023340773
-0.0013697011
-0.00036605619
0.00062672176
0.0015526203
0.0023536454
0.0029746668
0.0033687283
0.003502159
0.0033587607
0.0029422469
0.0022758568
0.0013998554
0.00037333317
-0.00073227625
-0.0019307292
-0.003316308
-6.446608e-05
-0.0014757501
-0.0024059815
-0.0030787924
-0.0036393181
-0.0041187114
-0.0045460506
-0.0049484628
-0.0053434565
-0.0057396253
-0.0061380171
-0.0065330239
-0.0069132704
-0.00726257
-0.0075609544
-0.0077858248
-0.0079132712
-0.0079195899
-0.0077830125
-0.0074856226
-0.0070154231
-0.0063685283
-0.0055510014
-0.0045806662
-0.003488099
-0.0023168031
-0.0011221947
3.0846106e-05
0.0010719974
0.0019310031
0.002544252
0.0028616675
0.002852929
0.0025118307
0.0018572457
0.00093123833
-0.00019842133
-0.0014464614
-0.0028267475
-0.0044480282
-0.0013485956
-0.0028091328
-0.0037734631
-0.0044758318
-0.0050693124
-0.0055884282
-0.0060648953
-0.0065277559
-0.0069955269
-0.0074770261
-0.0079728555
-0.0084763437
-0.0089744411
-0.0094486423
-0.009875953
-0.010229973
-0.010482165
-0.010603371
-0.0105656
-0.010344111
-0.009919749
-0.0092815088
-0.0084290678
-0.0073752291
-0.0061478241
-0.0047907635
-0.0033638121
-0.0019406854
-0.00060515774
0.00055493385
0.0014555333
0.0020253175
0.0022145538
0.0020021833
0.0013989151
0.00044655244
-0.00077831774
-0.002174515
-0.0037555745
-0.0056464662
-0.0029257982
-0.004420745
-0.005411254
-0.0061396284
-0.0067652672
-0.0073258199
-0.0078554639
-0.0083850228
-0.0089339948