/*--------------------------------*- C++ -*----------------------------------*\
  =========                 |
  \\      /  F ield         | OpenFOAM: The Open Source CFD Toolbox
   \\    /   O peration     | Website:  https://openfoam.org
    \\  /    A nd           | Version:  7
     \\/     M anipulation  |
\*---------------------------------------------------------------------------*/
FoamFile
{
    version     2.0;
    format      ascii;
    class       surfaceScalarField;
    location    "33";
    object      phi;
}
// * * * * * * * * * * * * * * * * * * * * * * * * * * * * * * * * * * * * * //

dimensions      [0 3 -1 0 0 0 0];

internalField   nonuniform List<scalar> 
45600
(
2.7502335e-07
-2.8238569e-07
-8.2712976e-11
4.0326123e-07
-1.2821228e-07
-2.607877e-11
1.3252128e-07
2.7074752e-07
-7.2950619e-12
-5.6232981e-07
6.9485271e-07
-1.9567913e-12
-1.6393236e-06
1.0769894e-06
3.2151257e-12
-3.0276306e-06
1.3883002e-06
6.7250092e-12
-4.6524704e-06
1.6248329e-06
9.0468788e-12
-6.4450996e-06
1.7926215e-06
1.0687452e-11
-8.345424e-06
1.9003136e-06
1.1827539e-11
-1.0301443e-05
1.9560055e-06
1.256768e-11
-1.2267403e-05
1.9659466e-06
1.3000869e-11
-1.4201581e-05
1.9341684e-06
1.3172563e-11
-1.6064237e-05
1.8626465e-06
1.3066202e-11
-1.7816023e-05
1.7517759e-06
1.2644088e-11
-1.941705e-05
1.6010134e-06
1.1893098e-11
-2.0826656e-05
1.4095919e-06
1.08324e-11
-2.2003908e-05
1.1772405e-06
9.4894752e-12
-2.290877e-05
9.0485739e-07
7.8687971e-12
-2.3503866e-05
5.9509622e-07
5.9521769e-12
-2.3756695e-05
2.5282873e-07
3.7032668e-12
-2.3642133e-05
-1.1456727e-07
1.1382182e-12
-2.3145006e-05
-4.9713464e-07
-1.6236374e-12
-2.226258e-05
-8.8242757e-07
-4.3885216e-12
-2.1006626e-05
-1.2559393e-06
-6.981238e-12
-1.9404865e-05
-1.6017332e-06
-9.3657884e-12
-1.7501546e-05
-1.9032958e-06
-1.159673e-11
-1.5356956e-05
-2.1445874e-06
-1.3659953e-11
-1.3045752e-05
-2.3112164e-06
-1.5279024e-11
-1.0654114e-05
-2.3916378e-06
-1.6001243e-11
-8.2758328e-06
-2.3782424e-06
-1.5581458e-11
-6.0075638e-06
-2.2682072e-06
-1.4301435e-11
-3.9435027e-06
-2.0640286e-06
-1.275377e-11
-2.1697584e-06
-1.7737759e-06
-1.1138713e-11
-7.5855125e-07
-1.4112663e-06
-8.8589827e-12
2.3816611e-07
-9.9671939e-07
-5.3012504e-12
7.9651854e-07
-5.5827173e-07
-1.2581007e-12
9.2931492e-07
-1.3270995e-07
2.6060326e-12
7.0565224e-07
2.2361806e-07
5.5109142e-12
2.9050125e-07
4.149852e-07
7.796894e-12
2.9038689e-07
4.604699e-13
1.328172e-07
-4.1517918e-07
-2.3482585e-11
-3.0175425e-07
3.0637316e-07
-1.4889142e-11
-1.6154546e-06
1.5844619e-06
-1.2917707e-11
-3.8747461e-06
2.9541608e-06
-1.3585014e-11
-7.0073689e-06
4.2096292e-06
-1.4698395e-11
-1.0879771e-05
5.2607186e-06
-1.622302e-11
-1.5335179e-05
6.0802595e-06
-1.7630562e-11
-2.0216011e-05
6.6734771e-06
-1.8609961e-11
-2.5374063e-05
7.0583923e-06
-1.9141933e-11
-3.0673271e-05
7.2552378e-06
-1.9273914e-11
-3.5988536e-05
7.2812312e-06
-1.9013991e-11
-4.1202823e-05
7.1484725e-06
-1.8336963e-11
-4.6203965e-05
6.8638074e-06
-1.7236619e-11
-5.0882091e-05
6.429923e-06
-1.5748604e-11
-5.5128221e-05
5.8471631e-06
-1.3924473e-11
-5.8834306e-05
5.1156915e-06
-1.1793769e-11
-6.1894791e-05
4.2377307e-06
-9.3439932e-12
-6.42096e-05
3.2196661e-06
-6.5533435e-12
-6.5688351e-05
2.07385e-06
-3.3923798e-12
-6.625546e-05
8.1994651e-07
5.6359535e-14
-6.5855969e-05
-5.1404546e-07
3.6131575e-12
-6.446079e-05
-1.8923128e-06
7.130648e-12
-6.207246e-05
-3.2707772e-06
1.0472241e-11
-5.8729081e-05
-4.5993532e-06
1.3683141e-11
-5.4507077e-05
-5.823762e-06
1.6815507e-11
-4.9521903e-05
-6.8884648e-06
1.9710359e-11
-4.392638e-05
-7.7400894e-06
2.1933168e-11
-3.7906422e-05
-8.3311797e-06
2.3061984e-11
-3.1674125e-05
-8.6239952e-06
2.3113565e-11
-2.5458411e-05
-8.5940422e-06
2.2606569e-11
-1.949364e-05
-8.2330136e-06
2.2004386e-11
-1.4006728e-05
-7.5508878e-06
2.1034461e-11
-9.2032554e-06
-6.5771741e-06
1.8810854e-11
-5.2528581e-06
-5.3616842e-06
1.4969633e-11
-2.2739859e-06
-3.9757264e-06
1.0577115e-11
-3.1734094e-07
-2.5150286e-06
7.225567e-12
6.5699395e-07
-1.1069707e-06
4.9292547e-12
8.0369155e-07
7.7161215e-08
4.6077235e-12
4.1794233e-07
8.0093307e-07
5.104081e-12
7.0824079e-07
-3.7364996e-12
-2.7361426e-07
-1.4155134e-07
-1.2992787e-11
-1.6275272e-06
1.6602924e-06
-7.7931763e-12
-4.2894481e-06
4.2463907e-06
-9.0679613e-12
-8.2747144e-06
6.9394361e-06
-7.5805862e-12
-1.3474445e-05
9.409369e-06
-5.5476689e-12
-1.970874e-05
1.149502e-05
-4.4579414e-12
-2.6765763e-05
1.3137286e-05
-3.7744687e-12
-3.4426624e-05
1.433434e-05
-3.1829876e-12
-4.2478632e-05
1.5110406e-05
-2.6437408e-12
-5.0720445e-05
1.5497059e-05
-2.1651651e-12
-5.8962283e-05
1.5523076e-05
-1.7539564e-12
-6.7023676e-05
1.5209866e-05
-1.3793394e-12
-7.4730517e-05
1.4570645e-05
-9.8490653e-13
-8.1912703e-05
1.3612109e-05
-5.3688406e-13
-8.840313e-05
1.2337593e-05
-5.2320037e-14
-9.4038455e-05
1.0751023e-05
4.1261258e-13
-9.8661771e-05
8.861051e-06
8.0290712e-13
-0.00010212707
6.6849604e-06
1.0997768e-12
-0.0001043052
4.2519726e-06
1.3673365e-12
-0.00010509099
1.6057188e-06
1.6932128e-12
-0.00010441062
-1.1944037e-06
2.0960698e-12
-0.00010222943
-4.0734858e-06
2.4473219e-12
-9.8558489e-05
-6.9417077e-06
2.5642695e-12
-9.3459973e-05
-9.6978781e-06
2.4087013e-12
-8.7050377e-05
-1.2233391e-05
2.19585e-12
-7.9500999e-05
-1.443787e-05
2.2473361e-12
-7.1035285e-05
-1.6205788e-05
2.6293098e-12
-6.1922709e-05
-1.7443702e-05
2.9632835e-12
-5.246911e-05
-1.8077557e-05
2.749642e-12
-4.3003649e-05
-1.8059538e-05
2.0075255e-12
-3.3862835e-05
-1.7373917e-05
1.4911034e-12
-2.5372274e-05
-1.6041494e-05
1.9679752e-12
-1.7826909e-05
-1.4122466e-05
3.1633561e-12
-1.1470367e-05
-1.1718098e-05
3.7792523e-12
-6.4737961e-06
-8.9722777e-06
2.9985605e-12
-2.9140341e-06
-6.0749507e-06
1.6892092e-12
-7.5130575e-07
-3.2698955e-06
1.5138405e-12
1.9429219e-07
-8.6844749e-07
3.6447875e-12
2.6554564e-07
7.2983396e-07
6.4680077e-12
9.7378557e-07
1.0186546e-12
-7.4586318e-07
6.043258e-07
-1.3136562e-11
-3.1796656e-06
4.0940965e-06
-1.733513e-12
-7.3461412e-06
8.4128716e-06
-7.1862258e-12
-1.3163095e-05
1.2756395e-05
-6.5166412e-12
-2.0455853e-05
1.6702134e-05
-3.8445326e-12
-2.8992663e-05
2.0031837e-05
-2.4698754e-12
-3.8513898e-05
2.2658524e-05
-1.5918787e-12
-4.8752692e-05
2.4573134e-05
-8.2674213e-13
-5.9446993e-05
2.5804706e-05
-1.6697836e-13
-7.0344838e-05
2.6394906e-05
4.1058291e-13
-8.1205125e-05
2.6383368e-05
8.9778896e-13
-9.1795972e-05
2.5800715e-05
1.2727613e-12
-0.0001018924
2.466707e-05
1.5505473e-12
-0.00011127462
2.2994319e-05
1.7773699e-12
-0.00011972777
2.0790737e-05
1.9938857e-12
-0.00012704359
1.8066847e-05
2.2023806e-12
-0.00013302414
1.4841602e-05
2.3523045e-12
-0.00013748739
1.1148218e-05
2.3554557e-12
-0.00014027448
7.0390655e-06
2.1693871e-12
-0.00014125803
2.5892465e-06
1.8688613e-12
-0.00014035075
-2.1016923e-06
1.6155806e-12
-0.00013751437
-6.9098717e-06
1.459404e-12
-0.000132767
-1.1689053e-05
1.3015479e-12
-0.00012618927
-1.6275579e-05
9.1240926e-13
-0.00011792785
-2.0494816e-05
1.919258e-13
-0.00010819589
-2.4169867e-05
-6.0393068e-13
-9.7269875e-05
-2.7131843e-05
-9.9600654e-13
-8.5482422e-05
-2.9231148e-05
-7.7104547e-13
-7.3210937e-05
-3.0348975e-05
-3.3798154e-13
-6.0862225e-05
-3.0408186e-05
-3.970979e-13
-4.8853415e-05
-2.9382751e-05
-1.0642309e-12
-3.7589915e-05
-2.7305103e-05
-1.4564936e-12
-2.7441369e-05
-2.4271085e-05
-5.4481857e-13
-1.8716725e-05
-2.044267e-05
1.4311898e-12
-1.1639419e-05
-1.6049415e-05
2.8773404e-12
-6.3235055e-06
-1.139079e-05
2.7215157e-12
-2.7515372e-06
-6.8419788e-06
2.0710777e-12
-7.5721648e-07
-2.8629143e-06
2.8111171e-12
-9.5414286e-09
-1.7827362e-08
4.518489e-12
9.6428574e-07
4.0691161e-12
-1.2279773e-06
1.8323175e-06
-1.4590559e-11
-4.7881304e-06
7.6542469e-06
4.3280676e-12
-1.0521569e-05
1.4146317e-05
-6.2509506e-12
-1.8214362e-05
2.0449193e-05
-7.3720066e-12
-2.7603964e-05
2.6091739e-05
-4.9774669e-12
-3.8396317e-05
3.0824197e-05
-4.2049504e-12
-5.0283066e-05
3.4545282e-05
-3.8287523e-12
-6.2954785e-05
3.7244859e-05
-3.3806886e-12
-7.6109034e-05
3.8958955e-05
-2.9585555e-12
-8.9453765e-05
3.9739637e-05
-2.5344869e-12
-0.00010270746
3.9637063e-05
-2.0735831e-12
-0.00011559751
3.8690773e-05
-1.6065615e-12
-0.00012785831
3.6927882e-05
-1.1753888e-12
-0.00013923016
3.4366169e-05
-7.8938431e-13
-0.00014945971
3.1020279e-05
-4.1803105e-13
-0.00015830244
2.6909566e-05
-6.8233856e-15
-0.0001655272
2.2066363e-05
4.7858224e-13
-0.00017092271
1.6543729e-05
9.916728e-13
-0.00017430555
1.0421917e-05
1.4121962e-12
-0.0001755293
3.8130065e-06
1.6493775e-12
-0.00017449408
-3.1369306e-06
1.7573633e-12
-0.00017115585
-1.0248128e-05
1.9115375e-12
-0.00016553478
-1.7310136e-05
2.2588097e-12
-0.00015772187
-2.4088459e-05
2.6975226e-12
-0.00014788315
-3.03335e-05
2.8917994e-12
-0.00013626055
-3.5792464e-05
2.6028911e-12
-0.00012316893
-4.0223507e-05
2.0520814e-12
-0.00010898872
-4.3411423e-05
1.8463226e-12
-9.4153818e-05
-4.5183886e-05
2.3532038e-12
-7.9134847e-05
-4.5427083e-05
3.1298424e-12
-6.4418017e-05
-4.4099493e-05
3.2364945e-12
-5.0480317e-05
-4.1242813e-05
2.3676845e-12
-3.7762144e-05
-3.6989389e-05
1.5063204e-12
-2.6638881e-05
-3.1566049e-05
1.9197473e-12
-1.7393209e-05
-2.5295047e-05
3.3923576e-12
-1.018988e-05
-1.859397e-05
4.3530437e-12
-5.0546863e-06
-1.1977115e-05
4.194335e-12
-1.8598515e-06
-6.057841e-06
2.859526e-12
-3.2225983e-07
-1.5554638e-06
-1.4735645e-14
6.4204219e-07
5.8794892e-12
-1.6931748e-06
3.5255077e-06
-1.7074504e-11
-6.3714238e-06
1.2332487e-05
9.7687134e-12
-1.367147e-05
2.144637e-05
-5.2381358e-12
-2.3234076e-05
3.0011807e-05
-7.4289856e-12
-3.4695258e-05
3.7552923e-05
-4.7375344e-12
-4.7689833e-05
4.3818774e-05
-4.1627916e-12
-6.1857527e-05
4.8712982e-05
-3.9895109e-12
-7.6848061e-05
5.2235402e-05
-3.5985559e-12
-9.2323856e-05
5.4434755e-05
-3.2215159e-12
-0.00010796025
5.5376033e-05
-2.8792881e-12
-0.00012344394
5.5120752e-05
-2.4957411e-12
-0.00013847066
5.3717495e-05
-2.0487105e-12
-0.00015274319
5.1200412e-05
-1.5677534e-12
-0.0001659705
4.7593481e-05
-1.102073e-12
-0.00017786869
4.2918476e-05
-6.8831898e-13
-0.000188164
3.720487e-05
-3.1506341e-13
-0.00019659784
3.0500194e-05
8.9897224e-14
-0.00020293379
2.287967e-05
5.9769011e-13
-0.00020696609
1.4454224e-05
1.1801781e-12
-0.00020852924
5.3761692e-06
1.6871638e-12
-0.00020750806
-4.1581049e-06
1.9636946e-12
-0.00020384762
-1.3908579e-05
2.0283235e-12
-0.00019756242
-2.3595365e-05
2.1097832e-12
-0.00018874394
-3.2906967e-05
2.4535346e-12
-0.00017756586
-4.1511558e-05
3.0061735e-12
-0.00016428621
-4.9072063e-05
3.351494e-12
-0.00014924545
-5.5264243e-05
3.0994743e-12
-0.00013285986
-5.9797061e-05
2.4183508e-12
-0.00011560967
-6.243416e-05
2.0556394e-12
-9.8021784e-05
-6.3015006e-05
2.58058e-12
-8.0647227e-05
-6.1473975e-05
3.5662737e-12
-6.403413e-05
-5.7855794e-05
3.8681669e-12
-4.8697391e-05
-5.232611e-05
3.0203617e-12
-3.5086904e-05
-4.5176656e-05
2.0355032e-12
-2.3556729e-05
-3.6825339e-05
2.2191428e-12
-1.4337893e-05
-2.7812775e-05
3.576937e-12
-7.5174505e-06
-1.8797451e-05
5.1046892e-12
-3.026703e-06
-1.0548579e-05
3.683878e-12
-6.4250274e-07
-3.9397066e-06
-2.3563528e-12
-4.7502184e-10
8.1076092e-12
-2.1329404e-06
5.6584665e-06
-1.9839918e-11
-7.8910853e-06
1.8090615e-05
1.4557481e-11
-1.6717416e-05
3.0272708e-05
-4.4806051e-12
-2.8105751e-05
4.1400153e-05
-7.4350161e-12
-4.1585096e-05
5.1032273e-05
-4.2443936e-12
-5.671414e-05
5.8947818e-05
-3.7533415e-12
-7.3078279e-05
6.5077123e-05
-3.746545e-12
-9.0287082e-05
6.9444209e-05
-3.3841596e-12
-0.00010797131
7.2118987e-05
-2.983307e-12
-0.00012577924
7.3183974e-05
-2.6480536e-12
-0.00014337271
7.2714217e-05
-2.3261753e-12
-0.00016042338
7.0768161e-05
-1.9645545e-12
-0.00017661015
6.7387176e-05
-1.5371905e-12
-0.00019161809
6.2601428e-05
-1.055152e-12
-0.00020513946
5.6439851e-05
-5.7338364e-13
-0.00021687678
4.8942195e-05
-1.6330243e-13
-0.00022654808
4.0171493e-05
1.6176899e-13
-0.00023389401
3.022558e-05
4.8833043e-13
-0.00023868645
1.9246651e-05
9.3364661e-13
-0.00024073837
7.4280919e-06
1.5031752e-12
-0.0002399143
-4.9821464e-06
2.0230458e-12
-0.00023614095
-1.7681916e-05
2.2720918e-12
-0.0002294174
-3.0318926e-05
2.2034725e-12
-0.0002198241
-4.2500304e-05
2.0893427e-12
-0.00020752989
-5.3805811e-05
2.2993502e-12
-0.00019279607
-6.3805869e-05
2.8679826e-12
-0.00017597665
-7.2083599e-05
3.3186211e-12
-0.00015751357
-7.8260098e-05
3.093267e-12
-0.00013792607
-8.2021695e-05
2.2718977e-12
-0.00011779372
-8.3147462e-05
1.7179763e-12
-9.7732983e-05
-8.1534775e-05
2.1960363e-12
-7.8368133e-05
-7.7220584e-05
3.3152342e-12
-6.0297819e-05
-7.0396304e-05
3.8025798e-12
-4.405947e-05
-6.1414977e-05
3.0775874e-12
-3.0094433e-05
-5.0790477e-05
2.1095684e-12
-1.8717306e-05
-3.9189988e-05
2.5678668e-12
-1.0093059e-05
-2.7421664e-05
4.9729858e-12
-4.2252898e-06
-1.6416292e-05
4.0256918e-12
-9.5847532e-07
-7.2065154e-06
-4.7114446e-12
-9.5898056e-07
1.0160632e-11
-2.5450548e-06
8.2035445e-06
-2.2599203e-11
-9.3288501e-06
2.4874389e-05
1.88362e-11
-1.9615369e-05
4.0559229e-05
-4.016136e-12
-3.2756853e-05
5.4541647e-05
-7.6866649e-12
-4.8175885e-05
6.6451313e-05
-3.9869945e-12
-6.5354085e-05
7.6126021e-05
-3.5463818e-12
-8.382213e-05
8.3545168e-05
-3.7336233e-12
-0.00010315061
8.8772688e-05
-3.4772567e-12
-0.0001229416
9.1909982e-05
-3.1005141e-12
-0.00014282092
9.3063305e-05
-2.7480605e-12
-0.0001624313
9.2324601e-05
-2.4227642e-12
-0.00018142683
8.9763688e-05
-2.1075793e-12
-0.0001994692
8.5429536e-05
-1.7658078e-12
-0.00021622599
7.9358215e-05
-1.3504319e-12
-0.00023137125
7.1585107e-05
-8.4692942e-13
-0.00024458826
6.2159215e-05
-3.1753204e-13
-0.00025557452
5.1157767e-05
1.2803155e-13
-0.0002640486
3.8699655e-05
4.4272107e-13
-0.00026975861
2.4956639e-05
7.2074487e-13
-0.00027249204
1.0161501e-05
1.1297249e-12
-0.00027208662
-5.3875594e-06
1.7235953e-12
-0.00026844166
-2.1326857e-05
2.3329e-12
-0.00026152967
-3.7230885e-05
2.6329574e-12
-0.00025140731
-5.2622668e-05
2.5017349e-12
-0.00023822492
-6.6988251e-05
2.2311121e-12
-0.0002222336
-7.9797236e-05
2.3195529e-12
-0.00020378861
-9.0528591e-05
2.9187468e-12
-0.00018334758
-9.8701064e-05
3.5178821e-12
-0.00016146234
-0.00010390687
3.3954948e-12
-0.00013876321
-0.00010584661
2.5259545e-12
-0.00011593534
-0.00010436275
1.8456284e-12
-9.3687577e-05
-9.9468421e-05
2.2523694e-12
-7.2715443e-05
-9.1368393e-05
3.3705482e-12
-5.3660704e-05
-8.0469611e-05
3.8249019e-12
-3.7071044e-05
-6.7380119e-05
3.0131335e-12
-2.3363957e-05
-5.2897157e-05
2.5913244e-12
-1.2799342e-05
-3.7986328e-05
4.8175093e-12
-5.4648811e-06
-2.3750728e-05
3.7065067e-12
-1.2772453e-06
-1.1394114e-05
-7.4647768e-12
-2.2362423e-06
1.2812592e-11
-2.9284811e-06
1.1132053e-05
-2.5282034e-11
-1.0673671e-05
3.2619555e-05
2.2703491e-11
-2.2336174e-05
5.2221733e-05
-3.7097131e-12
-3.7135974e-05
6.9341453e-05
-8.0743842e-12
-5.4394103e-05
8.370945e-05
-3.8938396e-12
-7.3517613e-05
9.5249538e-05
-3.4353247e-12
-9.3984279e-05
0.00010401184
-3.7508182e-12
-0.00011532793
0.00011011634
-3.6092507e-12
-0.00013712514
0.00011370719
-3.3175982e-12
-0.00015898349
0.00011492166
-2.9908549e-12
-0.00018053173
0.00011387285
-2.6400436e-12
-0.00020141209
0.00011064405
-2.2963738e-12
-0.00022127497
0.00010529241
-1.9766925e-12
-0.00023977612
9.7859358e-05
-1.6493299e-12
-0.00025657631
8.8385294e-05
-1.2407293e-12
-0.0002713434
7.6926298e-05
-7.0646609e-13
-0.00028375652
6.3570897e-05
-1.1194546e-13
-0.00029351235
4.8455506e-05
3.9405792e-13
-0.00030033314
3.1777425e-05
7.2028748e-13
-0.00030397628
1.3804624e-05
9.5269508e-13
-0.00030424551
-5.1183609e-06
1.3067573e-12
-0.00030100291
-2.4569457e-05
1.936092e-12
-0.00029418245
-4.4051322e-05
2.642469e-12
-0.00028380317
-6.3001909e-05
3.0304706e-12
-0.00026998212
-8.0809291e-05
2.8757573e-12
-0.00025294542
-9.6833984e-05
2.4610449e-12
-0.00023303596
-0.00011043812
2.4033163e-12
-0.00021071599
-0.00012102106
2.9835258e-12
-0.00018656264
-0.00012806016
3.6857524e-12
-0.00016125477
-0.0001311544
3.6647333e-12
-0.00013554992
-0.00013006761
2.8166882e-12
-0.00011025147
-0.00012476696
2.1189489e-12
-8.6167414e-05
-0.00011545252
2.4962702e-12
-6.406374e-05
-0.00010257325
3.4333267e-12
-4.4616636e-05
-8.6827142e-05
3.5032558e-12
-2.8368508e-05
-6.9145283e-05
3.2183063e-12
-1.5693162e-05
-5.0661728e-05
5.2891345e-12
-6.7752354e-06
-3.2668681e-05
3.348162e-12
-1.6070349e-06
-1.6562289e-05
-1.0638276e-11
-3.8432829e-06
1.5425571e-11
-3.2816998e-06
1.4413781e-05
-2.7863447e-11
-1.1915867e-05
4.12537e-05
2.6171537e-11
-2.4855506e-05
6.5161375e-05
-3.4831073e-12
-4.1199912e-05
8.5685863e-05
-8.4987618e-12
-6.0176299e-05
0.00010268584
-3.9102771e-12
-8.1122231e-05
0.00011619548
-3.4240566e-12
-0.00010346628
0.00012635589
-3.7911169e-12
-0.00012670885
0.00013335891
-3.700186e-12
-0.00015040461
0.00013740295
-3.4956806e-12
-0.00017414709
0.00013866414
-3.2530498e-12
-0.00019755589
0.00013728165
-2.9341294e-12
-0.00022026663
0.00013335479
-2.5590827e-12
-0.00024192382
0.00012694962
-2.1829974e-12
-0.00026217661
0.00011811215
-1.8498401e-12
-0.0002806771
0.00010688578
-1.5342407e-12
-0.00029708123
9.3330421e-05
-1.1350665e-12
-0.00031105189
7.7541547e-05
-5.7330623e-13
-0.00032226407
5.9667699e-05
9.2691617e-14
-0.00033041212
3.9925494e-05
6.7712815e-13
-0.00033521888
1.8611397e-05
1.0217899e-12
-0.00033644704
-3.8902176e-06
1.1807067e-12
-0.00033391166
-2.7104875e-05
1.5045542e-12
-0.00032749591
-5.0467095e-05
2.1298223e-12
-0.00031716682
-7.3330976e-05
2.917619e-12
-0.00030299222
-9.4983838e-05
3.4066528e-12
-0.00028515673
-0.00011466945
3.2608526e-12
-0.0002639751
-0.00013161979
2.7316995e-12
-0.00023990058
-0.00014509566
2.5248905e-12
-0.00021352582
-0.00015443495
3.0310675e-12
-0.00018557375
-0.00015910642
3.7463814e-12
-0.00015687652
-0.00015876476
3.7711005e-12
-0.00012834158
-0.0001533019
3.0010844e-12
-0.00010090606
-0.00014288812
2.4221533e-12
-7.5482497e-05
-0.00012799686
2.7208883e-12
-5.2901148e-05
-0.00010940846
3.1186686e-12
-3.3855093e-05
-8.8191286e-05
3.5365512e-12
-1.8854773e-05
-6.5662053e-05
6.1788543e-12
-8.1982695e-06
-4.3325215e-05
3.3677007e-12
-1.9611699e-06
-2.2799384e-05
-1.4013187e-11
-5.8044635e-06
1.8037885e-11
-3.6023036e-06
1.8016113e-05
-3.0301148e-11
-1.3044869e-05
5.069624e-05
2.9203554e-11
-2.714928e-05
7.9265793e-05
-3.3424156e-12
-4.4907157e-05
0.00010344375
-8.9145665e-12
-6.5461489e-05
0.00012324017
-3.9842009e-12
-8.8087211e-05
0.0001388212
-3.5204756e-12
-0.00011216877
0.00015043746
-3.9313301e-12
-0.00013717738
0.00015836753
-3.8300983e-12
-0.00016264984
0.00016287541
-3.6513308e-12
-0.00018816988
0.00016418418
-3.4857761e-12
-0.00021335259
0.00016246435
-3.2567118e-12
-0.00023783197
0.00015783417
-2.9301806e-12
-0.00026125184
0.0001503695
-2.5219129e-12
-0.00028325976
0.00014012007
-2.1015137e-12
-0.00030350374
0.00012712977
-1.7441441e-12
-0.00032163158
0.00011145825
-1.4351809e-12
-0.00033729236
9.3202319e-05
-1.0486507e-12
-0.0003501403
7.251563e-05
-4.6508473e-13
-0.00035984071
4.9625909e-05
2.7460047e-13
-0.00036607833
2.4849047e-05
9.3605793e-13
-0.00036856886
-1.3996709e-06
1.2715918e-12
-0.00036707124
-2.8602508e-05
1.4970083e-12
-0.00036140628
-5.6132093e-05
1.7405745e-12
-0.00035147451
-8.3262778e-05
2.3237026e-12
-0.00033727776
-0.00010918058
3.1601575e-12
-0.00031894083
-0.00013300633
3.7366938e-12
-0.00029673165
-0.00015382893
3.6227728e-12
-0.00027107719
-0.00017075015
3.0283706e-12
-0.00024257159
-0.00018294063
2.70518e-12
-0.00021197326
-0.00018970478
3.1029975e-12
-0.00018018757
-0.00019055041
3.7353899e-12
-0.00014823326
-0.00018525614
3.7517439e-12
-0.00011719272
-0.00017392867
3.135173e-12
-8.8148949e-05
-0.0001570407
2.6563906e-12
-6.2115398e-05
-0.00013544205
2.5234043e-12
-3.9966489e-05
-0.00011034017
3.2739517e-12
-2.2377598e-05
-8.3250918e-05
6.9325201e-12
-9.7826849e-06
-5.5920129e-05
3.6085882e-12
-2.3546987e-06
-3.0227365e-05
-1.7518379e-11
-8.1591852e-06
2.0974084e-11
-3.8870499e-06
2.1903194e-05
-3.2518948e-11
-1.4048657e-05
6.0857815e-05
3.1785678e-11
-2.9192044e-05
9.4409189e-05
-3.3218485e-12
-4.8215248e-05
0.00012246696
-9.3317194e-12
-7.0187821e-05
0.00014521275
-4.070097e-12
-9.4330035e-05
0.00016296341
-3.6627167e-12
-0.00011998818
0.00017609561
-4.164467e-12
-0.00014660904
0.0001849884
-4.0602628e-12
-0.00017371583
0.00018998221
-3.857185e-12
-0.0002008868
0.00019135515
-3.7014226e-12
-0.00022773702
0.00018931457
-3.5365479e-12
-0.00025390374
0.00018400089
-3.3121165e-12
-0.00027903513
0.00017550088
-2.9781508e-12
-0.00030278224
0.00016386719
-2.5307217e-12
-0.00032479388
0.00014914142
-2.0550062e-12
-0.00034471395
0.00013137833
-1.6593704e-12
-0.00036218116
0.00011066953
-1.346623e-12
-0.00037683104
8.7165497e-05
-9.7427933e-13
-0.00038830033
6.1095183e-05
-3.8043142e-13
-0.00039623419
3.2782909e-05
4.3679884e-13
-0.00040029629
2.6624561e-06
1.2616822e-12
-0.00040018377
-2.8714998e-05
1.705266e-12
-0.00039564395
-6.0671923e-05
1.8605505e-12
-0.00038649727
-9.2409498e-05
2.0241593e-12
-0.00037266256
-0.00012301533
2.5471534e-12
-0.00035418491
-0.00015148397
3.3836211e-12
-0.00033126372
-0.00017675006
4.0044985e-12
-0.00030427774
-0.00019773609
3.9201541e-12
-0.00027380291
-0.00021341548
3.3057026e-12
-0.00024061827
-0.00022288951
2.9104922e-12
-0.00020569518
-0.00022547353
3.1775517e-12
-0.00017016636
-0.00022078492
3.664917e-12
-0.00013527313
-0.00020882184
3.6837081e-12
-0.00010229329
-0.00019002054
3.154546e-12
-7.245593e-05
-0.00016527945
2.3840925e-12
-4.6853301e-05
-0.00013594282
2.894371e-12
-2.6361362e-05
-0.00010374285
7.4292324e-12
-1.1580436e-05
-7.0701041e-05
3.7478756e-12
-2.8033117e-06
-3.9004464e-05
-2.1383978e-11
-1.0962526e-05
2.4438921e-11
-4.1321144e-06
2.6035343e-05
-3.4445961e-11
-1.4914093e-05
7.1639757e-05
3.3945869e-11
-3.0957123e-05
0.00011045222
-3.4172076e-12
-5.1080639e-05
0.00014259049
-9.7869961e-12
-7.429225e-05
0.00016842437
-4.183728e-12
-9.9766097e-05
0.00018843726
-3.8017677e-12
-0.00012681666
0.00020314617
-4.4187686e-12
-0.00015487127
0.00021304301
-4.3664725e-12
-0.00018344389
0.00021855484
-4.1606503e-12
-0.00021211144
0.00022002272
-3.975994e-12
-0.00024049338
0.00021769651
-3.7972719e-12
-0.00026823486
0.00021174238
-3.6225525e-12
-0.00029499345
0.00020225946
-3.4070391e-12
-0.00032042898
0.00018930272
-3.0669158e-12
-0.00034419633
0.00017290878
-2.5780615e-12
-0.00036594066
0.00015312267
-2.0373867e-12
-0.00038529495
0.00013002385
-1.586466e-12
-0.00040187991
0.00010375046
-1.2557119e-12
-0.00041530635
7.45216e-05
-8.9565968e-13
-0.00042518069
4.2657229e-05
-2.8454188e-13
-0.00043111388
8.595654e-06
6.3469986e-13
-0.00043273613
-2.7092725e-05
1.473491e-12
-0.00042971406
-6.3693962e-05
2.0447508e-12
-0.00042177607
-0.00010034748
2.2429424e-12
-0.00040874163
-0.00013604981
2.3644641e-12
-0.00039055532
-0.00016967033
2.8156018e-12
-0.00036732345
-0.00019998194
3.6006305e-12
-0.00033934973
-0.00022570976
4.2028612e-12
-0.00030716528
-0.00024559988
4.1222975e-12
-0.00027154676
-0.00025850804
3.5155488e-12
-0.00023351597
-0.00026350438
3.0798716e-12
-0.00019431497
-0.00025998596
3.2156245e-12
-0.00015535289
-0.00024778389
3.5766714e-12
-0.00011812523
-0.00022724816
3.487201e-12
-8.4111807e-05
-0.00019929288
2.5880734e-12
-5.4665477e-05
-0.00016538918
2.8124938e-12
-3.0907345e-05
-0.000127501
7.9861742e-12
-1.3644697e-05
-8.7963683e-05
3.7283089e-12
-3.3229891e-06
-4.9326136e-05
-2.5914959e-11
-1.4285543e-05
2.8482322e-11
-4.3334509e-06
3.0368834e-05
-3.6056299e-11
-1.5627789e-05
8.2934058e-05
3.5706652e-11
-3.2417903e-05
0.00012724234
-3.5683968e-12
-5.3460294e-05
0.0001636329
-1.0277014e-11
-7.7712438e-05
0.00019267652
-4.3733387e-12
-0.00010431097
0.00021503581
-3.95894e-12
-0.00013254488
0.00023138008
-4.6494112e-12
-0.00016182689
0.00024232502
-4.672886e-12
-0.00019166583
0.00024839378
-4.5224364e-12
-0.00022164119
0.00024999808
-4.3490806e-12
-0.00025138091
0.00024743624
-4.1327541e-12
-0.00028054258
0.00024090406
-3.9159314e-12
-0.00030879814
0.00023051503
-3.7325298e-12
-0.00033582171
0.00021632628
-3.5259129e-12
-0.0003612801
0.00019836717
-3.181312e-12
-0.00038482588
0.00017666845
-2.6519151e-12
-0.00040609247
0.00015129046
-2.0391728e-12
-0.00042469169
0.0001223497
-1.5166373e-12
-0.00044021375
9.0043667e-05
-1.1475195e-12
-0.00045223056
5.4674019e-05
-7.7848057e-13
-0.00046030295
1.6668025e-05
-1.6215058e-13
-0.0004639935
-2.3402187e-05
7.258298e-13
-0.0004628844
-6.4803033e-05
1.7025869e-12
-0.00045660331
-0.00010662853
2.3898592e-12
-0.00044485598
-0.00014779712
2.6448332e-12
-0.00042746604
-0.00018706031
2.7511594e-12
-0.00040442016
-0.00022302787
3.1289085e-12
-0.00037591556
-0.00025421437
3.8132475e-12
-0.00034240452
-0.00027911088
4.326399e-12
-0.00030462854
-0.00029628397
4.2092997e-12
-0.00026363332
-0.00030449962
3.6149323e-12
-0.0002207551
-0.00030286423
3.1707751e-12
-0.00017757162
-0.0002909674
3.2345735e-12
-0.00013581499
-0.00026900477
3.3403902e-12
-9.7251908e-05
-0.00023785593
2.620402e-12
-6.3544824e-05
-0.00019909627
2.9178326e-12
-3.6114688e-05
-0.00015493116
8.8621586e-12
-1.6028561e-05
-0.00010804982
3.7386487e-12
-3.9298361e-06
-6.1424824e-05
-3.1253024e-11
-1.8215408e-05
3.3150609e-11
-4.4872219e-06
3.4856096e-05
-3.7355665e-11
-1.6177318e-05
9.4624121e-05
3.7036031e-11
-3.3549891e-05
0.00014461491
-3.7143227e-12
-5.5314544e-05
0.00018539756
-1.0738885e-11
-8.039035e-05
0.00021775233
-4.6449646e-12
-0.00010788478
0.00024253024
-4.1866007e-12
-0.00013706722
0.00026056253
-4.8853362e-12
-0.00016734023
0.00027259804
-4.943157e-12
-0.00019821115
0.0002792647
-4.8599601e-12
-0.00022926556
0.00028105249
-4.7580809e-12
-0.00026014362
0.0002783143
-4.5682575e-12
-0.00029051961
0.00027128005
-4.3040151e-12
-0.00032008476
0.0002600802
-4.0470097e-12
-0.0003485331
0.00024477463
-3.8483226e-12
-0.00037554986
0.00022538392
-3.6446295e-12
-0.00040080211
0.0002019207
-3.295305e-12
-0.00042393153
0.00017441988
-2.7279368e-12
-0.00044454922
0.00014296741
-2.0405753e-12
-0.00046223313
0.0001077276
-1.4308406e-12
-0.00047652853
6.8969435e-05
-9.9529644e-13
-0.00048695279
2.7092271e-05
-6.026823e-13
-0.00049300556
-1.7349439e-05
-6.7859933e-15
-0.00049418557
-6.3623042e-05
9.1969167e-13
-0.00049001575
-0.00011079833
1.9659072e-12
-0.00048007766
-0.00015773518
2.7391294e-12
-0.00046405557
-0.00020308238
3.0592722e-12
-0.00044178967
-0.0002452938
3.171054e-12
-0.00041333569
-0.00028266839
3.4715457e-12
-0.00037902591
-0.00031342068
4.0053256e-12
-0.00033952328
-0.00033578658
4.3568061e-12
-0.00029585745
-0.00034816542
4.1537732e-12
-0.00024942974
-0.00034929195
3.584226e-12
-0.00020197494
-0.00033842224
3.2091849e-12
-0.00015547282
-0.0003155069
3.0480905e-12
-0.00011201157
-0.00028131717
2.297327e-12
-7.361748e-05
-0.00023749035
2.8728854e-12
-4.2076994e-05
-0.00018647165
9.9812887e-12
-1.8784002e-05
-0.00013134282
3.8964174e-12
-4.6400117e-06
-7.5568779e-05
-3.7427063e-11
-2.2855456e-05
3.8578776e-11
-4.5902836e-06
3.9446418e-05
-3.8332614e-11
-1.6552684e-05
0.00010658649
3.7864381e-11
-3.433334e-05
0.00016239557
-3.8533477e-12
-5.6610876e-05
0.0002076751
-1.1107607e-11
-8.2277171e-05
0.00024341863
-4.9423742e-12
-0.00011041817
0.00027067124
-4.4913303e-12
-0.00014028889
0.00029043326
-5.1812251e-12
-0.00017128548
0.00030359464
-5.2194439e-12
-0.00020291685
0.00031089607
-5.1502212e-12
-0.00023477764
0.00031291329
-5.1113986e-12
-0.00026652353
0.00031006019
-5.0095361e-12
-0.0002978494
0.00030260592
-4.788019e-12
-0.00032847055
0.00029070135
-4.4743347e-12
-0.00035810665
0.00027441075
-4.1684428e-12
-0.00038646818
0.00025374546
-3.9399027e-12
-0.00041324478
0.0002286973
-3.7261791e-12
-0.00043809561
0.00019927069
-3.3673881e-12
-0.00046064146
0.00016551326
-2.7650818e-12
-0.00048045925
0.0001275454
-2.004945e-12
-0.00049707938
8.5589591e-05
-1.2984569e-12
-0.00050998711
4.0000016e-05
-7.7892642e-13
-0.0005186293
-8.7072547e-06
-3.4425896e-13
-0.00052242827
-5.9824101e-05
2.6656129e-13
-0.00052080457
-0.00011242205
1.2055062e-12
-0.00051321083
-0.0001653289
2.2841394e-12
-0.00049917814
-0.00021711504
3.1125919e-12
-0.00047837541
-0.00026609652
3.4882068e-12
-0.00045068052
-0.00031036331
3.6075808e-12
-0.00041625886
-0.00034784238
3.8114284e-12
-0.00037564082
-0.00037640463
4.1349395e-12
-0.00032978528
-0.00039402094
4.2514881e-12
-0.00028011185
-0.00039896535
3.9479624e-12
-0.00022848369
-0.00039005041
3.4783735e-12
-0.00017712614
-0.00036686447
2.9683057e-12
-0.00012847764
-0.00032996568
1.8567551e-12
-8.4985574e-05
-0.00028098241
2.587639e-12
-4.8878631e-05
-0.00022257859
1.1165052e-11
-2.196082e-05
-0.00015826063
4.130327e-12
-5.4696774e-06
-9.2059878e-05
-4.4523324e-11
-2.8325179e-05
4.4939615e-11
-4.6407202e-06
4.4087174e-05
-3.8939886e-11
-1.6747986e-05
0.00011869372
3.8153135e-11
-3.4756305e-05
0.0001804039
-4.0338131e-12
-5.7328453e-05
0.00023024726
-1.1380007e-11
-8.3339252e-05
0.00026942943
-5.2073365e-12
-0.0001118597
0.0002991917
-4.8187255e-12
-0.00014213473
0.00032070829
-5.5393508e-12
-0.000173557
0.00033501692
-5.5593376e-12
-0.00020563941
0.00034297849
-5.4552331e-12
-0.00023798806
0.00034526196
-5.4059001e-12
-0.00027027697
0.0003423491
-5.3574993e-12
-0.00030222515
0.00033455411
-5.2373514e-12
-0.00033357648
0.00032205269
-4.981182e-12
-0.00036408201
0.00030491629
-4.6110321e-12
-0.00039348453
0.00028314799
-4.2420251e-12
-0.00042150494
0.00025671772
-3.9629475e-12
-0.00044783026
0.000225596
-3.7191002e-12
-0.00047210317
0.00018978616
-3.3401041e-12
-0.00049391348
0.0001493557
-2.7039969e-12
-0.00051279202
0.00010446814
-1.8766468e-12
-0.00052820801
5.5416031e-05
-1.0737769e-12
-0.00053957132
2.6560751e-06
-4.534075e-13
-0.00054624176
-5.3153667e-05
4.0452325e-14
-0.00054754735
-0.00011111649
6.8183396e-13
-0.00054281495
-0.00017006132
1.623281e-12
-0.00053141575
-0.00022851423
2.6969583e-12
-0.00051282798
-0.00028468426
3.5358513e-12
-0.0004867173
-0.00033647397
3.9340336e-12
-0.0004530324
-0.0003815273
4.0319884e-12
-0.00041210819
-0.00041732887
4.0870117e-12
-0.00036476271
-0.00044136644
4.125427e-12
-0.00031236678
-0.00045136127
3.9865065e-12
-0.00025686077
-0.0004455564
3.6655783e-12
-0.00020069377
-0.00042303146
3.0317656e-12
-0.00014667112
-0.00038398835
1.4926783e-12
-9.7717398e-05
-0.00032993614
2.2131277e-12
-5.6590327e-05
-0.00026370567
1.2404026e-11
-2.5605323e-05