/*--------------------------------*- C++ -*----------------------------------*\
  =========                 |
  \\      /  F ield         | OpenFOAM: The Open Source CFD Toolbox
   \\    /   O peration     | Website:  https://openfoam.org
    \\  /    A nd           | Version:  7
     \\/     M anipulation  |
\*---------------------------------------------------------------------------*/
FoamFile
{
    version     2.0;
    format      ascii;
    class       surfaceScalarField;
    location    "33";
    object      phi_0;
}
// * * * * * * * * * * * * * * * * * * * * * * * * * * * * * * * * * * * * * //

dimensions      [0 3 -1 0 0 0 0];

internalField   nonuniform List<scalar> 
45600
(
2.7502326e-07
-2.8238519e-07
-8.2752304e-11
4.0326123e-07
-1.2821201e-07
-2.607877e-11
1.325206e-07
2.707478e-07
-7.2950619e-12
-5.6233102e-07
6.9485351e-07
-1.9567913e-12
-1.6393244e-06
1.0769903e-06
3.2151257e-12
-3.0276307e-06
1.3883003e-06
6.7250092e-12
-4.6524705e-06
1.6248321e-06
9.0468788e-12
-6.4451005e-06
1.7926211e-06
1.0687452e-11
-8.3454252e-06
1.9003147e-06
1.1827539e-11
-1.0301443e-05
1.9560072e-06
1.256768e-11
-1.2267401e-05
1.9659473e-06
1.3000869e-11
-1.420158e-05
1.9341675e-06
1.3172563e-11
-1.6064236e-05
1.8626454e-06
1.3066202e-11
-1.7816024e-05
1.7517765e-06
1.2644088e-11
-1.9417051e-05
1.6010158e-06
1.1893098e-11
-2.0826656e-05
1.4095945e-06
1.08324e-11
-2.2003906e-05
1.177241e-06
9.4894752e-12
-2.2908768e-05
9.0485511e-07
7.8687971e-12
-2.3503867e-05
5.9509328e-07
5.9521769e-12
-2.3756699e-05
2.5282882e-07
3.7032668e-12
-2.3642137e-05
-1.1456236e-07
1.1382182e-12
-2.3145007e-05
-4.9712827e-07
-1.6236374e-12
-2.2262575e-05
-8.824262e-07
-4.3885216e-12
-2.100662e-05
-1.2559462e-06
-6.981238e-12
-1.9404864e-05
-1.6017429e-06
-9.3657884e-12
-1.7501553e-05
-1.903297e-06
-1.159673e-11
-1.5356965e-05
-2.1445744e-06
-1.3659953e-11
-1.3045752e-05
-2.3111991e-06
-1.5279024e-11
-1.06541e-05
-2.3916359e-06
-1.6001243e-11
-8.2758173e-06
-2.3782635e-06
-1.5581458e-11
-6.0075662e-06
-2.2682318e-06
-1.4301435e-11
-3.9435263e-06
-2.0640256e-06
-1.275377e-11
-2.1697789e-06
-1.7737402e-06
-1.1138713e-11
-7.5853968e-07
-1.4112352e-06
-8.8589827e-12
2.3820304e-07
-9.9673556e-07
-5.3012504e-12
7.9653921e-07
-5.5832545e-07
-1.2581007e-12
9.2927909e-07
-1.3273547e-07
2.6060326e-12
7.0558317e-07
2.23685e-07
5.5109142e-12
2.9045823e-07
4.1510126e-07
7.796894e-12
2.9044771e-07
4.604699e-13
1.3281689e-07
-4.1517862e-07
-2.3482585e-11
-3.0175402e-07
3.0637336e-07
-1.4889142e-11
-1.6154546e-06
1.5844614e-06
-1.2917707e-11
-3.8747472e-06
2.9541605e-06
-1.3585014e-11
-7.0073706e-06
4.2096299e-06
-1.4698395e-11
-1.0879772e-05
5.2607195e-06
-1.622302e-11
-1.5335178e-05
6.0802592e-06
-1.7630562e-11
-2.0216011e-05
6.6734756e-06
-1.8609961e-11
-2.5374064e-05
7.0583914e-06
-1.9141933e-11
-3.0673273e-05
7.2552389e-06
-1.9273914e-11
-3.5988536e-05
7.2812333e-06
-1.9013991e-11
-4.1202822e-05
7.1484736e-06
-1.8336963e-11
-4.6203963e-05
6.8638065e-06
-1.7236619e-11
-5.088209e-05
6.4299213e-06
-1.5748604e-11
-5.5128221e-05
5.8471628e-06
-1.3924473e-11
-5.8834308e-05
5.1156939e-06
-1.1793769e-11
-6.1894792e-05
4.2377344e-06
-9.3439932e-12
-6.4209598e-05
3.2196678e-06
-6.5533435e-12
-6.5688348e-05
2.0738472e-06
-3.3923798e-12
-6.6255458e-05
8.1994084e-07
5.6359535e-14
-6.5855972e-05
-5.1404831e-07
3.6131575e-12
-6.4460797e-05
-1.8923081e-06
7.130648e-12
-6.2072465e-05
-3.270767e-06
1.0472241e-11
-5.8729076e-05
-4.5993475e-06
1.3683141e-11
-5.4507065e-05
-5.8237692e-06
1.6815507e-11
-4.9521895e-05
-6.888481e-06
1.9710359e-11
-4.3926388e-05
-7.7400975e-06
2.1933168e-11
-3.7906442e-05
-8.3311657e-06
2.3061984e-11
-3.1674135e-05
-8.6239679e-06
2.3113565e-11
-2.5458394e-05
-8.5940313e-06
2.2606569e-11
-1.9493609e-05
-8.2330384e-06
2.2004386e-11
-1.400672e-05
-7.5509272e-06
2.1034461e-11
-9.203289e-06
-6.57718e-06
1.8810854e-11
-5.2529006e-06
-5.3616382e-06
1.4969633e-11
-2.2739808e-06
-3.9756761e-06
1.0577115e-11
-3.1727683e-07
-2.5150444e-06
7.225567e-12
6.5705113e-07
-1.1070588e-06
4.9292547e-12
8.0366638e-07
7.7089403e-08
4.6077235e-12
4.1784945e-07
8.009362e-07
5.104081e-12
7.0829261e-07
-3.7364996e-12
-2.7361488e-07
-1.4155095e-07
-1.2992787e-11
-1.6275275e-06
1.660293e-06
-7.7931763e-12
-4.2894479e-06
4.2463905e-06
-9.0679613e-12
-8.2747145e-06
6.9394351e-06
-7.5805862e-12
-1.3474446e-05
9.4093686e-06
-5.5476689e-12
-1.9708742e-05
1.1495021e-05
-4.4579414e-12
-2.6765764e-05
1.3137287e-05
-3.7744687e-12
-3.4426623e-05
1.433434e-05
-3.1829876e-12
-4.2478631e-05
1.5110405e-05
-2.6437408e-12
-5.0720445e-05
1.5497058e-05
-2.1651651e-12
-5.8962285e-05
1.5523078e-05
-1.7539564e-12
-6.7023676e-05
1.5209868e-05
-1.3793394e-12
-7.4730515e-05
1.4570647e-05
-9.8490653e-13
-8.1912701e-05
1.3612108e-05
-5.3688406e-13
-8.8403128e-05
1.2337591e-05
-5.2320037e-14
-9.4038456e-05
1.0751021e-05
4.1261258e-13
-9.8661774e-05
8.8610528e-06
8.0290712e-13
-0.00010212707
6.6849652e-06
1.0997768e-12
-0.0001043052
4.2519765e-06
1.3673365e-12
-0.00010509098
1.6057173e-06
1.6932128e-12
-0.00010441062
-1.1944107e-06
2.0960698e-12
-0.00010222944
-4.0734918e-06
2.4473219e-12
-9.8558498e-05
-6.9417042e-06
2.5642695e-12
-9.3459982e-05
-9.6978645e-06
2.4087013e-12
-8.7050374e-05
-1.2233379e-05
2.19585e-12
-7.9500983e-05
-1.4437874e-05
2.247336e-12
-7.1035271e-05
-1.620581e-05
2.6293098e-12
-6.1922716e-05
-1.7443719e-05
2.9632835e-12
-5.2469136e-05
-1.8077546e-05
2.749642e-12
-4.3003668e-05
-1.8059503e-05
2.0075255e-12
-3.3862818e-05
-1.7373895e-05
1.4911034e-12
-2.5372232e-05
-1.6041518e-05
1.9679752e-12
-1.7826891e-05
-1.4122518e-05
3.1633561e-12
-1.1470407e-05
-1.1718116e-05
3.7792523e-12
-6.4738578e-06
-8.9722254e-06
2.9985605e-12
-2.9140402e-06
-6.0748738e-06
1.6892092e-12
-7.512374e-07
-3.2698772e-06
1.5138405e-12
1.9434593e-07
-8.6850202e-07
3.6447875e-12
2.6550591e-07
7.2978309e-07
6.4680077e-12
9.7379547e-07
1.0186546e-12
-7.4586371e-07
6.0432553e-07
-1.3136562e-11
-3.1796667e-06
4.094097e-06
-1.733513e-12
-7.3461417e-06
8.4128722e-06
-7.1862258e-12
-1.3163094e-05
1.2756394e-05
-6.5166412e-12
-2.0455853e-05
1.6702132e-05
-3.8445326e-12
-2.8992665e-05
2.0031837e-05
-2.4698754e-12
-3.85139e-05
2.2658526e-05
-1.5918787e-12
-4.8752692e-05
2.4573136e-05
-8.2674213e-13
-5.9446991e-05
2.5804707e-05
-1.6697836e-13
-7.0344837e-05
2.6394905e-05
4.1058291e-13
-8.1205125e-05
2.6383367e-05
8.9778896e-13
-9.1795973e-05
2.5800717e-05
1.2727613e-12
-0.0001018924
2.4667073e-05
1.5505473e-12
-0.00011127461
2.2994321e-05
1.7773699e-12
-0.00011972776
2.0790737e-05
1.9938857e-12
-0.00012704359
1.8066844e-05
2.2023806e-12
-0.00013302414
1.4841599e-05
2.3523045e-12
-0.00013748739
1.1148218e-05
2.3554557e-12
-0.00014027449
7.0390711e-06
2.1693871e-12
-0.00014125803
2.589253e-06
1.8688613e-12
-0.00014035075
-2.1016918e-06
1.6155806e-12
-0.00013751436
-6.90988e-06
1.459404e-12
-0.000132767
-1.1689064e-05
1.3015479e-12
-0.00012618928
-1.6275578e-05
9.1240926e-13
-0.00011792786
-2.04948e-05
1.919258e-13
-0.00010819589
-2.4169848e-05
-6.0393068e-13
-9.7269856e-05
-2.7131844e-05
-9.9600654e-13
-8.54824e-05
-2.9231173e-05
-7.7104547e-13
-7.321094e-05
-3.0349001e-05
-3.3798154e-13
-6.0862258e-05
-3.0408179e-05
-3.970979e-13
-4.8853444e-05
-2.9382708e-05
-1.0642309e-12
-3.75899e-05
-2.7305068e-05
-1.4564936e-12
-2.7441317e-05
-2.4271106e-05
-5.4481857e-13
-1.8716694e-05
-2.0442734e-05
1.4311898e-12
-1.1639457e-05
-1.6049453e-05
2.8773404e-12
-6.3235708e-06
-1.1390756e-05
2.7215157e-12
-2.7515415e-06
-6.8419153e-06
2.0710777e-12
-7.5715894e-07
-2.8628977e-06
2.8111171e-12
-9.5222134e-09
-1.7853689e-08
4.518489e-12
9.64271e-07
4.0691161e-12
-1.2279771e-06
1.8323166e-06
-1.4590559e-11
-4.7881313e-06
7.6542464e-06
4.3280676e-12
-1.0521571e-05
1.4146317e-05
-6.2509506e-12
-1.8214362e-05
2.0449194e-05
-7.3720066e-12
-2.7603963e-05
2.6091739e-05
-4.9774669e-12
-3.8396317e-05
3.0824196e-05
-4.2049504e-12
-5.0283067e-05
3.4545281e-05
-3.8287523e-12
-6.2954787e-05
3.7244861e-05
-3.3806886e-12
-7.6109034e-05
3.8958957e-05
-2.9585555e-12
-8.9453763e-05
3.9739637e-05
-2.5344869e-12
-0.00010270745
3.9637062e-05
-2.0735831e-12
-0.00011559751
3.8690772e-05
-1.6065615e-12
-0.00012785832
3.6927882e-05
-1.1753888e-12
-0.00013923017
3.4366171e-05
-7.8938431e-13
-0.00014945971
3.1020282e-05
-4.1803105e-13
-0.00015830244
2.6909567e-05
-6.8233856e-15
-0.0001655272
2.206636e-05
4.7858224e-13
-0.00017092271
1.6543724e-05
9.916728e-13
-0.00017430555
1.0421915e-05
1.4121962e-12
-0.00017552931
3.8130126e-06
1.6493775e-12
-0.00017449408
-3.1369208e-06
1.7573633e-12
-0.00017115584
-1.0248124e-05
1.9115375e-12
-0.00016553476
-1.7310145e-05
2.2588097e-12
-0.00015772187
-2.4088475e-05
2.6975226e-12
-0.00014788316
-3.0333504e-05
2.8917994e-12
-0.00013626057
-3.5792447e-05
2.6028911e-12
-0.00012316893
-4.0223481e-05
2.0520814e-12
-0.0001089887
-4.3411416e-05
1.8463226e-12
-9.4153788e-05
-4.5183914e-05
2.3532038e-12
-7.9134844e-05
-4.5427121e-05
3.1298424e-12
-6.4418054e-05
-4.4099495e-05
3.2364945e-12
-5.0480358e-05
-4.1242767e-05
2.3676845e-12
-3.7762135e-05
-3.6989339e-05
1.5063204e-12
-2.6638824e-05
-3.1566055e-05
1.9197473e-12
-1.7393174e-05
-2.5295104e-05
3.3923576e-12
-1.0189916e-05
-1.8594008e-05
4.3530438e-12
-5.0547367e-06
-1.1977094e-05
4.194335e-12
-1.8598404e-06
-6.0578028e-06
2.859526e-12
-3.2223763e-07
-1.55546e-06
-1.4735645e-14
6.4203004e-07
5.8794892e-12
-1.6931741e-06
3.5255071e-06
-1.7074504e-11
-6.3714235e-06
1.2332486e-05
9.7687134e-12
-1.3671471e-05
2.144637e-05
-5.2381358e-12
-2.3234078e-05
3.0011808e-05
-7.4289856e-12
-3.4695258e-05
3.7552924e-05
-4.7375344e-12
-4.7689832e-05
4.3818773e-05
-4.1627916e-12
-6.1857526e-05
4.8712981e-05
-3.9895109e-12
-7.6848062e-05
5.2235401e-05
-3.5985559e-12
-9.2323857e-05
5.4434757e-05
-3.2215159e-12
-0.00010796025
5.5376035e-05
-2.8792881e-12
-0.00012344394
5.5120753e-05
-2.4957411e-12
-0.00013847066
5.3717494e-05
-2.0487105e-12
-0.00015274319
5.120041e-05
-1.5677534e-12
-0.0001659705
4.759348e-05
-1.102073e-12
-0.00017786869
4.2918479e-05
-6.8831898e-13
-0.000188164
3.7204875e-05
-3.1506341e-13
-0.00019659784
3.0500196e-05
8.9897224e-14
-0.00020293379
2.2879667e-05
5.9769011e-13
-0.00020696609
1.4454217e-05
1.1801781e-12
-0.00020852924
5.3761651e-06
1.6871638e-12
-0.00020750807
-4.1580994e-06
1.9636946e-12
-0.00020384763
-1.3908566e-05
2.0283235e-12
-0.00019756242
-2.3595357e-05
2.1097832e-12
-0.00018874392
-3.2906975e-05
2.4535346e-12
-0.00017756585
-4.1511579e-05
3.0061735e-12
-0.00016428622
-4.9072075e-05
3.351494e-12
-0.00014924548
-5.5264228e-05
3.0994743e-12
-0.00013285987
-5.9797027e-05
2.4183508e-12
-0.00011560965
-6.2434143e-05
2.0556394e-12
-9.8021745e-05
-6.3015032e-05
2.58058e-12
-8.0647216e-05
-6.1474023e-05
3.5662737e-12
-6.4034168e-05
-5.785581e-05
3.8681669e-12
-4.8697438e-05
-5.2326071e-05
3.0203617e-12
-3.5086898e-05
-4.5176605e-05
2.0355032e-12
-2.3556676e-05
-3.6825337e-05
2.2191428e-12
-1.4337869e-05
-2.7812818e-05
3.576937e-12
-7.5174834e-06
-1.8797477e-05
5.1046892e-12
-3.0267255e-06
-1.0548564e-05
3.683878e-12
-6.4249821e-07
-3.9396885e-06
-2.3563528e-12
-4.7618474e-10
8.1076092e-12
-2.1329402e-06
5.6584666e-06
-1.9839918e-11
-7.8910841e-06
1.8090614e-05
1.4557481e-11
-1.6717416e-05
3.0272706e-05
-4.4806051e-12
-2.8105752e-05
4.1400152e-05
-7.4350161e-12
-4.1585098e-05
5.1032274e-05
-4.2443936e-12
-5.671414e-05
5.8947819e-05
-3.7533415e-12
-7.3078278e-05
6.5077122e-05
-3.746545e-12
-9.028708e-05
6.9444208e-05
-3.3841596e-12
-0.00010797131
7.2118987e-05
-2.983307e-12
-0.00012577924
7.3183975e-05
-2.6480536e-12
-0.00014337271
7.271422e-05
-2.3261753e-12
-0.00016042338
7.0768163e-05
-1.9645545e-12
-0.00017661014
6.7387174e-05
-1.5371905e-12
-0.00019161809
6.2601425e-05
-1.055152e-12
-0.00020513946
5.6439848e-05
-5.7338364e-13
-0.00021687678
4.8942196e-05
-1.6330243e-13
-0.00022654809
4.0171498e-05
1.6176899e-13
-0.000233894
3.0225584e-05
4.8833043e-13
-0.00023868644
1.9246649e-05
9.3364661e-13
-0.00024073836
7.4280826e-06
1.5031752e-12
-0.0002399143
-4.9821545e-06
2.0230458e-12
-0.00023614096
-1.7681912e-05
2.2720918e-12
-0.00022941741
-3.031891e-05
2.2034725e-12
-0.0002198241
-4.250029e-05
2.0893427e-12
-0.00020752987
-5.3805815e-05
2.2993502e-12
-0.00019279605
-6.3805894e-05
2.8679826e-12
-0.00017597666
-7.2083621e-05
3.3186211e-12
-0.0001575136
-7.8260087e-05
3.093267e-12
-0.00013792609
-8.2021656e-05
2.2718977e-12
-0.0001177937
-8.3147434e-05
1.7179763e-12
-9.7732938e-05
-8.1534793e-05
2.1960363e-12
-7.8368116e-05
-7.7220633e-05
3.3152342e-12
-6.0297854e-05
-7.0396327e-05
3.8025798e-12
-4.4059514e-05
-6.1414946e-05
3.0775874e-12
-3.0094426e-05
-5.0790435e-05
2.1095683e-12
-1.8717264e-05
-3.9189988e-05
2.5678668e-12
-1.009305e-05
-2.7421693e-05
4.9729858e-12
-4.225309e-06
-1.6416305e-05
4.0256918e-12
-9.5848578e-07
-7.2065071e-06
-4.7114446e-12
-9.5897302e-07
1.0160632e-11
-2.5450557e-06
8.2035448e-06
-2.2599203e-11
-9.3288496e-06
2.4874389e-05
1.88362e-11
-1.9615367e-05
4.0559228e-05
-4.016136e-12
-3.2756852e-05
5.4541645e-05
-7.6866649e-12
-4.8175887e-05
6.6451313e-05
-3.9869945e-12
-6.5354086e-05
7.6126022e-05
-3.5463818e-12
-8.382213e-05
8.3545169e-05
-3.7336233e-12
-0.00010315061
8.8772688e-05
-3.4772567e-12
-0.0001229416
9.190998e-05
-3.1005141e-12
-0.00014282092
9.3063304e-05
-2.7480605e-12
-0.00016243131
9.2324602e-05
-2.4227642e-12
-0.00018142683
8.976369e-05
-2.1075793e-12
-0.0001994692
8.5429538e-05
-1.7658078e-12
-0.00021622599
7.9358215e-05
-1.3504319e-12
-0.00023137124
7.1585103e-05
-8.4692942e-13
-0.00024458826
6.2159211e-05
-3.1753204e-13
-0.00025557453
5.1157767e-05
1.2803155e-13
-0.00026404861
3.8699661e-05
4.4272107e-13
-0.00026975861
2.4956646e-05
7.2074487e-13
-0.00027249203
1.01615e-05
1.1297249e-12
-0.00027208661
-5.3875702e-06
1.7235953e-12
-0.00026844166
-2.132687e-05
2.3329e-12
-0.00026152968
-3.7230886e-05
2.6329574e-12
-0.00025140733
-5.262265e-05
2.5017349e-12
-0.00023822492
-6.698823e-05
2.2311121e-12
-0.00022223358
-7.9797236e-05
2.3195529e-12
-0.00020378859
-9.0528618e-05
2.9187468e-12
-0.00018334758
-9.8701094e-05
3.5178821e-12
-0.00016146237
-0.00010390687
3.3954948e-12
-0.00013876324
-0.00010584657
2.5259545e-12
-0.00011593532
-0.00010436272
1.8456284e-12
-9.3687533e-05
-9.9468431e-05
2.2523694e-12
-7.2715425e-05
-9.1368436e-05
3.3705482e-12
-5.3660736e-05
-8.0469632e-05
3.8249019e-12
-3.7071077e-05
-6.7380095e-05
3.0131335e-12
-2.3363946e-05
-5.2897127e-05
2.5913244e-12
-1.2799318e-05
-3.7986329e-05
4.8175093e-12
-5.4648786e-06
-2.3750746e-05
3.7065067e-12
-1.2772536e-06
-1.1394122e-05
-7.4647768e-12
-2.2362394e-06
1.2812592e-11
-2.9284821e-06
1.1132052e-05
-2.5282034e-11
-1.0673672e-05
3.2619556e-05
2.2703491e-11
-2.2336173e-05
5.2221733e-05
-3.7097131e-12
-3.7135972e-05
6.9341451e-05
-8.0743842e-12
-5.4394103e-05
8.3709448e-05
-3.8938397e-12
-7.3517615e-05
9.5249538e-05
-3.4353247e-12
-9.398428e-05
0.00010401184
-3.7508182e-12
-0.00011532793
0.00011011634
-3.6092507e-12
-0.00013712514
0.00011370719
-3.3175982e-12
-0.00015898349
0.00011492165
-2.9908549e-12
-0.00018053173
0.00011387284
-2.6400436e-12
-0.00020141209
0.00011064405
-2.2963738e-12
-0.00022127497
0.00010529242
-1.9766925e-12
-0.00023977612
9.785936e-05
-1.6493299e-12
-0.00025657631
8.8385294e-05
-1.2407293e-12
-0.00027134339
7.6926293e-05
-7.0646609e-13
-0.00028375652
6.357089e-05
-1.1194546e-13
-0.00029351236
4.8455504e-05
3.9405792e-13
-0.00030033314
3.1777431e-05
7.2028748e-13
-0.00030397628
1.3804635e-05
9.5269508e-13
-0.0003042455
-5.1183583e-06
1.3067573e-12
-0.0003010029
-2.4569469e-05
1.936092e-12
-0.00029418245
-4.405134e-05
2.642469e-12
-0.00028380318
-6.3001915e-05
3.0304706e-12
-0.00026998214
-8.0809274e-05
2.8757573e-12
-0.00025294543
-9.6833958e-05
2.4610449e-12
-0.00023303594
-0.00011043811
2.4033163e-12
-0.00021071596
-0.00012102108
2.9835258e-12
-0.00018656264
-0.00012806019
3.6857524e-12
-0.0001612548
-0.00013115441
3.6647333e-12
-0.00013554995
-0.00013006757
2.8166882e-12
-0.00011025146
-0.00012476693
2.1189489e-12
-8.6167374e-05
-0.00011545253
2.4962702e-12
-6.4063727e-05
-0.00010257328
3.4333267e-12
-4.4616663e-05
-8.6827158e-05
3.5032558e-12
-2.8368527e-05
-6.9145266e-05
3.2183063e-12
-1.5693155e-05
-5.0661711e-05
5.2891345e-12
-6.7752231e-06
-3.2668682e-05
3.348162e-12
-1.6070332e-06
-1.6562299e-05
-1.0638276e-11
-3.8432866e-06
1.5425571e-11
-3.2816995e-06
1.441378e-05
-2.7863447e-11
-1.1915868e-05
4.12537e-05
2.6171537e-11
-2.4855507e-05
6.5161376e-05
-3.4831073e-12
-4.119991e-05
8.5685863e-05
-8.4987618e-12
-6.0176297e-05
0.00010268584
-3.9102771e-12
-8.1122231e-05
0.00011619548
-3.4240566e-12
-0.00010346628
0.00012635589
-3.7911169e-12
-0.00012670885
0.00013335892
-3.700186e-12
-0.00015040461
0.00013740295
-3.4956806e-12
-0.00017414709
0.00013866414
-3.2530498e-12
-0.00019755589
0.00013728164
-2.9341294e-12
-0.00022026663
0.00013335479
-2.5590827e-12
-0.00024192382
0.00012694962
-2.1829974e-12
-0.00026217661
0.00011811215
-1.8498401e-12
-0.0002806771
0.00010688578
-1.5342407e-12
-0.00029708123
9.3330422e-05
-1.1350665e-12
-0.00031105188
7.7541542e-05
-5.7330623e-13
-0.00032226407
5.966769e-05
9.2691617e-14
-0.00033041212
3.992549e-05
6.7712815e-13
-0.00033521889
1.8611403e-05
1.0217899e-12
-0.00033644705
-3.8902047e-06
1.1807067e-12
-0.00033391165
-2.7104868e-05
1.5045542e-12
-0.00032749589
-5.0467105e-05
2.1298223e-12
-0.00031716681
-7.3330998e-05
2.917619e-12
-0.00030299223
-9.498385e-05
3.4066528e-12
-0.00028515676
-0.00011466943
3.2608527e-12
-0.00026397511
-0.00013161976
2.7316995e-12
-0.00023990056
-0.00014509564
2.5248905e-12
-0.00021352579
-0.00015443497
3.0310675e-12
-0.00018557375
-0.00015910645
3.7463814e-12
-0.00015687655
-0.00015876477
3.7711005e-12
-0.00012834161
-0.00015330188
3.0010844e-12
-0.00010090605
-0.0001428881
2.4221533e-12
-7.5482466e-05
-0.00012799687
2.7208883e-12
-5.2901142e-05
-0.00010940848
3.1186686e-12
-3.3855111e-05
-8.8191297e-05
3.5365512e-12
-1.8854784e-05
-6.5662043e-05
6.1788543e-12
-8.1982655e-06
-4.3325205e-05
3.3677007e-12
-1.9611646e-06
-2.2799385e-05
-1.4013187e-11
-5.8044674e-06
1.8037885e-11
-3.6023021e-06
1.8016112e-05
-3.0301148e-11
-1.3044869e-05
5.0696238e-05
2.9203554e-11
-2.7149282e-05
7.9265793e-05
-3.3424156e-12
-4.4907158e-05
0.00010344375
-8.9145665e-12
-6.5461488e-05
0.00012324017
-3.9842009e-12
-8.8087209e-05
0.0001388212
-3.5204756e-12
-0.00011216877
0.00015043746
-3.9313301e-12
-0.00013717738
0.00015836753
-3.8300983e-12
-0.00016264984
0.00016287541
-3.6513308e-12
-0.00018816988
0.00016418418
-3.4857761e-12
-0.00021335259
0.00016246435
-3.2567118e-12
-0.00023783197
0.00015783417
-2.9301806e-12
-0.00026125184
0.00015036949
-2.5219129e-12
-0.00028325976
0.00014012007
-2.1015137e-12
-0.00030350375
0.00012712977
-1.7441441e-12
-0.00032163158
0.00011145826
-1.4351809e-12
-0.00033729236
9.3202322e-05
-1.0486507e-12
-0.00035014029
7.2515626e-05
-4.6508473e-13
-0.0003598407
4.9625899e-05
2.7460047e-13
-0.00036607834
2.4849039e-05
9.3605793e-13
-0.00036856888
-1.3996667e-06
1.2715919e-12
-0.00036707125
-2.8602493e-05
1.4970083e-12
-0.00036140628
-5.6132082e-05
1.7405745e-12
-0.00035147449
-8.3262785e-05
2.3237026e-12
-0.00033727775
-0.0001091806
3.1601575e-12
-0.00031894084
-0.00013300634
3.7366939e-12
-0.00029673168
-0.00015382892
3.6227728e-12
-0.0002710772
-0.00017075012
3.0283706e-12
-0.00024257157
-0.00018294061
2.70518e-12
-0.00021197323
-0.0001897048
3.1029975e-12
-0.00018018756
-0.00019055044
3.7353899e-12
-0.00014823329
-0.00018525615
3.7517439e-12
-0.00011719274
-0.00017392865
3.135173e-12
-8.8148938e-05
-0.00015704068
2.6563906e-12
-6.2115377e-05
-0.00013544205
2.5234043e-12
-3.9966487e-05
-0.00011034019
3.2739517e-12
-2.2377609e-05
-8.3250925e-05
6.9325201e-12
-9.7826908e-06
-5.5920124e-05
3.6085882e-12
-2.3546977e-06
-3.0227359e-05
-1.7518379e-11
-8.1591849e-06
2.0974084e-11
-3.8870489e-06
2.1903194e-05
-3.2518948e-11
-1.4048655e-05
6.0857814e-05
3.1785678e-11
-2.9192044e-05
9.4409187e-05
-3.3218485e-12
-4.821525e-05
0.00012246696
-9.3317194e-12
-7.0187822e-05
0.00014521275
-4.070097e-12
-9.4330034e-05
0.00016296342
-3.6627167e-12
-0.00011998818
0.00017609561
-4.164467e-12
-0.00014660904
0.00018498839
-4.0602628e-12
-0.00017371583
0.0001899822
-3.857185e-12
-0.0002008868
0.00019135515
-3.7014226e-12
-0.00022773702
0.00018931457
-3.5365479e-12
-0.00025390374
0.00018400089
-3.3121165e-12
-0.00027903512
0.00017550088
-2.9781508e-12
-0.00030278224
0.00016386719
-2.5307217e-12
-0.00032479388
0.00014914142
-2.0550062e-12
-0.00034471395
0.00013137833
-1.6593704e-12
-0.00036218117
0.00011066954
-1.346623e-12
-0.00037683104
8.7165503e-05
-9.7427933e-13
-0.00038830032
6.1095181e-05
-3.8043142e-13
-0.00039623418
3.2782897e-05
4.3679884e-13
-0.00040029629
2.662445e-06
1.2616822e-12
-0.00040018378
-2.8714997e-05
1.705266e-12
-0.00039564396
-6.0671908e-05
1.8605505e-12
-0.00038649727
-9.2409482e-05
2.0241593e-12
-0.00037266254
-0.00012301533
2.5471534e-12
-0.00035418489
-0.000151484
3.3836211e-12
-0.00033126373
-0.00017675009
4.0044985e-12
-0.00030427777
-0.00019773608
3.9201541e-12
-0.00027380293
-0.00021341545
3.3057026e-12
-0.00024061825
-0.00022288949
2.9104922e-12
-0.00020569515
-0.00022547354
3.1775517e-12
-0.00017016635
-0.00022078495
3.664917e-12
-0.00013527315
-0.00020882185
3.6837081e-12
-0.00010229331
-0.00019002053
3.154546e-12
-7.2455923e-05
-0.00016527944
2.3840925e-12
-4.6853288e-05
-0.00013594283
2.894371e-12
-2.6361361e-05
-0.00010374286
7.4292324e-12
-1.1580441e-05
-7.0701045e-05
3.7478756e-12
-2.8033148e-06
-3.9004462e-05
-2.1383978e-11
-1.0962523e-05
2.4438921e-11
-4.132115e-06
2.6035344e-05
-3.4445961e-11
-1.4914092e-05
7.1639758e-05
3.3945869e-11
-3.0957121e-05
0.00011045222
-3.4172076e-12
-5.1080639e-05
0.00014259049
-9.7869961e-12
-7.4292251e-05
0.00016842437
-4.183728e-12
-9.9766097e-05
0.00018843726
-3.8017677e-12
-0.00012681665
0.00020314617
-4.4187686e-12
-0.00015487126
0.00021304301
-4.3664725e-12
-0.00018344389
0.00021855483
-4.1606503e-12
-0.00021211144
0.00022002271
-3.975994e-12
-0.00024049338
0.00021769651
-3.7972719e-12
-0.00026823486
0.00021174238
-3.6225525e-12
-0.00029499345
0.00020225946
-3.4070391e-12
-0.00032042897
0.00018930272
-3.0669158e-12
-0.00034419632
0.00017290877
-2.5780615e-12
-0.00036594066
0.00015312267
-2.0373867e-12
-0.00038529496
0.00013002385
-1.586466e-12
-0.00040187992
0.00010375047
-1.2557119e-12
-0.00041530635
7.4521608e-05
-8.9565968e-13
-0.00042518068
4.2657229e-05
-2.8454188e-13
-0.00043111387
8.5956426e-06
6.3469986e-13
-0.00043273613
-2.7092739e-05
1.473491e-12
-0.00042971407
-6.3693964e-05
2.0447508e-12
-0.00042177609
-0.00010034746
2.2429424e-12
-0.00040874163
-0.00013604979
2.3644641e-12
-0.0003905553
-0.00016967033
2.8156018e-12
-0.00036732343
-0.00019998196
3.6006305e-12
-0.00033934973
-0.00022570978
4.2028612e-12
-0.00030716531
-0.00024559988
4.1222975e-12
-0.00027154677
-0.00025850802
3.5155488e-12
-0.00023351596
-0.00026350437
3.0798716e-12
-0.00019431494
-0.00025998597
3.2156245e-12
-0.00015535288
-0.00024778391
3.5766714e-12
-0.00011812525
-0.00022724816
3.4872011e-12
-8.4111816e-05
-0.00019929287
2.5880734e-12
-5.4665473e-05
-0.00016538917
2.8124938e-12
-3.0907338e-05
-0.000127501
7.9861742e-12
-1.3644696e-05
-8.7963688e-05
3.7283089e-12
-3.3229911e-06
-4.9326138e-05
-2.5914959e-11
-1.4285542e-05
2.8482322e-11
-4.3334526e-06
3.0368834e-05
-3.6056299e-11
-1.5627789e-05
8.293406e-05
3.5706652e-11
-3.2417901e-05
0.00012724234
-3.5683968e-12
-5.3460292e-05
0.0001636329
-1.0277014e-11
-7.7712439e-05
0.00019267652
-4.3733387e-12
-0.00010431098
0.00021503581
-3.95894e-12
-0.00013254488
0.00023138008
-4.6494112e-12
-0.00016182689
0.00024232502
-4.672886e-12
-0.00019166583
0.00024839378
-4.5224364e-12
-0.00022164119
0.00024999808
-4.3490806e-12
-0.00025138091
0.00024743624
-4.1327541e-12
-0.00028054258
0.00024090406
-3.9159314e-12
-0.00030879815
0.00023051504
-3.7325298e-12
-0.00033582171
0.00021632628
-3.5259129e-12
-0.0003612801
0.00019836717
-3.181312e-12
-0.00038482587
0.00017666844
-2.6519151e-12
-0.00040609247
0.00015129045
-2.0391728e-12
-0.0004246917
0.0001223497
-1.5166373e-12
-0.00044021376
9.0043675e-05
-1.1475195e-12
-0.00045223056
5.467403e-05
-7.7848057e-13
-0.00046030294
1.6668028e-05
-1.6215058e-13
-0.00046399348
-2.3402197e-05
7.258298e-13
-0.0004628844
-6.4803049e-05
1.7025869e-12
-0.00045660332
-0.00010662854
2.3898592e-12
-0.000444856
-0.00014779711
2.6448332e-12
-0.00042746604
-0.00018706029
2.7511594e-12
-0.00040442014
-0.00022302787
3.1289085e-12
-0.00037591554
-0.00025421438
3.8132475e-12
-0.00034240452
-0.0002791109
4.326399e-12
-0.00030462856
-0.00029628398
4.2092997e-12
-0.00026363333
-0.00030449961
3.6149323e-12
-0.00022075509
-0.00030286422
3.1707751e-12
-0.0001775716
-0.0002909674
3.2345735e-12
-0.00013581499
-0.00026900478
3.3403902e-12
-9.7251917e-05
-0.00023785594
2.620402e-12
-6.354483e-05
-0.00019909626
2.9178326e-12
-3.6114686e-05
-0.00015493115
8.8621586e-12
-1.6028557e-05
-0.00010804982
3.7386487e-12
-3.9298351e-06
-6.1424826e-05
-3.1253024e-11
-1.8215409e-05
3.3150609e-11
-4.4872226e-06
3.4856095e-05
-3.7355665e-11
-1.617732e-05
9.4624122e-05
3.7036031e-11
-3.3549891e-05
0.00014461491
-3.7143227e-12
-5.5314542e-05
0.00018539756
-1.0738885e-11
-8.0390349e-05
0.00021775233
-4.6449646e-12
-0.00010788478
0.00024253024
-4.1866007e-12
-0.00013706722
0.00026056253
-4.8853362e-12
-0.00016734024
0.00027259804
-4.943157e-12
-0.00019821115
0.0002792647
-4.8599601e-12
-0.00022926556
0.00028105249
-4.7580809e-12
-0.00026014362
0.0002783143
-4.5682575e-12
-0.0002905196
0.00027128005
-4.3040151e-12
-0.00032008476
0.0002600802
-4.0470097e-12
-0.0003485331
0.00024477463
-3.8483226e-12
-0.00037554986
0.00022538393
-3.6446295e-12
-0.00040080211
0.0002019207
-3.295305e-12
-0.00042393152
0.00017441987
-2.7279368e-12
-0.00044454922
0.0001429674
-2.0405753e-12
-0.00046223313
0.00010772759
-1.4308406e-12
-0.00047652854
6.8969442e-05
-9.9529644e-13
-0.00048695279
2.7092284e-05
-6.026823e-13
-0.00049300556
-1.7349433e-05
-6.7859933e-15
-0.00049418556
-6.3623049e-05
9.1969166e-13
-0.00049001575
-0.00011079835
1.9659072e-12
-0.00048007767
-0.00015773519
2.7391294e-12
-0.00046405559
-0.00020308237
3.0592723e-12
-0.00044178967
-0.00024529378
3.171054e-12
-0.00041333568
-0.00028266839
3.4715457e-12
-0.0003790259
-0.00031342069
4.0053256e-12
-0.00033952328
-0.00033578659
4.3568061e-12
-0.00029585747
-0.00034816542
4.1537732e-12
-0.00024942975
-0.00034929194
3.584226e-12
-0.00020197493
-0.00033842223
3.2091849e-12
-0.00015547281
-0.0003155069
3.0480905e-12
-0.00011201157
-0.00028131718
2.297327e-12
-7.3617485e-05
-0.00023749035
2.8728854e-12
-4.2076998e-05
-0.00018647165
9.9812887e-12
-1.8784001e-05
-0.00013134282
3.8964174e-12
-4.6400102e-06
-7.5568778e-05
-3.7427063e-11
-2.2855457e-05
3.8578776e-11
-4.5902825e-06
3.9446416e-05
-3.8332614e-11
-1.6552686e-05
0.00010658649
3.7864381e-11
-3.4333342e-05
0.00016239558
-3.8533477e-12
-5.6610876e-05
0.0002076751
-1.1107607e-11
-8.2277169e-05
0.00024341863
-4.9423742e-12
-0.00011041817
0.00027067124
-4.4913303e-12
-0.00014028889
0.00029043326
-5.1812251e-12
-0.00017128548
0.00030359464
-5.2194439e-12
-0.00020291685
0.00031089607
-5.1502212e-12
-0.00023477764
0.00031291329
-5.1113986e-12
-0.00026652353
0.00031006019
-5.0095361e-12
-0.0002978494
0.00030260592
-4.788019e-12
-0.00032847055
0.00029070135
-4.4743347e-12
-0.00035810666
0.00027441075
-4.1684428e-12
-0.00038646818
0.00025374546
-3.9399027e-12
-0.00041324478
0.0002286973
-3.7261791e-12
-0.0004380956
0.00019927069
-3.3673881e-12
-0.00046064145
0.00016551325
-2.7650818e-12
-0.00048045925
0.00012754539
-2.004945e-12
-0.00049707938
8.5589586e-05
-1.2984569e-12
-0.00050998712
4.0000021e-05
-7.7892642e-13
-0.00051862931
-8.7072418e-06
-3.4425896e-13
-0.00052242826
-5.9824092e-05
2.6656129e-13
-0.00052080455
-0.00011242206
1.2055062e-12
-0.00051321083
-0.00016532891
2.2841394e-12
-0.00049917815
-0.00021711504
3.1125919e-12
-0.00047837543
-0.00026609651
3.4882068e-12
-0.00045068053
-0.00031036329
3.6075808e-12
-0.00041625885
-0.00034784238
3.8114284e-12
-0.00037564081
-0.00037640464
4.1349395e-12
-0.00032978528
-0.00039402096
4.2514881e-12
-0.00028011186
-0.00039896535
3.9479624e-12
-0.00022848369
-0.0003900504
3.4783735e-12
-0.00017712614
-0.00036686446
2.9683057e-12
-0.00012847764
-0.00032996568
1.8567551e-12
-8.4985573e-05
-0.00028098241
2.587639e-12
-4.8878634e-05
-0.0002225786
1.1165052e-11
-2.1960822e-05
-0.00015826063
4.130327e-12
-5.4696774e-06
-9.2059876e-05
-4.4523324e-11
-2.8325179e-05
4.4939615e-11
-4.6407186e-06
4.4087175e-05
-3.8939886e-11
-1.6747985e-05
0.00011869372
3.8153135e-11
-3.4756306e-05
0.0001804039
-4.0338131e-12
-5.7328454e-05
0.00023024726
-1.1380007e-11
-8.3339252e-05
0.00026942943
-5.2073365e-12
-0.0001118597
0.0002991917
-4.8187255e-12
-0.00014213473
0.00032070829
-5.5393508e-12
-0.000173557
0.00033501692
-5.5593376e-12
-0.00020563941
0.00034297849
-5.4552331e-12
-0.00023798807
0.00034526196
-5.4059001e-12
-0.00027027697
0.00034234911
-5.3574993e-12
-0.00030222515
0.00033455411
-5.2373514e-12
-0.00033357648
0.00032205268
-4.981182e-12
-0.00036408201
0.00030491629
-4.6110321e-12
-0.00039348453
0.00028314799
-4.2420251e-12
-0.00042150495
0.00025671773
-3.9629475e-12
-0.00044783026
0.00022559601
-3.7191002e-12
-0.00047210316
0.00018978616
-3.3401041e-12
-0.00049391347
0.0001493557
-2.7039969e-12
-0.00051279202
0.00010446813
-1.8766468e-12
-0.00052820802
5.5416024e-05
-1.0737769e-12
-0.00053957133
2.6560785e-06
-4.534075e-13
-0.00054624177
-5.3153655e-05
4.0452325e-14
-0.00054754735
-0.00011111648
6.8183396e-13
-0.00054281494
-0.00017006132
1.623281e-12
-0.00053141574
-0.00022851424
2.6969583e-12
-0.00051282798
-0.00028468427
3.5358513e-12
-0.00048671731
-0.00033647396
3.9340336e-12
-0.0004530324
-0.00038152729
4.0319884e-12
-0.00041210818
-0.00041732886
4.0870117e-12
-0.0003647627
-0.00044136644
4.125427e-12
-0.00031236677
-0.00045136128
3.9865065e-12
-0.00025686077
-0.00044555641
3.6655783e-12
-0.00020069378
-0.00042303146
3.0317656e-12
-0.00014667112
-0.00038398835
1.4926783e-12
-9.7717395e-05
-0.00032993614
2.2131277e-12
-5.6590326e-05
-0.00026370568
1.2404026e-11
-2.5605324e-05
-0.00018924564