/*--------------------------------*- C++ -*----------------------------------*\
  =========                 |
  \\      /  F ield         | OpenFOAM: The Open Source CFD Toolbox
   \\    /   O peration     | Website:  https://openfoam.org
    \\  /    A nd           | Version:  7
     \\/     M anipulation  |
\*---------------------------------------------------------------------------*/
FoamFile
{
    version     2.0;
    format      ascii;
    class       volVectorField;
    location    "33";
    object      U;
}
// * * * * * * * * * * * * * * * * * * * * * * * * * * * * * * * * * * * * * //

dimensions      [0 1 -1 0 0 0 0];

internalField   nonuniform List<vector> 
16000
(
(6.6022314e-05 -6.7354802e-05 -4.2052802e-07)
(0.00016272192 -5.6367185e-05 5.6795942e-06)
(0.00014190933 4.5847136e-07 1.9179351e-05)
(-5.0623504e-05 6.1888851e-05 3.6601896e-05)
(-0.00040997423 0.00011563018 5.4710542e-05)
(-0.00090902723 0.00015774355 7.153899e-05)
(-0.0015177125 0.00018850486 8.5751119e-05)
(-0.0022068866 0.00020960917 9.6531812e-05)
(-0.0029506012 0.00022287667 0.0001034208)
(-0.0037264643 0.00022981097 0.00010617113)
(-0.00451505 0.00023147724 0.00010465549)
(-0.0052990126 0.00022850438 9.8810805e-05)
(-0.006062192 0.00022114782 8.8612481e-05)
(-0.0067888622 0.00020938316 7.4071144e-05)
(-0.0074632139 0.0001930135 5.5245556e-05)
(-0.0080691155 0.00017178039 3.2265884e-05)
(-0.008590169 0.00014547184 5.3619614e-06)
(-0.0090100497 0.00011402253 -2.5108339e-05)
(-0.0093131019 7.7602066e-05 -5.8635057e-05)
(-0.0094851469 3.6687516e-05 -9.4540372e-05)
(-0.0095144458 -7.8870242e-06 -0.00013197454)
(-0.0093927277 -5.4924782e-05 -0.00016992647)
(-0.0091162237 -0.00010284327 -0.00020724996)
(-0.0086866035 -0.0001497479 -0.00024270735)
(-0.0081116924 -0.00019351033 -0.00027502877)
(-0.007405893 -0.00023188595 -0.00030298499)
(-0.0065902154 -0.00026266258 -0.00032546936)
(-0.0056918505 -0.00028382907 -0.00034158213)
(-0.0047432623 -0.00029374759 -0.00035070964)
(-0.003780824 -0.00029130806 -0.0003525907)
(-0.0028430669 -0.00027604314 -0.00034736451)
(-0.0019686475 -0.0002481897 -0.00033559667)
(-0.0011941351 -0.00020870285 -0.00031828235)
(-0.00055166431 -0.00015926494 -0.00029682773)
(-6.6516859e-05 -0.000102403 -0.00027300401)
(0.00024490817 -4.1746495e-05 -0.0002488686)
(0.00037894329 1.7851554e-05 -0.00022680077)
(0.00034980478 6.7061771e-05 -0.00020923375)
(0.00020620741 8.9838432e-05 -0.00019884057)
(5.7471939e-05 5.7400658e-05 -0.00018439222)
(5.799124e-05 -0.00016706089 -6.6515203e-06)
(4.0862758e-05 -3.9976839e-05 -3.980971e-07)
(-0.00029498895 0.0002485572 1.1235366e-05)
(-0.001011035 0.00056212014 2.5601371e-05)
(-0.0020992371 0.00084749509 4.0586414e-05)
(-0.0035140956 0.0010831205 5.4594675e-05)
(-0.005194693 0.0012643022 6.6498769e-05)
(-0.0070766356 0.0013940691 7.5546354e-05)
(-0.0090981547 0.0014779617 8.1255697e-05)
(-0.011202309 0.0015215277 8.3327229e-05)
(-0.013337036 0.0015292117 8.1577607e-05)
(-0.015454179 0.0015039768 7.589676e-05)
(-0.017508151 0.001447359 6.6226287e-05)
(-0.019454716 0.0013597795 5.2555481e-05)
(-0.021250155 0.0012410029 3.4930559e-05)
(-0.022850973 0.0010906589 1.347275e-05)
(-0.024214223 0.00090877545 -1.1598985e-05)
(-0.025298431 0.00069627693 -3.9944802e-05)
(-0.026065054 0.00045541649 -7.1084159e-05)
(-0.026480395 0.00019010887 -0.00010438287)
(-0.02651781 -9.386451e-05 -0.00013904997)
(-0.026159981 -0.00038877633 -0.00017415375)
(-0.025401162 -0.0006850913 -0.00020863833)
(-0.024249165 -0.00097175737 -0.00024137157)
(-0.022726749 -0.0012366895 -0.00027119814)
(-0.020872349 -0.001467424 -0.00029700644)
(-0.018739909 -0.0016519054 -0.00031780376)
(-0.01639771 -0.0017793547 -0.00033279395)
(-0.013926119 -0.0018411492 -0.0003414502)
(-0.011414316 -0.001831632 -0.000343575)
(-0.0089561048 -0.0017487671 -0.00033934021)
(-0.0066450109 -0.0015945806 -0.00032930387)
(-0.0045688924 -0.0013753944 -0.0003144038)
(-0.0028042113 -0.0011019783 -0.0002959298)
(-0.0014100145 -0.00078992618 -0.00027547474)
(-0.00042164667 -0.0004605751 -0.00025485637)
(0.0001557495 -0.0001425377 -0.00023599041)
(0.00035672352 0.00012232057 -0.00022089029)
(0.00027528534 0.0002711133 -0.00021165194)
(9.0137059e-05 0.00020507407 -0.00019545744)
(1.9135942e-06 -0.00014897228 -2.0437764e-05)
(-0.00025605881 0.00029700953 -1.1819614e-05)
(-0.0010504631 0.0010236167 7.8728056e-08)
(-0.0023878379 0.0017975342 1.3058807e-05)
(-0.0042394532 0.0025099003 2.6095047e-05)
(-0.0065455702 0.0031100551 3.8046629e-05)
(-0.0092251304 0.0035809247 4.808652e-05)
(-0.012190004 0.0039234336 5.5653965e-05)
(-0.015352992 0.0041461865 6.036729e-05)
(-0.018631057 0.0042595921 6.1969901e-05)
(-0.021946078 0.0042728158 6.028896e-05)
(-0.025224254 0.0041924762 5.5206646e-05)
(-0.028394919 0.0040224711 4.6646545e-05)
(-0.031389387 0.0037645259 3.4573475e-05)
(-0.034140216 0.0034191723 1.9003599e-05)
(-0.036581138 0.0029869409 2.1544158e-08)
(-0.038647745 0.002469606 -2.2198764e-05)
(-0.040278938 0.0018713589 -4.7372895e-05)
(-0.041419049 0.0011998093 -7.5087472e-05)
(-0.042020499 0.00046673286 -0.00010478779)
(-0.042046765 -0.00031149631 -0.00013577601)
(-0.041475468 -0.0011138096 -0.00016721671)
(-0.040301311 -0.001914877 -0.00019816243)
(-0.038538549 -0.0026858638 -0.00022758998)
(-0.036222748 -0.0033956767 -0.00025445163)
(-0.033411583 -0.0040126012 -0.0002777374)
(-0.030184432 -0.0045062409 -0.00029654463)
(-0.026640645 -0.0048496342 -0.00031014965)
(-0.022896374 -0.0050213934 -0.00031807568)
(-0.01908001 -0.005007694 -0.00032014911)
(-0.015326328 -0.0048039506 -0.00031653625)
(-0.011769583 -0.0044160541 -0.00030775454)
(-0.0085358498 -0.003861148 -0.00029465715)
(-0.0057348803 -0.0031681058 -0.00027839494)
(-0.0034516868 -0.0023781325 -0.00026036037)
(-0.001737967 -0.0015461998 -0.00024211121)
(-0.00060369515 -0.0007441759 -0.00022526186)
(-8.0592105e-06 -6.6335792e-05 -0.00021140591)
(0.00015540497 0.00036040727 -0.00020222671)
(7.3559164e-05 0.00035436329 -0.00018530747)
(-6.4686619e-05 5.0419962e-05 -3.8689715e-05)
(-0.00060838741 0.0010457523 -2.6151595e-05)
(-0.0019305481 0.0023817287 -1.217021e-05)
(-0.0039464494 0.0037565124 1.1226493e-06)
(-0.0065890271 0.005015309 1.3710886e-05)
(-0.0097792119 0.0060800591 2.4835187e-05)
(-0.013417138 0.0069205181 3.395839e-05)
(-0.017395541 0.0075341106 4.0745141e-05)
(-0.02160775 0.0079313948 4.4959383e-05)
(-0.02595071 0.0081270395 4.6429259e-05)
(-0.030325864 0.0081347675 4.5024085e-05)
(-0.034638812 0.0079650005 4.0637628e-05)
(-0.038798378 0.0076243736 3.3182807e-05)
(-0.042715698 0.0071165074 2.2597254e-05)
(-0.046303766 0.006443554 8.8572209e-06)
(-0.049477684 0.0056081452 -8.0027888e-06)
(-0.05215574 0.0046154496 -2.7867344e-05)
(-0.054261301 0.0034751111 -5.0517235e-05)
(-0.055725428 0.0022028883 -7.560937e-05)
(-0.05649003 0.00082185235 -0.00010266265)
(-0.056511332 -0.00063696583 -0.00013105279)
(-0.055763436 -0.0021345908 -0.0001600149)
(-0.05424166 -0.0036248106 -0.00018866665)
(-0.051965306 -0.0050556203 -0.00021604046)
(-0.04897965 -0.0063713953 -0.00024113313)
(-0.045356798 -0.0075157177 -0.0002629677)
(-0.041195188 -0.0084347197 -0.00028066295)
(-0.036617537 -0.0090807379 -0.00029350466)
(-0.031767143 -0.0094160204 -0.00030101249)
(-0.026802508 -0.0094162063 -0.00030299582)
(-0.021890403 -0.0090733145 -0.00029959084)
(-0.017197565 -0.0083980406 -0.00029127169)
(-0.012881397 -0.0074212797 -0.00027883091)
(-0.0090800701 -0.0061950047 -0.00026333164)
(-0.0059024816 -0.0047929331 -0.00024603921)
(-0.003418479 -0.0033118386 -0.00022834088)
(-0.0016495192 -0.001874549 -0.00021166558)
(-0.00055981075 -0.00063470106 -0.00019741116)
(-5.0128698e-05 0.00021501721 -0.00018681287)
(3.8091941e-05 0.00041383374 -0.00016800559)
(-0.00013086678 0.0004455598 -5.8205979e-05)
(-0.00097095438 0.0022426805 -4.1141672e-05)
(-0.0028462191 0.0043591736 -2.4259197e-05)
(-0.0055648213 0.0064572027 -9.8267669e-06)
(-0.0090094498 0.0083534662 3.0918251e-06)
(-0.013075467 0.0099514441 1.407181e-05)
(-0.017642282 0.011211741 2.2850342e-05)
(-0.02258468 0.012129578 2.9322664e-05)
(-0.02777963 0.01271752 3.3411515e-05)
(-0.033108108 0.012994144 3.5043938e-05)
(-0.038455488 0.012977364 3.4142635e-05)
(-0.043711118 0.012681213 3.0619295e-05)
(-0.048767507 0.012115127 2.4377138e-05)
(-0.053519617 0.011284985 1.5322671e-05)
(-0.057864684 0.010195259 3.3844878e-06)
(-0.061702777 0.0088517415 -1.1463032e-05)
(-0.064938212 0.0072644414 -2.9173332e-05)
(-0.067481777 0.0054502933 -4.96011e-05)
(-0.069253684 0.0034354356 -7.2478337e-05)
(-0.070187054 0.0012568425 -9.7396205e-05)
(-0.070231705 -0.0010368511 -0.00012379559)
(-0.069357999 -0.0033854716 -0.0001509686)
(-0.06756045 -0.0057183884 -0.0001780748)
(-0.064860787 -0.0079566792 -0.00020417229)
(-0.061310186 -0.010016301 -0.00022826559)
(-0.056990347 -0.011812193 -0.00024936802)
(-0.052013136 -0.01326314 -0.00026657426)
(-0.046518553 -0.014297136 -0.00027913576)
(-0.040670853 -0.014856874 -0.00028653082)
(-0.034652768 -0.014904986 -0.00028852196)
(-0.028657888 -0.014428613 -0.000285194)
(-0.022881388 -0.01344298 -0.00027696669)
(-0.017509473 -0.011993827 -0.000264576)
(-0.012708069 -0.010158699 -0.00024902218)
(-0.0086114845 -0.0080474788 -0.00023148912)
(-0.0053117551 -0.0058029578 -0.00021325343)
(-0.002848504 -0.0036024918 -0.00019562638)
(-0.001200028 -0.0016605552 -0.00017987625)
(-0.00028881724 -0.00023377469 -0.00016673164)
(-2.4753909e-06 0.000350472 -0.00014549991)
(-0.00019286573 0.0010313023 -7.6686168e-05)
(-0.0013239894 0.0038925236 -5.4783233e-05)
(-0.0037518617 0.0069679865 -3.4578469e-05)
(-0.0071733053 0.0099108055 -1.8484888e-05)
(-0.011414813 0.012527386 -4.6890572e-06)
(-0.016341488 0.014714494 6.6737206e-06)
(-0.021809623 0.016430493 1.5590517e-05)
(-0.027675878 0.017672011 2.2176072e-05)
(-0.033802394 0.018455241 2.6508908e-05)
(-0.040056842 0.018803207 2.8615658e-05)
(-0.046311829 0.018738073 2.8473462e-05)
(-0.05244405 0.018277404 2.6011369e-05)
(-0.058333343 0.017433433 2.1119891e-05)
(-0.063862046 0.016214491 1.3668958e-05)
(-0.068914974 0.01462782 3.5321221e-06)
(-0.073380183 0.012683105 -9.3848208e-06)
(-0.077150594 0.010396209 -2.5112669e-05)
(-0.080126435 0.0077926383 -4.3587274e-05)
(-0.082218375 0.0049104471 -6.4620292e-05)
(-0.0833512 0.0018022822 -8.7875462e-05)
(-0.083467801 -0.0014636099 -0.00011285386)
(-0.082533239 -0.0048035798 -0.00013889163)
(-0.080538633 -0.0081200433 -0.00016517183)
(-0.077504572 -0.011304326 -0.00019075378)
(-0.073483752 -0.014240821 -0.0002146194)
(-0.068562519 -0.016812386 -0.00023573622)
(-0.062860984 -0.018906783 -0.00025313377)
(-0.056531379 -0.020423861 -0.00026598576)
(-0.049754405 -0.021283041 -0.00027368853)
(-0.042733404 -0.021430591 -0.00027592485)
(-0.035686361 -0.020846105 -0.00027270532)
(-0.028835904 -0.019547675 -0.00026438225)
(-0.022397686 -0.017595405 -0.00025163284)
(-0.016567749 -0.015093173 -0.00023540845)
(-0.011509876 -0.012188845 -0.00021684819)
(-0.0073439145 -0.0090736539 -0.00019717749)
(-0.0041345352 -0.005981672 -0.0001776662)
(-0.0018815881 -0.0031890493 -0.00015954723)
(-0.00053618993 -0.0010143268 -0.00014315209)
(-4.1246866e-05 0.0001589519 -0.00011906021)
(-0.00025011697 0.0017985668 -9.2172885e-05)
(-0.0016597744 0.0059841322 -6.5283652e-05)
(-0.0046244593 0.010198605 -4.1597331e-05)
(-0.0087321727 0.014107007 -2.3542509e-05)
(-0.013751607 0.017522322 -8.5040282e-06)
(-0.019515081 0.020347105 3.6350382e-06)
(-0.025854145 0.022545913 1.3086354e-05)
(-0.032607007 0.024121992 2.0166021e-05)
(-0.039621876 0.025098099 2.5096422e-05)
(-0.046755001 0.025503168 2.7995894e-05)
(-0.053868787 0.02536422 2.8889989e-05)
(-0.060830232 0.02470253 2.771936e-05)
(-0.067509624 0.023533168 2.4355415e-05)
(-0.073779749 0.021866974 1.8624133e-05)
(-0.079515858 0.019714119 1.0335803e-05)
(-0.084596479 0.017088485 -6.8094245e-07)
(-0.088905104 0.014012229 -1.4542565e-05)
(-0.09233268 0.010520007 -3.1273466e-05)
(-0.094780801 0.0066624827 -5.0770697e-05)
(-0.096165448 0.0025088096 -7.2773654e-05)
(-0.0964211 -0.0018521431 -9.6842628e-05)
(-0.095505006 -0.0063119946 -0.00012235103)
(-0.093401407 -0.010744591 -0.00014849217)
(-0.090125457 -0.015009419 -0.00017430691)
(-0.085726488 -0.018956657 -0.000198729)
(-0.080290331 -0.022433809 -0.00022064928)
(-0.07394027 -0.02529374 -0.0002389954)
(-0.066836221 -0.027403772 -0.00025282132)
(-0.059171731 -0.02865538 -0.00026139663)
(-0.051168493 -0.028973814 -0.00026428304)
(-0.043068249 -0.028326905 -0.0002613856)
(-0.035122203 -0.026732264 -0.00025297127)
(-0.027578332 -0.024262243 -0.00023965353)
(-0.020667328 -0.021046318 -0.00022234306)
(-0.014588341 -0.017270905 -0.00020216063)
(-0.0094958284 -0.013177214 -0.00018033139)
(-0.0054864997 -0.0090579179 -0.00015815861)
(-0.0025879509 -0.0052522186 -0.0001369277)
(-0.00078446352 -0.002140541 -0.00011664303)
(-7.6871906e-05 -0.00016054055 -8.94366e-05)
(-0.00030295617 0.0027365257 -0.00010299653)
(-0.0019754995 0.008498096 -7.1026507e-05)
(-0.0054521432 0.014028569 -4.3878678e-05)
(-0.010217975 0.019021381 -2.3734093e-05)
(-0.015985182 0.023311086 -7.2388167e-06)
(-0.022552798 0.026818188 5.9502755e-06)
(-0.029727183 0.029522424 1.624763e-05)
(-0.037328204 0.031439772 2.4150978e-05)
(-0.045190979 0.032603399 3.0010452e-05)
(-0.053161882 0.033050369 3.4023116e-05)
(-0.061095235 0.032813688 3.6252176e-05)
(-0.068850844 0.03191882 3.6640448e-05)
(-0.076292123 0.03038378 3.5031315e-05)
(-0.083284971 0.028221857 3.1197785e-05)
(-0.089697531 0.025446017 2.4877473e-05)
(-0.095400869 0.022074167 1.5812067e-05)
(-0.10027055 0.018134565 3.7896823e-06)
(-0.10418901 0.013670797 -1.1311913e-05)
(-0.10704869 0.0087459264 -2.9483556e-05)
(-0.10875571 0.0034454486 -5.054733e-05)
(-0.10923403 -0.0021211588 -7.4127491e-05)
(-0.10842997 -0.0078205151 -9.963574e-05)
(-0.10631681 -0.013497149 -0.00012627053)
(-0.10289942 -0.018977287 -0.00015304162)
(-0.098218399 -0.024074602 -0.00017881407)
(-0.09235354 -0.02859795 -0.00020237418)
(-0.085426026 -0.032360964 -0.0002225136)
(-0.07759889 -0.035193181 -0.00023812579)
(-0.069075147 -0.03695216 -0.00024830678)
(-0.060093096 -0.037535856 -0.00025244758)
(-0.05091846 -0.036894254 -0.00025030299)
(-0.041833363 -0.035039198 -0.0002420236)
(-0.033122493 -0.032051364 -0.00022814649)
(-0.025057295 -0.028083645 -0.00020954641)
(-0.017879635 -0.023360689 -0.00018734689)
(-0.011786475 -0.018175002 -0.00016281403)
(-0.0069140755 -0.01288039 -0.00013735095)
(-0.0033238436 -0.0078822565 -0.00011238125)
(-0.0010368615 -0.0036261504 -8.7673812e-05)
(-0.0001109334 -0.00060702326 -5.723278e-05)
(-0.00035169309 0.0038338184 -0.00010769346)
(-0.0022696855 0.011410354 -7.0537756e-05)
(-0.0062274788 0.01842729 -4.0059727e-05)
(-0.011614748 0.024619946 -1.7809302e-05)
(-0.018090315 0.029857548 2.5455078e-07)
(-0.025421018 0.034089864 1.4683877e-05)
(-0.033388709 0.037320699 2.6078213e-05)
(-0.041795663 0.039585233 3.5098233e-05)
(-0.050464958 0.040931428 4.220486e-05)
(-0.059234577 0.041407224 4.7658929e-05)
(-0.067952658 0.04105317 5.1548212e-05)
(-0.07647402 0.039899652 5.3806173e-05)
(-0.084657573 0.037967826 5.4237671e-05)
(-0.092364688 0.035273258 5.2552625e-05)
(-0.099458565 0.03183128 4.8405545e-05)
(-0.1058046 0.027663177 4.1439958e-05)
(-0.11127166 0.022802458 3.1336431e-05)
(-0.1157342 0.017300623 1.7862218e-05)
(-0.11907513 0.01123198 9.1998554e-07)
(-0.12118938 0.0046971914 -1.9407198e-05)
(-0.12198806 -0.0021747075 -4.2818491e-05)
(-0.1214031 -0.0092260596 -6.8772934e-05)
(-0.11939245 -0.016272185 -9.64781e-05)
(-0.11594546 -0.023105284 -0.00012490939)
(-0.11108819 -0.02950058 -0.00015284949)
(-0.10488838 -0.035224936 -0.00017895542)
(-0.097459292 -0.040047896 -0.00020184786)
(-0.088962021 -0.043754898 -0.00022021657)
(-0.079605246 -0.046162098 -0.00023293355)
(-0.06964187 -0.047131956 -0.00023916276)
(-0.05936184 -0.046588363 -0.0002384512)
(-0.049080939 -0.044529868 -0.00023078427)
(-0.039125757 -0.041039478 -0.00021659333)
(-0.029815749 -0.036289741 -0.00019671278)
(-0.021444136 -0.030542378 -0.00017228669)
(-0.014259498 -0.024142645 -0.00014465909)
(-0.0084461193 -0.0175092 -0.00011539167)
(-0.0041057598 -0.011119099 -8.6126428e-05)
(-0.0013000825 -0.0054896913 -5.6467907e-05)
(-0.00014466093 -0.0011817416 -2.2515357e-05)
(-0.00039639254 0.0050786726 -0.00010494441)
(-0.0025408045 0.014693481 -6.2464751e-05)
(-0.0069442122 0.023357969 -2.8858459e-05)
(-0.012909246 0.030860798 -4.5568196e-06)
(-0.020045655 0.037117338 1.5122845e-05)
(-0.028090307 0.042116893 3.092993e-05)
(-0.036802149 0.045895771 4.3634762e-05)
(-0.045967195 0.048514802 5.4044185e-05)
(-0.055397833 0.050041346 6.271395e-05)
(-0.0649252 0.05053729 6.9953979e-05)
(-0.074393058 0.050052582 7.5863261e-05)
(-0.083653276 0.048623472 8.0353834e-05)
(-0.092562434 0.046274521 8.3180897e-05)
(-0.10097953 0.043023303 8.3980479e-05)
(-0.10876484 0.038886812 8.2312784e-05)
(-0.11577976 0.033888615 7.7710676e-05)
(-0.12188761 0.028066007 6.9732662e-05)
(-0.12695537 0.021476596 5.8018775e-05)
(-0.13085609 0.014203874 4.23468e-05)
(-0.13347223 0.0063614841 2.2685999e-05)
(-0.13469973 -0.0019040874 -7.5603842e-07)
(-0.1344528 -0.010412649 -2.7504498e-05)
(-0.13266957 -0.018951365 -5.6788101e-05)
(-0.12931853 -0.02727839 -8.7555219e-05)
(-0.12440506 -0.035129026 -0.00011850244)
(-0.11797823 -0.042224886 -0.00014813898)
(-0.11013682 -0.048286159 -0.00017488013)
(-0.10103393 -0.053046882 -0.00019716343)
(-0.090879072 -0.056272722 -0.00021357787)
(-0.07993676 -0.057780313 -0.00022299436)
(-0.068520617 -0.057456686 -0.00022468247)
(-0.05698241 -0.055276924 -0.0002183961)
(-0.045695945 -0.051317896 -0.00020441009)
(-0.035036662 -0.045766081 -0.00018349519)
(-0.025358979 -0.03891804 -0.00015682425)
(-0.016973698 -0.031173317 -0.0001258536)
(-0.010123122 -0.023020495 -9.2360297e-05)
(-0.004957302 -0.01501629 -5.8280646e-05)
(-0.0015839135 -0.0077601696 -2.3108966e-05)
(-0.0001800057 -0.0018919978 1.4755938e-05)
(-0.00043687346 0.0064585671 -9.3546899e-05)
(-0.0027868519 0.018316896 -4.5568559e-05)
(-0.007595898 0.028778314 -9.0841739e-06)
(-0.014088637 0.037694898 1.716984e-05)
(-0.021830803 0.045038201 3.8473689e-05)
(-0.030532262 0.050846263 5.5765893e-05)
(-0.03993131 0.055195681 6.9975742e-05)
(-0.049799498 0.058179106 8.2041387e-05)
(-0.05994012 0.05988791 9.2599214e-05)
(-0.0701791 0.060401136 0.00010199513)
(-0.080357601 0.059780183 0.00011032729)
(-0.090326487 0.058068269 0.00011747512)
(-0.099942057 0.055293678 0.00012313349)
(-0.10906303 0.05147566 0.00012685365)
(-0.11754869 0.046631942 0.0001280897)
(-0.12525814 0.040786879 0.00012625018)
(-0.13205048 0.033979538 0.00012075491)
(-0.13778587 0.026271122 0.00011109631)
(-0.14232751 0.017751397 9.6903042e-05)
(-0.14554449 0.0085438134 7.8003445e-05)
(-0.14731568 -0.0011908596 5.4484014e-05)
(-0.14753458 -0.011252634 2.6722447e-05)
(-0.1461154 -0.021402746 -4.5516738e-06)
(-0.14300048 -0.031366216 -3.8278425e-05)
(-0.13816824 -0.040837669 -7.3076034e-05)
(-0.13164194 -0.049490585 -0.00010729754)
(-0.12349838 -0.056990427 -0.00013912377)
(-0.11387528 -0.063011802 -0.00016668887)
(-0.10297652 -0.067259329 -0.00018822921)
(-0.091073513 -0.069491257 -0.00020224102)
(-0.078501384 -0.069544165 -0.00020762977)
(-0.065648971 -0.067356331 -0.00020383282)
(-0.052941992 -0.062986916 -0.00019089497)
(-0.040820048 -0.056628009 -0.00016947538)
(-0.029709667 -0.048607149 -0.00014076451)
(-0.019996222 -0.039379395 -0.00010635716)
(-0.011992168 -0.029509501 -6.830325e-05)
(-0.0059060213 -0.019644353 -2.8911031e-05)
(-0.0018995936 -0.010479297 1.2398155e-05)
(-0.00021911098 -0.0027504898 5.4736709e-05)
(-0.00047276077 0.00795985 -7.2410249e-05)
(-0.0030053066 0.022246658 -1.8727414e-05)
(-0.0081754801 0.034640698 2.0349427e-05)
(-0.015139634 0.045066372 4.8430041e-05)
(-0.023425067 0.053560144 7.134525e-05)
(-0.032718081 0.060216882 9.021591e-05)
(-0.042738969 0.065160493 0.00010612014)
(-0.053246911 0.068521204 0.00012011431)
(-0.064037865 0.070418854 0.00013290327)
(-0.074934221 0.070952893 0.00014485807)
(-0.08577629 0.070198334 0.0001560662)
(-0.096415803 0.068206589 0.00016636544)
(-0.10671078 0.065010066 0.00017538126)
(-0.11652171 0.060629332 0.00018257021)
(-0.12570892 0.055081765 0.00018726849)
(-0.13413107 0.048390737 0.00018874565)
(-0.14164458 0.040594615 0.00018626428)
(-0.14810398 0.0317551 0.00017914559)
(-0.15336316 0.021964577 0.00016683967)
(-0.15727763 0.011352263 0.00014899734)
(-0.15970799 8.9016817e-05 0.00012553956)
(-0.16052488 -0.011609439 9.6727922e-05)
(-0.15961525 -0.023481691 6.3191619e-05)
(-0.15689038 -0.035221776 2.5972357e-05)
(-0.15229554 -0.046484002 -1.3488909e-05)
(-0.1458208 -0.056891668 -5.3392969e-05)
(-0.13751247 -0.066050517 -9.1667037e-05)
(-0.12748401 -0.073567417 -0.00012609442)
(-0.1159251 -0.079074248 -0.00015448239)
(-0.10310684 -0.082256221 -0.00017485325)
(-0.08938122 -0.082882812 -0.0001856372)
(-0.075173042 -0.080838425 -0.00018584364)
(-0.060963163 -0.076148998 -0.00017518708)
(-0.047263075 -0.069000357 -0.00015413903)
(-0.034583084 -0.059744603 -0.00012386999)
(-0.023397399 -0.048892492 -8.6122317e-05)
(-0.014103448 -0.037091887 -4.3273696e-05)
(-0.0069814323 -0.025092618 1.9116388e-06)
(-0.0022590045 -0.013702948 5.0059614e-05)
(-0.00026414551 -0.0037760401 9.7616954e-05)
(-0.00050355071 0.0095674377 -4.0564819e-05)
(-0.0031932751 0.02644518 1.9050941e-05)
(-0.0086754033 0.040892086 6.0406666e-05)
(-0.016048491 0.052912568 9.0172144e-05)
(-0.024807358 0.062615396 0.00011467611)
(-0.03461841 0.070159198 0.00013521482)
(-0.045186783 0.07572138 0.00015300613)
(-0.056261489 0.07947498 0.00016921324)
(-0.067632956 0.081572522 0.0001845996)
(-0.079121695 0.082137067 0.00019955316)
(-0.09056885 0.08125949 0.00021414383)
(-0.10182883 0.079000747 0.00022816152)
(-0.11276333 0.075397868 0.00024115591)
(-0.12323667 0.070472429 0.00025248113)
(-0.13311236 0.064240342 0.00026134483)
(-0.14225075 0.056722057 0.00026686284)
(-0.15050757 0.047952498 0.0002681205)
(-0.15773343 0.037990326 0.00026424139)
(-0.16377425 0.0269263 0.00025446308)
(-0.16847275 0.014890608 0.0002382178)
(-0.1716713 0.0020590407 0.00021521509)
(-0.17321658 -0.011342246 0.00018553153)
(-0.1729659 -0.025033758 0.00014965605)
(-0.17079567 -0.038682239 0.00010855994)
(-0.1666124 -0.051903604 6.3705133e-05)
(-0.16036548 -0.064270354 1.7023611e-05)
(-0.15206155 -0.075324577 -2.9152737e-05)
(-0.14177937 -0.084597496 -7.2218266e-05)
(-0.12968345 -0.091636026 -0.00010947519)
(-0.11603432 -0.096035931 -0.00013835941)
(-0.10119272 -0.097479873 -0.00015668751)
(-0.085615074 -0.095777076 -0.00016289369)
(-0.069838043 -0.090899809 -0.00015622429)
(-0.054451411 -0.083010913 -0.00013685149)
(-0.040061173 -0.072476735 -0.00010585588)
(-0.027246481 -0.059861702 -6.5111807e-05)
(-0.016507706 -0.045903605 -1.7370737e-05)
(-0.0082137724 -0.031469859 3.4056371e-05)
(-0.0026743199 -0.01750184 8.9822139e-05)
(-0.0003172954 -0.0049938557 0.00014354028)
(-0.00052868021 0.011264643 2.8196467e-06)
(-0.0033477373 0.030871092 6.8610906e-05)
(-0.0090880503 0.047474035 0.00011190898)
(-0.016801582 0.061164124 0.00014320789)
(-0.025956882 0.072128372 0.00016927412)
(-0.036204171 0.080594881 0.00019157115)
(-0.047236282 0.086799831 0.00021144794)
(-0.058794229 0.090963736 0.00023016481)
(-0.07066464 0.093275736 0.00024853649)
(-0.082667703 0.09388564 0.0002669628)
(-0.094646976 0.092902497 0.00028549248)
(-0.10646125 0.090398293 0.00030386472)
(-0.11797779 0.086415352 0.00032155045)
(-0.12906687 0.080976081 0.00033779678)
(-0.13959745 0.074093896 0.00035167485)
(-0.14943399 0.0657844 0.00036213351)
(-0.15843401 0.056076234 0.00036806076)
(-0.16644667 0.045021266 0.00036835423)
(-0.1733122 0.032704 0.0003620015)
(-0.17886249 0.019250183 0.00034816912)
(-0.18292314 0.0048345414 0.00032629888)
(-0.18531735 -0.010312557 0.00029621004)
(-0.18587196 -0.025899791 0.00025818475)
(-0.18442615 -0.041572061 0.00021305233)
(-0.18084311 -0.056910842 0.00016223504)
(-0.17502462 -0.071439334 0.00010775608)
(-0.16692825 -0.084633961 5.2192595e-05)
(-0.15658625 -0.095943756 -1.4377603e-06)
(-0.14412459 -0.1048188 -4.9863813e-05)
(-0.12977945 -0.11074794 -8.9817473e-05)
(-0.11390797 -0.11330451 -0.0001183402)
(-0.096989349 -0.11219669 -0.00013310336)
(-0.079612818 -0.10731672 -0.00013269697)
(-0.062450278 -0.098781303 -0.00011683202)
(-0.046214673 -0.086954978 -8.6385622e-05)
(-0.031607738 -0.072449898 -4.331575e-05)
(-0.019254149 -0.056099253 9.2217929e-06)
(-0.0096331388 -0.038903919 6.7274275e-05)
(-0.0031578303 -0.021961649 0.00013150169)
(-0.00038078526 -0.0064355917 0.00019252875)
(-0.00054759893 0.013033163 5.8410709e-05)
(-0.0034658563 0.035479359 0.00013062764)
(-0.0094063941 0.05432295 0.00017551289)
(-0.017386392 0.069745263 0.00020818684)
(-0.026854429 0.082015864 0.0002357857)
(-0.037448144 0.091436723 0.00025993025)
(-0.048850763 0.098307114 0.00028209207)
(-0.06079731 0.10289909 0.00030362052)
(-0.073072163 0.10544204 0.00032537724)
(-0.085496575 0.10611558 0.00034777247)
(-0.097917929 0.10504932 0.00037083415)
(-0.11020098 0.10232796 0.00039425199)
(-0.1222204 0.098000004 0.00041741911)
(-0.13385449 0.092088763 0.00043947482)
(-0.14498012 0.084604349 0.00045934957)
(-0.15546855 0.075555792 0.00047581532)
(-0.16518211 0.064962745 0.00048754474)
(-0.17397172 0.052866564 0.00049318166)
(-0.18167527 0.039340755 0.00049142442)
(-0.18811713 0.024500888 0.00048112224)
(-0.19310908 0.0085140096 0.00046138416)
(-0.19645325 -0.0083925573 0.00043169809)
(-0.19794727 -0.02592335 0.00039204893)
(-0.19739263 -0.043708848 0.00034303234)
(-0.19460646 -0.061302505 0.00028594311)
(-0.18943727 -0.078182554 0.00022282376)
(-0.1817845 -0.093760661 0.00015645383)
(-0.17162146 -0.10739969 9.0261654e-05)
(-0.15902007 -0.11844264 2.814366e-05)
(-0.1441748 -0.12625402 -2.581437e-05)
(-0.12742188 -0.13027325 -6.7702556e-05)
(-0.10924878 -0.13007708 -9.4203689e-05)
(-0.090288534 -0.12544455 -0.00010300508)
(-0.071294708 -0.11641493 -9.3127251e-05)
(-0.053096434 -0.10332682 -6.5067663e-05)
(-0.036536431 -0.086827855 -2.0772184e-05)
(-0.022388437 -0.067848907 3.6192822e-05)
(-0.011268761 -0.047540422 0.00010113711)
(-0.0037218437 -0.027182716 0.0001747079)
(-0.00045691193 -0.0081393798 0.00024440484)
(-0.00055984469 0.014853258 0.00012668866)
(-0.0035453369 0.040221762 0.00020558568)
(-0.0096248057 0.061370756 0.00025168932)
(-0.017792799 0.078574501 0.00028557302)
(-0.027484122 0.092187613 0.00031466756)
(-0.038327152 0.10258892 0.00034073941)
(-0.049997919 0.11014414 0.00036537457)
(-0.06222719 0.11518033 0.00039000525)
(-0.074798394 0.11797045 0.00041553877)
(-0.087535005 0.11872691 0.00044239837)
(-0.10028945 0.11760243 0.00047059611)
(-0.11293387 0.11469629 0.00049977816)
(-0.12535204 0.11006439 0.00052926535)
(-0.13743241 0.10373136 0.00055809298)
(-0.14906224 0.095703576 0.00058505108)
(-0.16012259 0.085982148 0.00060872942)
(-0.17048404 0.074575403 0.00062757182)
(-0.18000321 0.061510782 0.00063994388)
(-0.18852001 0.046846252 0.00064421706)
(-0.19585594 0.03068147 0.00063887072)
(-0.2018137 0.013168867 0.00062261244)
(-0.20617872 -0.0054753412 0.00059451526)
(-0.20872306 -0.02496051 0.00055416593)
(-0.2092126 -0.044912137 0.00050181465)
(-0.20741813 -0.064864829 0.0004385125)
(-0.20313136 -0.084259629 0.00036621343)
(-0.19618602 -0.10244828 0.00028781647)
(-0.18648425 -0.11870741 0.00020712103)
(-0.17402709 -0.132266 0.0001286701)
(-0.15894666 -0.14234849 5.7463841e-05)
(-0.14153583 -0.14823506 -1.4570308e-06)
(-0.1222691 -0.14933663 -4.3530812e-05)
(-0.10180728 -0.14527867 -6.5236126e-05)
(-0.080978713 -0.13598179 -6.4592527e-05)
(-0.0607339 -0.12172369 -4.1455776e-05)
(-0.042074312 -0.10316588 2.4070979e-06)
(-0.025950476 -0.081333227 6.3053736e-05)
(-0.01314824 -0.057540528 0.000134967)
(-0.0043785968 -0.033279399 0.00021875937)
(-0.00054808336 -0.01014984 0.00029870473)
(-0.0005651228 0.016704131 0.00020792428)
(-0.0035848216 0.0450478 0.00029376087)
(-0.0097399803 0.068546079 0.00034070688)
(-0.018014592 0.087565874 0.00037562627)
(-0.02783551 0.10254739 0.00040616333)
(-0.03882472 0.11394786 0.00043421751)
(-0.050653057 0.12220184 0.00046148199)
(-0.063048406 0.12769426 0.00048946818)
(-0.075794261 0.13074476 0.00051913156)
(-0.088717225 0.13160151 0.00055091529)
(-0.10167578 0.13044299 0.00058482538)
(-0.11455069 0.12738523 0.00062047554)
(-0.12723644 0.1224931 0.00065712517)
(-0.13963364 0.1157934 0.00069371447)
(-0.1516425 0.10728886 0.00072889855)
(-0.16315698 0.09697188 0.00076108514)
(-0.17405974 0.084837716 0.00078848169)
(-0.18421761 0.070897076 0.00080915738)
(-0.19347775 0.055188373 0.00082112474)
(-0.20166468 0.037789986 0.00082244444)
(-0.20857839 0.01883288 0.0008113549)
(-0.2139941 -0.001486282 0.00078642676)
(-0.21766443 -0.022891652 0.00074674025)
(-0.21932458 -0.045015016 0.00069207261)
(-0.21870192 -0.067384127 0.0006230897)
(-0.21553094 -0.08941448 0.0005415122)
(-0.20957469 -0.1104075 0.00045022824)
(-0.20065355 -0.12955893 0.00035331575)
(-0.18868077 -0.14598186 0.00025593551)
(-0.17370324 -0.15874896 0.00016406118)
(-0.15594311 -0.16695708 8.4028523e-05)
(-0.13583339 -0.16981456 2.1915948e-05)
(-0.11403766 -0.16674576 -1.7186551e-05)
(-0.091443294 -0.15750011 -2.9897985e-05)
(-0.069120472 -0.14224562 -1.5062002e-05)
(-0.048244335 -0.12162258 2.6001554e-05)
(-0.029971801 -0.096736556 8.9076904e-05)
(-0.01529662 -0.069077559 0.00016775231)
(-0.0051401266 -0.040378983 0.00026258375)
(-0.00065685485 -0.012518068 0.00035457693)
(-0.00056338803 0.018564529 0.00030216225)
(-0.0035843178 0.049906085 0.00039520911)
(-0.0097519577 0.075776028 0.00044262242)
(-0.01805116 0.096630802 0.00047839105)
(-0.027905933 0.11299471 0.0005102879)
(-0.038934092 0.12540354 0.00054033221)
(-0.050802745 0.13436216 0.00057031934)
(-0.063237885 0.14031583 0.00060184002)
(-0.076023782 0.1436337 0.00063590503)
(-0.088990861 0.14460277 0.00067298947)
(-0.10200449 0.14343005 0.00071310813)
(-0.11495517 0.14025087 0.00075585864)
(-0.12774953 0.13514099 0.00080045528)
(-0.14030231 0.12813079 0.00084575777)
(-0.15252912 0.11922003 0.00089029756)
(-0.16434006 0.1083923 0.00093230665)
(-0.1756338 0.095628816 0.00096975553)
(-0.18629228 0.08092159 0.0010004068)