/*--------------------------------*- C++ -*----------------------------------*\
  =========                 |
  \\      /  F ield         | OpenFOAM: The Open Source CFD Toolbox
   \\    /   O peration     | Website:  https://openfoam.org
    \\  /    A nd           | Version:  7
     \\/     M anipulation  |
\*---------------------------------------------------------------------------*/
FoamFile
{
    version     2.0;
    format      ascii;
    class       volScalarField;
    location    "3.6";
    object      p;
}
// * * * * * * * * * * * * * * * * * * * * * * * * * * * * * * * * * * * * * //

dimensions      [1 -1 -2 0 0 0 0];

internalField   nonuniform List<scalar> 
19968
(
1
1
1
1
1
1
1
1
1
1
1
1
1
1
1
1
1
1
1
1
1
1
1
1
1
1
1
1
1
1
1
1
1
1
1
1
1
1
1
1
1
1
1
1
1
1
1
1
1.22186
7.25941
10.4281
10.4747
10.5356
10.5906
10.6425
10.6951
10.7512
10.81
10.868
10.9214
10.9689
11.0131
11.0569
11.1032
11.155
11.2108
11.2655
11.3146
11.3566
11.3924
11.4257
11.4604
11.497
11.536
11.5783
11.6229
11.6669
11.7067
11.7401
11.7674
11.7912
11.815
11.842
11.8728
11.905
11.9353
11.9609
11.9805
11.9938
12.002
12.008
12.0141
12.0236
12.0379
12.054
12.0666
1
1
1
1
1
1
1
1
1
1
1
1
1
1
1
1
1
1
1
1
1
1
1
1
1
1
1
1
1
1
1
1
1
1
1
1
1
1
1
1
1
1
1
1
1
1
1
1
1.20156
7.1749
10.418
10.4729
10.5325
10.5879
10.6396
10.6918
10.7477
10.8067
10.8655
10.9199
10.9677
11.0118
11.0552
11.1016
11.1533
11.2087
11.2629
11.3118
11.3536
11.3894
11.4226
11.4572
11.4937
11.5326
11.5745
11.6187
11.6621
11.7013
11.7341
11.7611
11.7848
11.809
11.8365
11.8678
11.9001
11.9301
11.9552
11.9742
11.9869
11.9949
12.0008
12.007
12.0169
12.0316
12.0482
12.0611
1
1
1
1
1
1
1
1
1
1
1
1
1
1
1
1
1
1
1
1
1
1
1
1
1
1
1
1
1
1
1
1
1
1
1
1
1
1
1
1
1
1
1
1
1
1
1
1
1.14668
7.02628
10.416
10.4651
10.5247
10.5801
10.6316
10.6837
10.7395
10.7989
10.859
10.915
10.9634
11.008
11.0513
11.0976
11.1492
11.2041
11.2578
11.3064
11.3478
11.3837
11.4168
11.4515
11.4878
11.5267
11.5683
11.612
11.6547
11.6933
11.7258
11.7526
11.7765
11.8011
11.8293
11.8612
11.8935
11.9228
11.9467
11.9641
11.9756
11.9827
11.988
11.9942
12.0045
12.02
12.0374
12.0507
1
1
1
1
1
1
1
1
1
1
1
1
1
1
1
1
1
1
1
1
1
1
1
1
1
1
1
1
1
1
1
1
1
1
1
1
1
1
1
1
1
1
1
1
1
1
1
1
1.04088
6.78567
10.4029
10.4535
10.5116
10.5662
10.6174
10.6695
10.7254
10.7854
10.8471
10.9051
10.9551
11.0009
11.0445
11.0903
11.141
11.195
11.2475
11.2955
11.3363
11.372
11.4049
11.4394
11.4753
11.5138
11.5549
11.5977
11.6396
11.6777
11.71
11.7372
11.7618
11.7876
11.817
11.8498
11.8826
11.9114
11.934
11.9499
11.96
11.9657
11.9699
11.9755
11.9857
12.0013
12.019
12.0323
1
1
1
1
1
1
1
1
1
1
1
1
1
1
1
1
1
1
1
1
1
1
1
1
1
1
1
1
1
1
1
1
1
1
1
1
1
1
1
1
1
1
1
1
1
1
1
1
1.00079
6.38927
10.3619
10.431
10.4891
10.546
10.5994
10.6529
10.7091
10.7685
10.83
10.8875
10.9373
10.9832
11.0271
11.0727
11.1232
11.177
11.2292
11.2774
11.3181
11.3542
11.387
11.4212
11.4567
11.4947
11.5348
11.5763
11.6167
11.6537
11.6858
11.7135
11.7391
11.7659
11.796
11.829
11.8615
11.8895
11.911
11.926
11.9354
11.9408
11.9449
11.9507
11.9616
11.9776
11.9958
12.009
1
1
1
1
1
1
1
1
1
1
1
1
1
1
1
1
1
1
1
1
1
1
1
1
1
1
1
1
1
1
1
1
1
1
1
1
1
1
1
1
1
1
1
1
1
1
1
1
1
5.81657
10.3009
10.4076
10.4676
10.527
10.5805
10.6332
10.688
10.7465
10.8081
10.8658
10.9168
10.9643
11.0093
11.0551
11.1052
11.1585
11.21
11.258
11.2982
11.3337
11.3658
11.3988
11.4334
11.4704
11.5092
11.5489
11.5874
11.6232
11.6553
11.684
11.7109
11.7385
11.7687
11.801
11.8324
11.8593
11.8799
11.8942
11.9034
11.909
11.9133
11.9196
11.931
11.9469
11.9651
11.9775
1
1
1
1
1
1
1
1
1
1
1
1
1
1
1
1
1
1
1
1
1
1
1
1
1
1
1
1
1
1
1
1
1
1
1
1
1
1
1
1
1
1
1
1
1
1
1
1
1
5.07612
10.1976
10.3773
10.4404
10.5041
10.5585
10.6112
10.6652
10.7235
10.7844
10.8417
10.8931
10.9413
10.9868
11.0322
11.0813
11.1335
11.1838
11.2313
11.2713
11.3062
11.3378
11.3696
11.4034
11.4393
11.4767
11.5145
11.5513
11.5862
11.6187
11.6485
11.6766
11.7044
11.7334
11.7636
11.7929
11.818
11.8373
11.851
11.8603
11.8665
11.8717
11.8789
11.8906
11.9057
11.9225
11.9334
1
1
1
1
1
1
1
1
1
1
1
1
1
1
1
1
1
1
1
1
1
1
1
1
1
1
1
1
1
1
1
1
1
1
1
1
1
1
1
1
1
1
1
1
1
1
1
1
1
4.17981
9.98132
10.3465
10.4143
10.4817
10.5368
10.5889
10.6406
10.6965
10.755
10.8105
10.8613
10.9099
10.9562
11.0015
11.0494
11.1001
11.1491
11.1957
11.2358
11.2701
11.3014
11.3315
11.3641
11.3982
11.4342
11.4704
11.5058
11.5402
11.5733
11.6046
11.634
11.662
11.6897
11.7174
11.7441
11.7673
11.7855
11.7987
11.8081
11.815
11.8211
11.8288
11.8396
11.852
11.8652
11.8726
1
1
1
1
1
1
1
1
1
1
1
1
1
1
1
1
1
1
1
1
1
1
1
1
1
1
1
1
1
1
1
1
1
1
1
1
1
1
1
1
1
1
1
1
1
1
1
1
1
3.20292
9.577
10.3318
10.4005
10.4688
10.5243
10.5761
10.6256
10.6777
10.7321
10.7844
10.8332
10.8805
10.9263
10.9704
11.0154
11.0626
11.109
11.1535
11.1936
11.2271
11.2577
11.2854
11.3162
11.3481
11.3823
11.4169
11.4507
11.4836
11.5157
11.5465
11.5756
11.6025
11.6278
11.6522
11.6756
11.6966
11.7139
11.7275
11.7384
11.7476
11.7565
11.7665
11.7773
11.7868
11.7954
11.7987
1
1
1
1
1
1
1
1
1
1
1
1
1
1
1
1
1
1
1
1
1
1
1
1
1
1
1
1
1
1
1
1
1
1
1
1
1
1
1
1
1
1
1
1
1
1
1
1
1
2.19889
8.83617
10.3327
10.3818
10.4466
10.4972
10.5482
10.5971
10.6473
10.6997
10.7511
10.7995
10.8458
10.8906
10.9332
10.9753
11.0191
11.0633
11.1057
11.1464
11.1799
11.2104
11.2368
11.2658
11.2964
11.3297
11.363
11.3951
11.4257
11.4554
11.4844
11.5118
11.5368
11.559
11.5792
11.598
11.6153
11.6303
11.6428
11.6535
11.6633
11.6731
11.6835
11.692
11.6964
11.6988
11.6968
1
1
1
1
1
1
1
1
1
1
1
1
1
1
1
1
1
1
1
1
1
1
1
1
1
1
1
1
1
1
1
1
1
1
1
1
1
1
1
1
1
1
1
1
1
1
1
1
1
1.34027
7.6173
10.3989
10.3934
10.4426
10.4837
10.5289
10.5735
10.6192
10.6664
10.7134
10.7586
10.8018
10.8435
10.8831
10.9207
10.9599
11.0009
11.0407
11.0801
11.1133
11.1424
11.1682
11.1952
11.225
11.2571
11.2892
11.3192
11.3466
11.3728
11.3984
11.4231
11.4453
11.4639
11.4792
11.4927
11.5054
11.5178
11.5297
11.5416
11.5537
11.566
11.5781
11.5859
11.5872
11.5846
11.5794
1
1
1
1
1
1
1
1
1
1
1
1
1
1
1
1
1
1
1
1
1
1
1
1
1
1
1
1
1
1
1
1
1
1
1
1
1
1
1
1
1
1
1
1
1
1
1
1
1
1.00568
5.88275
10.2184
10.278
10.3263
10.3777
10.4278
10.4763
10.5246
10.5734
10.6229
10.6714
10.7172
10.7604
10.8007
10.8383
10.8761
10.9159
10.955
10.993
11.027
11.0557
11.0831
11.1103
11.1402
11.1714
11.2021
11.2294
11.2531
11.275
11.2966
11.318
11.3374
11.3528
11.364
11.3728
11.381
11.3898
11.3994
11.4093
11.4188
11.4274
11.4329
11.4326
11.4275
11.4188
11.4111
1
1
1
1
1
1
1
1
1
1
1
1
1
1
1
1
1
1
1
1
1
1
1
1
1
1
1
1
1
1
1
1
1
1
1
1
1
1
1
1
1
1
1
1
1
1
1
1
1
1.00001
3.82091
9.66769
10.2133
10.2788
10.3347
10.3813
10.4259
10.4699
10.5144
10.5591
10.6029
10.6444
10.6837
10.721
10.7559
10.7898
10.8248
10.8601
10.8938
10.9259
10.9529
10.9795
11.0063
11.0344
11.0629
11.09
11.1133
11.1322
11.1488
11.1649
11.181
11.1954
11.2053
11.2103
11.2115
11.2111
11.2112
11.2133
11.2173
11.2224
11.2273
11.2299
11.2283
11.2238
11.2156
11.2106
1
1
1
1
1
1
1
1
1
1
1
1
1
1
1
1
1
1
1
1
1
1
1
1
1
1
1
1
1
1
1
1
1
1
1
1
1
1
1
1
1
1
1
1
1
1
1
1
1
1
1.85044
8.28299
10.1929
10.2121
10.277
10.3238
10.3696
10.4128
10.4551
10.497
10.5379
10.5769
10.6135
10.6477
10.679
10.7077
10.7355
10.7638
10.7911
10.8181
10.8424
10.8655
10.8896
10.914
10.9375
10.9587
10.9761
10.9886
10.9978
11.0057
11.0136
11.0202
11.0242
11.0236
11.018
11.0105
11.0037
11.0001
10.9987
10.9966
10.9887
10.9741
10.9502
10.9209
10.8897
10.8644
1
1
1
1
1
1
1
1
1
1
1
1
1
1
1
1
1
1
1
1
1
1
1
1
1
1
1
1
1
1
1
1
1
1
1
1
1
1
1
1
1
1
1
1
1
1
1
1
1
1
1.02313
5.47316
10.0756
10.158
10.2065
10.2506
10.294
10.334
10.3727
10.4109
10.4482
10.4837
10.517
10.548
10.5763
10.6014
10.6242
10.6467
10.6687
10.6897
10.7097
10.7277
10.7463
10.7655
10.7834
10.7979
10.8083
10.8138
10.8138
10.8118
10.8084
10.8041
10.7981
10.7869
10.7693
10.7461
10.7195
10.6914
10.6599
10.6211
10.5734
10.5195
10.4706
10.4278
10.4059
10.3953
1
1
1
1
1
1
1
1
1
1
1
1
1
1
1
1
1
1
1
1
1
1
1
1
1
1
1
1
1
1
1
1
1
1
1
1
1
1
1
1
1
1
1
1
1
1
1
1
1
1
1.00002
2.41698
8.78278
10.0887
10.1127
10.1655
10.2059
10.2438
10.2785
10.3126
10.3462
10.3785
10.4092
10.4377
10.463
10.4846
10.5036
10.5222
10.5397
10.5546
10.5672
10.5775
10.5873
10.5982
10.6087
10.6156
10.6178
10.6137
10.6034
10.5884
10.5697
10.5493
10.5261
10.4977
10.4615
10.4174
10.3668
10.3116
10.2513
10.1843
10.1092
10.0291
9.93649
9.84978
9.73614
9.82767
1
1
1
1
1
1
1
1
1
1
1
1
1
1
1
1
1
1
1
1
1
1
1
1
1
1
1
1
1
1
1
1
1
1
1
1
1
1
1
1
1
1
1
1
1
1
1
1
1
1
1
1.05904
6.29397
10.0688
10.0636
10.1064
10.1398
10.1721
10.1999
10.2277
10.2559
10.2835
10.3095
10.3334
10.3542
10.3716
10.3866
10.4012
10.415
10.4253
10.4296
10.4317
10.4319
10.4325
10.4349
10.4359
10.4302
10.4181
10.3984
10.3716
10.3387
10.3014
10.2596
10.2115
10.1538
10.0845
10.0021
9.90574
9.78884
9.64449
9.45107
9.1941
8.81628
8.26491
7.35119
5.48839
1
1
1
1
1
1
1
1
1
1
1
1
1
1
1
1
1
1
1
1
1
1
1
1
1
1
1
1
1
1
1
1
1
1
1
1
1
1
1
1
1
1
1
1
1
1
1
1
1
1
1
1
3.47226
9.26628
9.97245
10.0138
10.0555
10.0901
10.1195
10.1471
10.1739
10.1987
10.2207
10.241
10.2594
10.2751
10.2881
10.2996
10.3106
10.3179
10.3154
10.3102
10.3015
10.2921
10.2863
10.2803
10.2684
10.2488
10.2206
10.1839
10.1388
10.0862
10.026
9.95748
9.87712
9.78246
9.66762
9.53137
9.35969
9.14875
8.86427
8.50054
7.98476
7.34555
6.11757
4.49657
1
1
1
1
1
1
1
1
1
1
1
1
1
1
1
1
1
1
1
1
1
1
1
1
1
1
1
1
1
1
1
1
1
1
1
1
1
1
1
1
1
1
1
1
1
1
1
1
1
1
1
0.999994
1.32781
7.50103
10.0594
9.99964
10.0101
10.0342
10.0565
10.0765
10.0952
10.1133
10.1299
10.1456
10.1605
10.1729
10.182
10.189
10.1963
10.2006
10.1941
10.183
10.1661
10.147
10.1311
10.1161
10.0972
10.0706
10.0343
9.98797
9.9313
9.86467
9.78658
9.69808
9.5946
9.47571
9.33158
9.16117
8.9486
8.68808
8.35729
7.93491
7.40226
6.63611
5.62476
4.53828
1
1
1
1
1
1
1
1
1
1
1
1
1
1
1
1
1
1
1
1
1
1
1
1
1
1
1
1
1
1
1
1
1
1
1
1
1
1
1
1
1
1
1
1
1
1
1
1
1
1
1
1
1.00338
4.49208
9.56608
9.85697
9.89663
9.9273
9.95384
9.97721
9.9967
10.0142
10.0304
10.043
10.0535
10.0616
10.0665
10.0695
10.0748
10.078
10.0693
10.0527
10.0281
10.0004
9.97482
9.95087
9.9244
9.89064
9.84587
9.78998
9.72225
9.64326
9.5496
9.44305
9.319
9.17819
9.01162
8.81558
8.57922
8.29297
7.94746
7.51354
6.98918
6.31106
5.53057
4.70903
1
1
1
1
1
1
1
1
1
1
1
1
1
1
1
1
1
1
1
1
1
1
1
1
1
1
1
1
1
1
1
1
1
1
1
1
1
1
1
1
1
1
1
1
1
1
1
1
1
1
1
1
0.999996
1.67749
7.92288
9.83291
9.82497
9.8444
9.86983
9.89188
9.9073
9.92002
9.93484
9.94486
9.9516
9.95535
9.95554
9.95474
9.95622
9.95494
9.94405
9.92244
9.89202
9.85787
9.82376
9.79059
9.75447
9.7122
9.65919
9.59508
9.51826
9.42927
9.32402
9.20319
9.06373
8.90583
8.72402
8.51332
8.26699
7.97418
7.63741
7.21625
6.74774
6.18321
5.57882
4.92373
1
1
1
1
1
1
1
1
1
1
1
1
1
1
1
1
1
1
1
1
1
1
1
1
1
1
1
1
1
1
1
1
1
1
1
1
1
1
1
1
1
1
1
1
1
1
1
1
1
1
1
1
0.999999
1.01478
4.69736
9.48294
9.69826
9.73011
9.76926
9.7937
9.80924
9.82311
9.83745
9.84605
9.84768
9.84642
9.84347
9.84078
9.83803
9.83091
9.8154
9.7881
9.75299
9.71381
9.67274
9.63097
9.58497
9.53333
9.4717
9.39957
9.3148
9.21788
9.10515
8.97569
8.82737
8.65958
8.46954
8.2537
8.00794
7.72235
7.39924
7.02026
6.6104
6.14418
5.65508
5.11492
1
1
1
1
1
1
1
1
1
1
1
1
1
1
1
1
1
1
1
1
1
1
1
1
1
1
1
1
1
1
1
1
1
1
1
1
1
1
1
1
1
1
1
1
1
1
1
1
1
1
1
1
1
0.999998
1.59415
7.7719
9.71976
9.70407
9.71341
9.72173
9.72896
9.73563
9.74209
9.74517
9.74245
9.73879
9.73517
9.73079
9.72206
9.7063
9.68272
9.6514
9.61504
9.5748
9.53064
9.48292
9.42866
9.36769
9.29731
9.21749
9.12626
9.02363
8.90619
8.77233
8.62027
8.44863
8.25611
8.04081
7.80188
7.52877
7.2233
6.88976
6.5293
6.13423
5.72629
5.27551
1
1
1
1
1
1
1
1
1
1
1
1
1
1
1
1
1
1
1
1
1
1
1
1
1
1
1
1
1
1
1
1
1
1
1
1
1
1
1
1
1
1
1
1
1
1
1
1
1
1
1
1
1
0.999999
1.01069
4.25281
9.16823
9.5689
9.59011
9.60323
9.61755
9.63131
9.64181
9.64786
9.64649
9.64052
9.6323
9.62068
9.6023
9.57787
9.54709
9.51447
9.47808
9.4366
9.3892
9.33597
9.27455
9.20553
9.12711
9.03986
8.94285
8.83593
8.71529
8.58022
8.42966
8.26069
8.07332
7.86406
7.63831
7.37973
7.09617
6.7985
6.47854
6.13449
5.78631
5.40052
1
1
1
1
1
1
1
1
1
1
1
1
1
1
1
1
1
1
1
1
1
1
1
1
1
1
1
1
1
1
1
1
1
1
1
1
1
1
1
1
1
1
1
1
1
1
1
1
1
1
1
1
1
1
1
1.28187
6.96663
9.58145
9.56744
9.55623
9.55977
9.5615
9.56509
9.56699
9.56241
9.55115
9.5359
9.51493
9.48743
9.45549
9.41874
9.38378
9.34699
9.30502
9.25594
9.19972
9.13426
9.0603
8.97609
8.8829
8.78167
8.67176
8.54769
8.41139
8.26325
8.09921
7.92129
7.71993
7.50864
7.26642
7.00531
6.73734
6.44792
6.14335
5.83732
5.50451
1
1
1
1
1
1
1
1
1
1
1
1
1
1
1
1
1
1
1
1
1
1
1
1
1
1
1
1
1
1
1
1
1
1
1
1
1
1
1
1
1
1
1
1
1
1
1
1
1
1
1
1
1
1
1
1.0024
3.06531
8.6349
9.39005
9.40428
9.43609
9.45059
9.46206
9.46509
9.45738
9.44105
9.42018
9.39305
9.35982
9.32451
9.28653
9.2504
9.21296
9.17031
9.11943
9.06091
8.99289
8.91614
8.82899
8.73307
8.63089
8.51967
8.39331
8.25654
8.11139
7.95298
7.78656
7.59606
7.40018
7.17789
6.93764
6.69499
6.42944
6.15895
5.88023
5.59198
1
1
1
1
1
1
1
1
1
1
1
1
1
1
1
1
1
1
1
1
1
1
1
1
1
1
1
1
1
1
1
1
1
1
1
1
1
1
1
1
1
1
1
1
1
1
1
1
1
1
1
1
1
1
1
1
1.11846
5.40489
9.20582
9.37496
9.38178
9.38068
9.38889
9.38908
9.37834
9.35684
9.33121
9.30041
9.26457
9.22684
9.18629
9.14519
9.10251
9.05587
9.0016
8.93948
8.86818
8.78848
8.69931
8.60291
8.501
8.3886
8.26176
8.12553
7.98304
7.82724
7.66903
7.491
7.30849
7.10497
6.88409
6.6625
6.41866
6.18011
5.92416
5.67264
1
1
1
1
1
1
1
1
1
1
1
1
1
1
1
1
1
1
1
1
1
1
1
1
1
1
1
1
1
1
1
1
1
1
1
1
1
1
1
1
1
1
1
1
1
1
1
1
1
1
1
1
1
1
1
1
1.00045
1.5536
7.41865
9.41113
9.34552
9.3194
9.30247
9.28879
9.27193
9.24797
9.22144
9.19131
9.15658
9.11917
9.07724
9.03261
8.98513
8.93415
8.87725
8.81311
8.74108
8.66042
8.57197
8.4784
8.37824
8.26678
8.14406
8.0101
7.87042
7.71924
7.56949
7.40197
7.22916
7.03991
6.83751
6.63209
6.41149
6.19837
5.96601
5.74257
1
1
1
1
1
1
1
1
1
1
1
1
1
1
1
1
1
1
1
1
1
1
1
1
1
1
1
1
1
1
1
1
1
1
1
1
1
1
1
1
1
1
1
1
1
1
1
1
1
1
1
1
1
1
1
1
1
1.00901
3.47317
8.68039
9.16538
9.15488
9.16428
9.16048
9.1492
9.13062
9.10884
9.08374
9.05301
9.01819
8.97684
8.93146
8.88092
8.82615
8.76618
8.69973
8.62636
8.54517
8.45872
8.36759
8.26789
8.15869
8.04022
7.9095
7.77499
7.63237
7.48869
7.32749
7.16189
6.98239
6.79624
6.60427
6.40709
6.21249
6.00398
5.79982
1
1
1
1
1
1
1
1
1
1
1
1
1
1
1
1
1
1
1
1
1
1
1
1
1
1
1
1
1
1
1
1
1
1
1
1
1
1
1
1
1
1
1
1
1
1
1
1
1
1
1
1
1
1
1
1
1
1.00001
1.16054
5.14411
8.95505
9.10123
9.09843
9.09962
9.08395
9.05984
9.03221
9.00194
8.96799
8.93075
8.88829
8.84108
8.78743
8.72907
8.66456
8.59493
8.51974
8.43896
8.35421
8.26371
8.16664
8.0603
7.94525
7.82023
7.69208
7.5581
7.41912
7.26507
7.10647
6.93527
6.76367
6.58467
6.40647
6.22519
6.0365
5.84593
1
1
1
1
1
1
1
1
1
1
1
1
1
1
1
1
1
1
1
1
1
1
1
1
1
1
1
1
1
1
1
1
1
1
1
1
1
1
1
1
1
1
1
1
1
1
1
1
1
1
1
1
1
1
1
1
1
1
1.00089
1.46025
6.51268
9.03918
9.08546
9.05604
9.02334
8.98941
8.95173
8.91586
8.87751
8.83784
8.79428
8.74563
8.69137
8.63154
8.56587
8.49543
8.41985
8.33952
8.25524
8.16622
8.07027
7.96702
7.85724
7.74025
7.61826
7.49099
7.35693
7.2116
7.06022
6.89965
6.74063
6.57336
6.41047
6.23978
6.06553
5.88528
1
1
1
1
1
1
1
1
1
1
1
1
1
1
1
1
1
1
1
1
1
1
1
1
1
1
1
1
1
1
1
1
1
1
1
1
1
1
1
1
1
1
1
1
1
1
1
1
1
1
1
1
1
1
1
1
1
1
1
1.00629
2.14126
7.75245
9.0494
8.97117
8.94082
8.89483
8.85414
8.81746
8.781
8.74346
8.70189
8.6554
8.60335
8.54515
8.4811
8.41104
8.33553
8.25498
8.17029
8.08116
7.98631
7.88462
7.77915
7.66937
7.55257
7.43046
7.30106
7.16452
7.0214
6.87359
6.72469
6.56912
6.41614
6.25407
6.09008
5.9197
1
1
1
1
1
1
1
1
1
1
1
1
1
1
1
1
1
1
1
1
1
1
1
1
1
1
1
1
1
1
1
1
1
1
1
1
1
1
1
1
1
1
1
1
1
1
1
1
1
1
1
1
1
1
1
1
1
1
1
1.00001
1.03558
3.61952
8.46518
8.85841
8.7896
8.76288
8.73649
8.71074
8.67947
8.64644
8.60716
8.56327
8.51341
8.4579
8.39643
8.32881
8.25532
8.17606
8.09186
8.00297
7.90939
7.81035
7.70773
7.60247
7.49084
7.37393
7.25001
7.12207
6.98758
6.85092
6.71047
6.56543
6.41933
6.26624
6.11089
5.95023
1
1
1
1
1
1
1
1
1
1
1
1
1
1
1
1
1
1
1
1
1
1
1
1
1
1
1
1
1
1
1
1
1
1
1
1
1
1
1
1
1
1
1
1
1
1
1
1
1
1
1
1
1
1
1
1
1
1
1
1
1.00009
1.17528
4.66825
8.54935
8.69176
8.67506
8.67102
8.65079
8.62154
8.58454
8.54196
8.49463
8.44226
8.38599
8.32458
8.25849
8.18677
8.10943
8.02654
7.93858
7.84615
7.74931
7.64889
7.54583
7.43843
7.32491
7.2056
7.08413
6.9575
6.82922
6.69588
6.55973
6.41977
6.27503
6.12728
5.97658
1
1
1
1
1
1
1
1
1
1
1
1
1
1
1
1
1
1
1
1
1
1
1
1
1
1
1
1
1
1
1
1
1
1
1
1
1
1
1
1
1
1
1
1
1
1
1
1
1
1
1
1
1
1
1
1
1
1
1
1
1
1.00115
1.35691
5.3065
8.51229
8.63601
8.62683
8.60445
8.57011
8.53065
8.48484
8.43415
8.37874
8.32004
8.25738
8.19101
8.12001
8.0444
7.96376
7.87827
7.7884
7.69438
7.59637
7.4952
7.39113
7.28125
7.16678
7.04967
6.92947
6.80716
6.68028
6.55087
6.4169
6.28017
6.14039
5.99985
1
1
1
1
1
1
1
1
1
1
1
1
1
1
1
1
1
1
1
1
1
1
1
1
1
1
1
1
1
1
1
1
1
1
1
1
1
1
1
1
1
1
1
1
1
1
1
1
1
1
1
1
1
1
1
1
1
1
1
1
1
1
1.00403
1.53115
5.8341
8.49187
8.58901
8.5563
8.51809
8.47557
8.42784
8.37558
8.32013
8.26116
8.19816
8.13124
8.06027
7.98546
7.90661
7.8236
7.73676
7.6461
7.55132
7.4529
7.3517
7.24559
7.13433
7.01958
6.90389
6.78659
6.66594
6.54185
6.41378
6.28361
6.15124
6.01881
1
1
1
1
1
1
1
1
1
1
1
1
1
1
1
1
1
1
1
1
1
1
1
1
1
1
1
1
1
1
1
1
1
1
1
1
1
1
1
1
1
1
1
1
1
1
1
1
1
1
1
1
1
1
1
1
1
1
1
1
1
1
1.00001
1.00837
1.71646
6.27443
8.44881
8.50804
8.46976
8.4241
8.37274
8.32059
8.26504
8.20619
8.14282
8.07605
8.00601
7.93242
7.85503
7.77378
7.68926
7.60141
7.50956
7.41371
7.3147
7.21171
7.10388
6.99263
6.88132
6.76897
6.65317
6.53247
6.409
6.28504
6.16071
6.03503
1
1
1
1
1
1
1
1
1
1
1
1
1
1
1
1
1
1
1
1
1
1
1
1
1
1
1
1
1
1
1
1
1
1
1
1
1
1
1
1
1
1
1
1
1
1
1
1
1
1
1
1
1
1
1
1
1
1
1
1
1
1
1
1.00002
1.01452
1.90995
6.59007
8.39038
8.41633
8.37543
8.32689
8.27459
8.21829
8.15647
8.09207
8.02561
7.95638
7.88363
7.80679
7.72667
7.64382
7.55814
7.46923
7.37646
7.27981
7.17991
7.07666
6.96982
6.86155
6.75261
6.64139
6.52522
6.40611
6.28861
6.1715
6.05169
1
1
1
1
1
1
1
1
1
1
1
1
1
1
1
1
1
1
1
1
1
1
1
1
1
1
1
1
1
1
1
1
1
1
1
1
1
1
1
1
1
1
1
1
1
1
1
1
1
1
1
1
1
1
1
1
1
1
1
1
1
1
1
1
1.00003
1.02272
2.0859
6.78776
8.32229
8.32988
8.28115
8.23016
8.17224
8.11234
8.04936
7.98346
7.91348
7.83899
7.7616
7.68248
7.60129
7.51728
7.43025
7.33987
7.24543
7.14743
7.04786
6.94674
6.84303
6.73725
6.63029
6.51985
6.40533
6.2919
6.18159
6.06769
1
1
1
1
1
1
1
1
1
1
1
1
1
1
1
1
1
1
1
1
1
1
1
1
1
1
1
1
1
1
1
1
1
1
1
1
1
1
1
1
1
1
1
1
1
1
1
1
1
1
1
1
1
1
1
1
1
1
1
1
1
1
1
1
1
1.00007
1.03191
2.22237
6.88551
8.24152
8.24244
8.18631
8.13092
8.06886
8.00656
7.94018
7.87011
7.79732
7.72259
7.64531
7.56529
7.48202
7.39537
7.30617
7.21444
7.11931
7.02211
6.92534
6.82717
6.72422
6.61873
6.51373
6.40636
6.29813
6.19157
6.08327
1
1
1
1
1
1
1
1
1
1
1
1
1
1
1
1
1
1
1
1
1
1
1
1
1
1
1
1
1
1
1
1
1
1
1
1
1
1
1
1
1
1
1
1
1
1
1
1
1
1
1
1
1
1
1
1
1
1
1
1
1
1
1
1
1
1
1.00011
1.04024
2.31049
6.88385
8.15469
8.14951
8.08729
8.0306
7.9657
7.90039
7.83102
7.75969
7.68596
7.60871
7.5292
7.44788
7.36338
7.27508
7.18516
7.0938
6.99939
6.90471
6.81055
6.71267
6.61001
6.50679
6.40684
6.30556
6.20148
6.09851
1
1
1
1
1
1
1
1
1
1
1
1
1
1
1
1
1
1
1
1
1
1
1
1
1
1
1
1
1
1
1
1
1
1
1
1
1
1
1
1
1
1
1
1
1
1
1
1
1
1
1
1
1
1
1
1
1
1
1
1
1
1
1
1
1
1
1
1.00015
1.04624
2.34056
6.78073
8.06225
8.0558
7.99086
7.93064
7.86436
7.79555
7.72439
7.65219
7.57685
7.49836
7.41643
7.3326
7.24603
7.15822
7.07058
6.98099
6.88818
6.79382
6.70059
6.60429
6.50557
6.41057
6.3152
6.2171
6.11345
1
1
1
1
1
1
1
1
1
1
1
1
1
1
1
1
1
1
1
1
1
1
1
1
1
1
1
1
1
1
1
1
1
1
1
1
1
1
1
1
1
1
1
1
1
1
1
1
1
1
1
1
1
1
1
1
1
1
1
1
1
1
1
1
1
1
1
1
1.00019
1.04859
2.2989
6.62557
7.93353
7.94099
7.87433
7.81774
7.75707
7.69238
7.62203
7.54742
7.46976
7.38806
7.30552
7.2217
7.13527
7.04657
6.95833
6.87008
6.78028
6.69144
6.60276
6.5109
6.4169
6.32475
6.23062
6.13169
1
1
1
1
1
1
1
1
1
1
1
1
1
1
1
1
1
1
1
1
1
1
1
1
1
1
1
1
1
1
1
1
1
1
1
1
1
1
1
1
1
1
1
1
1
1
1
1
1
1
1
1
1
1
1
1
1
1
1
1
1
1
1
1
1
1
1
1
1
1.0002
1.04588
2.23226
6.25491
7.87668
7.86482
7.78748
7.72235
7.65174
7.58023
7.50998
7.43739
7.35916
7.27793
7.19578
7.11372
7.03084
6.94777
6.86427
6.77798
6.68888
6.60049
6.51333
6.42597
6.33804
6.24926
6.15701
1
1
1
1
1
1
1
1
1
1
1
1
1
1
1
1
1
1
1
1
1
1
1
1
1
1
1
1
1
1
1
1
1
1
1
1
1
1
1
1
1
1
1
1
1
1
1
1
1
1
1
1
1
1
1
1
1
1
1
1
1
1
1
1
1
1
1
1
1
1
1.00019
1.04171
2.05423
5.89499
7.695
7.76485
7.69247
7.62792
7.55303
7.47653
7.39953
7.32339
7.24691
7.17141
7.09594
7.0193
6.94073
6.86086
6.78028
6.69666
6.61178
6.52684
6.43951
6.35145
6.26123
6.17233
1
1
1
1
1
1
1
1
1
1
1
1
1
1
1
1
1
1
1
1
1
1
1
1
1
1
1
1
1
1
1
1
1
1
1
1
1
1
1
1
1
1
1
1
1
1
1
1
1
1
1
1
1
1
1
1
1
1
1
1
1
1
1
1
1
1
1
1
1
1
1
1.00017
1.03142
1.87651
5.34542
7.52112
7.66619
7.58114
7.51333
7.44447
7.37563
7.30593
7.23356
7.15906
7.08308
7.00789
6.93397
6.86093
6.7862
6.70773
6.62518
6.53925
6.45284
6.36521
6.27704
6.19123
1
1
1
1
1
1
1
1
1
1
1
1
1
1
1
1
1
1
1
1
1
1
1
1
1
1
1
1
1
1
1
1
1
1
1
1
1
1
1
1
1
1
1
1
1
1
1
1
1
1
1
1
1
1
1
1
1
1
1
1
1
1
1
1
1
1
1
1
1
1
1
1
1.00011
1.02237
1.66959
4.62814
7.33069
7.56864
7.48634
7.42577
7.36085
7.29544
7.22992
7.16151
7.08897
7.01455
6.94008
6.86542
6.78977
6.71256
6.63238
6.54972
6.46595
6.38106
6.2957
6.20976
1
1
1
1
1
1
1
1
1
1
1
1
1
1
1
1
1
1
1
1
1
1
1
1
1
1
1
1
1
1
1
1
1
1
1
1
1
1
1
1
1
1
1
1
1
1
1
1
1
1
1
1
1
1
1
1
1
1
1
1
1
1
1
1
1
1
1
1
1
1
1
1
1
1.00007
1.01399
1.44982
3.90519
7.01772
7.46897
7.41812
7.35939
7.29152
7.22626
7.1575
7.08598
7.01396
6.94258
6.87026
6.79507
6.71662
6.63547
6.55322
6.47198
6.39085
6.30912
6.22729
1
1
1
1
1
1
1
1
1
1
1
1
1
1
1
1
1
1
1
1
1
1
1
1
1
1
1
1
1
1
1
1
1
1
1
1
1
1
1
1
1
1
1
1
1
1
1
1
1
1
1
1
1
1
1
1
1
1
1
1
1
1
1
1
1
1
1
1
1
1
1
1
1
1
1.00004
1.00721
1.27416
3.22155
6.57263
7.36064
7.36262
7.27952
7.21811
7.15131
7.0823
7.01236
6.94218
6.87076
6.79649
6.71879
6.63923
6.56077
6.48266
6.40414
6.32537
6.24327
1
1
1
1
1
1
1
1
1
1
1
1
1
1
1
1
1
1
1
1
1
1
1
1
1
1
1
1
1
1
1
1
1
1
1
1
1
1
1
1
1
1
1
1
1
1
1
1
1
1
1
1
1
1
1
1
1
1
1
1
1
1
1
1
1
1
1
1
1
1
1
1
1
1
1
1.00001
1.00322
1.15341
2.61191
5.9187
7.21815
7.32818
7.21101
7.14741
7.08272
7.01441
6.94315
6.87183
6.7981
6.72179
6.6443
6.56746
6.49257
6.41843
6.34128
6.25998
1
1
1
1
1
1
1
1
1
1
1
1
1
1
1
1
1
1
1
1
1
1
1
1
1
1
1
1
1
1
1
1
1
1
1
1
1
1
1
1
1
1
1
1
1
1
1
1
1
1
1
1
1
1
1
1
1
1
1
1
1
1
1
1
1
1
1
1
1
1
1
1
1
1
1
1
1
1.0013
1.07823
2.07988
5.0633
7.03036
7.21136
7.14535
7.07794
7.00799
6.93986
6.86686
6.7943
6.7225
6.64888
6.57676
6.50527
6.43111
6.35604
6.2776
1
1
1
1
1
1
1
1
1
1
1
1
1
1
1
1
1
1
1
1
1
1
1
1
1
1
1
1
1
1
1
1
1
1
1
1
1
1
1
1
1
1
1
1
1
1
1
1
1
1
1
1
1
1
1
1
1
1
1
1
1
1
1
1
1
1
1
1
1
1
1
1
1
1
1
1
1
1
1.00046
1.03557
1.65046
4.09102
6.68827
7.11801
7.09066
7.00324
6.93342
6.86923
6.80301
6.73231
6.66285
6.59303
6.52131
6.45095
6.37799
6.29883
1
1
1
1
1
1
1
1
1
1
1
1
1
1
1
1
1
1
1
1
1
1
1
1
1
1
1
1
1
1
1
1
1
1
1
1
1
1
1
1
1
1
1
1
1
1
1
1
1
1
1
1
1
1
1
1
1
1
1
1
1
1
1
1
1
1
1
1
1
1
1
1
1
1
1
1
1
1
1
1.00014
1.01418
1.34141
3.15608
6.12586
6.98567
7.04431
6.95513
6.88511
6.81638
6.74955
6.68093
6.60901
6.53924
6.46864
6.39225
6.32148
1
1
1
1
1
1
1
1
1
1
1
1
1
1
1
1
1
1
1
1
1
1
1
1
1
1
1
1
1
1
1
1
1
1
1
1
1
1
1
1
1
1
1
1
1
1
1
1
1
1
1
1
1
1
1
1
1
1
1
1
1
1
1
1
1
1
1
1
1
1
1
1
1
1
1
1
1
1
1
1
1.00004
1.00484
1.1539
2.38971
5.26133
6.77657
6.96116
6.90327
6.82777
6.76683
6.70164
6.62921
6.55314
6.47444
6.40396
6.33776
1
1
1
1
1
1
1
1
1
1
1
1
1
1
1
1
1
1
1
1
1
1
1
1
1
1
1
1
1
1
1
1
1
1
1
1
1
1
1
1
1
1
1
1
1
1
1
1
1
1
1
1
1
1
1
1
1
1
1
1
1
1
1
1
1
1
1
1
1
1
1
1
1
1
1
1
1
1
1
1
1
1.00001
1.00138
1.06114
1.80259
4.14624
6.47115
6.85905
6.86567
6.77986
6.70794
6.64776
6.57857
6.50502
6.43155
6.34965
1
1
1
1
1
1
1
1
1
1
1
1
1
1
1
1
1
1
1
1
1
1
1
1
1
1
1
1
1
1
1
1
1
1
1
1
1
1
1
1
1
1
1
1
1
1
1
1
1
1
1
1
1
1
1
1
1
1
1
1
1
1
1
1
1
1
1
1
1
1
1
1
1
1
1
1
1
1
1
1
1
1
1
1.00033
1.02128
1.38313
3.09301
5.85899
6.68524
6.77071
6.71378
6.64454
6.58914
6.53015
6.46635
6.39369
1
1
1
1
1
1
1
1
1
1
1
1
1
1
1
1
1
1
1
1
1
1
1
1
1
1
1
1
1
1
1
1
1
1
1
1
1
1
1
1
1
1
1
1
1
1
1
1
1
1
1
1
1
1
1
1
1
1
1
1
1
1
1
1
1
1
1
1
1
1
1
1
1
1
1
1
1
1
1
1
1
1
1
1
1.00007
1.00615
1.15194
2.2713
4.81358
6.513
6.70659
6.67533
6.59503
6.51562
6.46251
6.41994
1
1
1
1
1
1
1
1
1
1
1
1
1
1
1
1
1
1
1
1
1
1
1
1
1
1
1
1
1
1
1
1
1
1
1
1
1
1
1
1
1
1
1
1
1
1
1
1
1
1
1
1
1
1
1
1
1
1
1
1
1
1
1
1
1
1
1
1
1
1
1
1
1
1
1
1
1
1
1
1
1
1
1
1
1
1.00001
1.00139
1.05297
1.65938
3.61406
5.96804
6.6651
6.65696
6.57374
6.48504
6.39908
1
1
1
1
1
1
1
1
1
1
1
1
1
1
1
1
1
1
1
1
1
1
1
1
1
1
1
1
1
1
1
1
1
1
1
1
1
1
1
1
1
1
1
1
1
1
1
1
1
1
1
1
1
1
1
1
1
1
1
1
1
1
1
1
1
1
1
1
1
1
1
1
1
1
1
1
1
1
1
1
1
1
1
1
1
1
1
1.00027
1.01574
1.26307
2.62355
5.11157
6.33922
6.58491
6.54191
6.46411
1
1
1
1
1
1
1
1
1
1
1
1
1
1
1
1
1
1
1
1
1
1
1
1
1
1
1
1
1
1
1
1
1
1
1
1
1
1
1
1
1
1
1
1
1
1
1
1
1
1
1
1
1
1
1
1
1
1
1
1
1
1
1
1
1
1
1
1
1
1
1
1
1
1
1
1
1
1
1
1
1
1
1
1
1
1
1
1
1.00005
1.00343
1.09297
1.85413
3.91609
5.96433
6.44323
6.47737
1
1
1
1
1
1
1
1
1
1
1
1
1
1
1
1
1
1
1
1
1
1
1
1
1
1
1
1
1
1
1
1
1
1
1
1
1
1
1
1
1
1
1
1
1
1
1
1
1
1
1
1
1
1
1
1
1
1
1
1
1
1
1
1
1
1
1
1
1
1
1
1
1
1
1
1
1
1
1
1
1
1
1
1
1
1
1
1
1
1.00001
1.00068
1.02607
1.35545
2.77243
5.09073
6.32076
1
1
1
1
1
1
1
1
1
1
1
1
1
1
1
1
1
1
1
1
1
1
1
1
1
1
1
1
1
1
1
1
1
1
1
1
1
1
1
1
1
1
1
1
1
1
1
1
1
1
1
1
1
1
1
1
1
1
1
1
1
1
1
1
1
1
1
1
1
1
1
1
1
1
1
1
1
1
1
1
1
1
1
1
1
1
1
1
1
1
1
1.0001
1.00556
1.11663
1.91652
4.0587
1
1
1
1
1
1
1
1
1
1
1
1
1
1
1
1
1
1
1
1
1
1
1
1
1
1
1
1
1
1
1
1
1
1
1
1
1
1
1
1
1
1
1
1
1
1
1
1
1
1
1
1
1
1
1
1
1
1
1
1
1
1
1
1
1
1
1
1
1
1
1
1
1
1
1
1
1
1
1
1
1
1
1
1
1
1
1
1
1
1
1
1
1.00001
1.00098
1.03091
1.40645
1
1
1
1
1
1
1
1
1
1
1
1
1
1
1
1
1
1
1
1
1
1
1
1
1
1
1
1
1
1
1
1
1
1
1
1
1
1
1
1
1
1
1
1
1
1
1
1
1
1
1
1
1
1
1
1
1
1
1
1
1
1
1
1
1
1
1
1
1
1
1
1
1
1
1
1
1
1
1
1
1
1
1
1
1
1
1
1
1
1
1
1
1
1
1.00013
1.00686
1
1
1
1
1
1
1
1
1
1
1
1
1
1
1
1
1
1
1
1
1
1
1
1
1
1
1
1
1
1
1
1
1
1
1
1
1
1
1
1
1
1
1
1
1
1
1
1
1
1
1
1
1
1
1
1
1
1
1
1
1
1
1
1
1
1
1
1
1
1
1
1
1
1
1
1
1
1
1
1
1
1
1
1
1
1
1
1
1
1
1
1
1
1
1
1.00001
1
1
1
1
1
1
1
1
1
1
1
1
1
1
1
1
1
1
1
1
1
1
1
1
1
1
1
1
1
1
1
1
1
1
1
1
1
1
1
1
1
1
1
1
1
1
1
1
1
1
1
1
1
1
1
1
1
1
1
1
1
1
1
1
1
1
1
1
1
1
1
1
1
1
1
1
1
1
1
1
1
1
1
1
1
1
1
1
1
1
1
1
1
1
1
1
1
1
1
1
1
1
1
1
1
1
1
1
1
1
1
1
1
1
1
1
1
1
1
1
1
1
1
1
1
1
1
1
1
1
1
1
1
1
1
1
1
1
1
1
1
1
1
1
1
1
1
1
1
1
1
1
1
1
1
1
1
1
1
1
1
1
1
1
1
1
1
1
1
1
1
1
1
1
1
1
1
1
1
1
1
1
1
1
1
1
1
1
1
1
1
1
1
1
1
1
1
1
1
1
1
1
1
1
1
1
1
1
1
1
1
1
1
1
1
1
1
1
1
1
1
1
1
1
1
1
1
1
1
1
1
1
1
1
1
1
1
1
1
1
1
1
1
1
1
1
1
1
1
1
1
1
1
1
1
1
1
1
1
1
1
1
1
1
1
1
1
1
1
1
1
1
1
1
1
1
1
1
1
1
1
1
1
1
1
1
1
1
1
1
1
1
1
1
1
1
1
1
1
1
1
1
1
1
1
1
1
1
1
1
1
1
1
1
1
1
1
1
1
1
1
1
1
1
1
1
1
1
1
1
1
1
1
1
1
1
1
1
1
1
1
1
1
1
1
1
1
1
1
1
1
1
1
1
1
1
1
1
1
1
1
1
1
1
1
1
1
1
1
1
1
1
1
1
1
1
1
1
1
1
1
1
1
1
1
1
1
1
1
1
1
1
1
1
1
1
1
1
1
1
1
1
1
1
1
1
1
1
1
1
1
1
1
1
1
1
1
1
1
1
1
1
1
1
1
1
1
1
1
1
1
1
1
1
1
1
1
1
1
1
1
1
1
1
1
1
1
1
1
1
1
1
1
1
1
1
1
1
1
1
1
1
1
1
1
1
1
1
1
1
1
1
1
1
1
1
1
1
1
1
1
1
1
1
1
1
1
1
1
1
1
1
1
1
1
1
1
1
1
1
1
1
1
1
1
1
1
1
1
1
1
1
1
1
1
1
1
1
1
1
1
1
1
1
1
1
1
1
1
1
1
1
1
1
1
1
1
1
1
1
1
1
1
1
1
1
1
1
1
1
1
1
1
1
1
1
1
1
1
1
1
1
1
1
1
1
1
1
1
1
1
1
1
1
1
1
1
1
1
1
1
1
1
1
1
1
1
1
1
1
1
1
1
1
1
1
1
1
1
1
1
1
1
1
1
1
1
1
1
1
1
1
1
1
1
1
1
1
1
1
1
1
1
1
1
1
1
1
1
1
1
1
1
1
1
1
1
1
1
1
1
1
1
1
1
1
1
1
1
1
1
1
1
1
1
1
1
1
1
1
1
1
1
1
1
1
1
1
1
1
1
1
1
1
1
1
1
1
1
1
1
1
1
1
1
1
1
1
1
1
1
1
1
1
1
1
1
1
1
1
1
1
1
1
1
1
1
1
1
1
1
1
1
1
1
1
1
1
1
1
1
1
1
1
1
1
1
1
1
1
1
1
1
1
1
1
1
1
1
1
1
1
1
1
1
1
1
1
1
1
1
1
1
1
1
1
1
1
1
1
1
1
1
1
1
1
1
1
1
1
1
1
1
1
1
1
1
1
1
1
1
1
1
1
1
1
1
1
1
1
1
1
1
1
1
1
1
1
1
1
1
1
1
1
1
1
1
1
1
1
1
1
1
1
1
1
1
1
1
1
1
1
1
1
1
1
1
1
1
1
1
1
1
1
1
1
1
1
1
1
1
1
1
1
1
1
1
1
1
1
1
1
1
1
1
1
1
1
1
1
1
1
1
1
1
1
1
1
1
1
1
1
1
1
1
1
1
1
1
1
1
1
1
1
1
1
1
1
1
1
1
1
1
1
1
1
1
1
1
1
1
1
1
1
1
1
1
1
1
1
1
1
1
1
1
1
1
1
1
1
1
1
1
1
1
1
1
1
1
1
1
1
1
1
1
1
1
1
1
1
1
1
1
1
1
1
1
1
1
1
1
1
1
1
1
1
1
1
1
1
1
1
1
1
1
1
1
1
1
1
1
1
1
1
1
1
1
1
1
1
1
1
1
1
1
1
1
1
1
1
1
1
1
1
1
1
1
1
1
1
1
1
1
1
1
1
1
1
1
1
1
1
1
1
1
1
1
1
1
1
1
1
1
1
1
1
1
1
1
1
1
1
1
1
1
1
1
1
1
1
1
1
1
1
1
1
1
1
1
1
1
1
1
1
1
1
1
1
1
1
1
1
1
1
1
1
1
1
1
1
1
1
1
1
1
1
1
1
1
1
1
1
1
1
1
1
1
1
1
1
1
1
1
1
1
1
1
1
1
1
1
1
1
1
1
1
1
1
1
1
1
1
1
1
1
1
1
1
1
1
1
1
1
1
1
1
1
1
1
1
1
1
1
1
1
1
1
1
1
1
1
1
1
1
1
1
1
1
1
1
1
1
1
1
1
1
1
1
1
1
1
1
1
1
1
1
1
1
1
1
1
1
1
1
1
1
1
1
1
1
1
1
1
1
1
1
1
1
1
1
1
1
1
1
1
1
1
1
1
1
1
1
1
1
1
1
1
1
1
1
1
1
1
1
1
1
1
1
1
1
1
1
1
1
1
1
1
1
1
1
1
1
1
1
1
1
1
1
1
1
1
1
1
1
1
1
1
1
1
1
1
1
1
1
1
1
1
1
1
1
1
1
1
1
1
1
1
1
1
1
1
1
1
1
1
1
1
1
1
1
1
1
1
1
1
1
1
1
1
1
1
1
1
1
1
1
1
1
1
1
1
1
1
1
1
1
1
1
1
1
1
1
1
1
1
1
1
1
1
1
1
1
1
1
1
1
1
1
1
1
1
1
1
1
1
1
1
1
1
1
1
1
1
1
1
1
1
1
1
1
1
1
1
1
1
1
1
1
1
1
1
1
1
1
1
1
1
1
1
1
1
1
1
1
1
1
1
1
1
1
1
1
1
1
1
1
1
1
1
1
1
1
1
1
1
1
1
1
1
1
1
1
1
1
1
1
1
1
1
1
1
1
1
1
1
1
1
1
1
1
1
1
1
1
1
1
1
1
1
1
1
1
1
1
1
1
1
1
1
1
1.14766
0.145678
0.0301073
0.0526624
0.0830958
0.0838904
0.0927681
0.133451
0.18478
0.232607
0.294568
0.371009
0.441384
0.527405
0.609091
0.69488
0.78358
0.882607
0.949909
0.951559
0.946391
0.95963
0.976138
0.998873
1.01671
1.03745
1.06597
1.09096
1.11253
1.13538
1.15045
1.16657
1.18278
1.19651
1.21153
1.22759
1.2413
1.25204
1.25418
1.25511
1.25976
1.26677
1.27506
1.28126
1.28791
1.29749
1.30836
1.31807
1.32682
1.3346
1.34145
1.34601
1.34497
1.34127
1.33709
1.33464
1.33269
1.33427
1.33844
1.34621
3.21482
6.02998
6.26103
6.31578
6.35004
6.35518
6.35245
6.34064
6.31751
6.2901
6.26017
6.22908
6.19481
6.15436
6.10752
6.05814
6.01137
5.97086
5.93711
5.90741
5.87792
5.84514
5.80775
5.76661
5.72254
5.67494
5.62263
5.56736
5.5155
5.47277
5.4392
5.40993
5.37599
5.32901
5.27066
5.20847
5.14893
5.09841
5.06289
5.04404
5.03302
5.01663
4.98614
4.94134
4.8846
4.82299
4.76308
4.71397
4.67805
4.65432
4.63072
4.59868
4.56153
4.52321
4.48622
4.45309
4.42639
4.40421
4.3738
4.33111
4.28215
4.22435
4.16441
4.11666
4.07902
4.05067
4.03304
4.01568
3.99118
3.95737
3.92073
3.87789
3.82804
3.77929
3.73769
3.7028
3.67232
3.64427
3.61925
3.59487
3.56848
3.54
3.50609
3.469
3.43321
3.39907
3.3664
3.336
3.30894
3.28534
3.26461
3.24878
3.23617
3.22094
3.20038
3.17569
3.14353
3.10243
3.05973
3.02356
2.9963
2.97574
2.95787
2.94358
2.93239
2.91667
2.89606
2.87013
2.83868
2.80766
2.7806
2.75631
2.73349
2.71172
2.69082
2.67058
2.651
2.6329
2.61761
2.60459
2.5916
2.57688
2.55882
2.537
2.51077
2.47942
2.44421
2.40466
2.36632
2.34056
2.32729
2.30766