/*--------------------------------*- C++ -*----------------------------------*\
  =========                 |
  \\      /  F ield         | OpenFOAM: The Open Source CFD Toolbox
   \\    /   O peration     | Website:  https://openfoam.org
    \\  /    A nd           | Version:  7
     \\/     M anipulation  |
\*---------------------------------------------------------------------------*/
FoamFile
{
    version     2.0;
    format      ascii;
    class       volScalarField;
    location    "3.6";
    object      rho;
}
// * * * * * * * * * * * * * * * * * * * * * * * * * * * * * * * * * * * * * //

dimensions      [1 -3 0 0 0 0 0];

internalField   nonuniform List<scalar> 
19968
(
1.40001
1.40001
1.40001
1.40001
1.40001
1.40001
1.40001
1.40001
1.40001
1.40001
1.40001
1.40001
1.40001
1.40001
1.40001
1.40001
1.40001
1.40001
1.40001
1.40001
1.40001
1.40001
1.40001
1.40001
1.40001
1.40001
1.40001
1.40001
1.40001
1.40001
1.40001
1.40001
1.40001
1.40001
1.40001
1.40001
1.40001
1.40001
1.40001
1.40001
1.40001
1.40001
1.40001
1.40001
1.40001
1.40001
1.40001
1.40001
1.52694
4.29379
5.43275
5.44675
5.46688
5.48506
5.50243
5.52065
5.54086
5.56263
5.5847
5.6055
5.62447
5.64227
5.65952
5.67695
5.69542
5.71438
5.73234
5.74852
5.76311
5.77673
5.79034
5.80453
5.81867
5.83237
5.84605
5.86017
5.87467
5.88878
5.90148
5.91218
5.92126
5.92991
5.93946
5.95036
5.96182
5.97247
5.98126
5.98767
5.99167
5.9936
5.99436
5.99502
5.99685
6.00025
6.00459
6.00851
1.40001
1.40001
1.40001
1.40001
1.40001
1.40001
1.40001
1.40001
1.40001
1.40001
1.40001
1.40001
1.40001
1.40001
1.40001
1.40001
1.40001
1.40001
1.40001
1.40001
1.40001
1.40001
1.40001
1.40001
1.40001
1.40001
1.40001
1.40001
1.40001
1.40001
1.40001
1.40001
1.40001
1.40001
1.40001
1.40001
1.40001
1.40001
1.40001
1.40001
1.40001
1.40001
1.40001
1.40001
1.40001
1.40001
1.40001
1.40001
1.5155
4.26098
5.4289
5.44591
5.46563
5.48402
5.50138
5.51953
5.53964
5.56149
5.58383
5.60501
5.62406
5.64177
5.65883
5.67625
5.69465
5.71343
5.73123
5.74736
5.76193
5.77559
5.78919
5.80335
5.81742
5.83106
5.84462
5.8586
5.87291
5.88682
5.89933
5.9099
5.91897
5.92775
5.93749
5.94855
5.96005
5.97062
5.97921
5.9854
5.98921
5.99102
5.99177
5.99251
5.99446
5.99805
6.00253
6.00653
1.40001
1.40001
1.40001
1.40001
1.40001
1.40001
1.40001
1.40001
1.40001
1.40001
1.40001
1.40001
1.40001
1.40001
1.40001
1.40001
1.40001
1.40001
1.40001
1.40001
1.40001
1.40001
1.40001
1.40001
1.40001
1.40001
1.40001
1.40001
1.40001
1.40001
1.40001
1.40001
1.40001
1.40001
1.40001
1.40001
1.40001
1.40001
1.40001
1.40001
1.40001
1.40001
1.40001
1.40001
1.40001
1.40001
1.40001
1.40001
1.48481
4.20668
5.42894
5.44271
5.46228
5.48081
5.49832
5.51654
5.5367
5.55876
5.58162
5.60341
5.62267
5.64041
5.65727
5.67446
5.69261
5.71115
5.72878
5.74494
5.75953
5.77335
5.78696
5.80114
5.81512
5.82873
5.84216
5.85597
5.8701
5.88388
5.8963
5.90684
5.91597
5.92492
5.93489
5.94614
5.95765
5.96797
5.97611
5.98177
5.98513
5.98662
5.9872
5.98794
5.99006
5.99391
5.99869
6.00285
1.40001
1.40001
1.40001
1.40001
1.40001
1.40001
1.40001
1.40001
1.40001
1.40001
1.40001
1.40001
1.40001
1.40001
1.40001
1.40001
1.40001
1.40001
1.40001
1.40001
1.40001
1.40001
1.40001
1.40001
1.40001
1.40001
1.40001
1.40001
1.40001
1.40001
1.40001
1.40001
1.40001
1.40001
1.40001
1.40001
1.40001
1.40001
1.40001
1.40001
1.40001
1.40001
1.40001
1.40001
1.40001
1.40001
1.40001
1.40001
1.4237
4.11485
5.42312
5.43753
5.45662
5.475
5.49249
5.5108
5.53113
5.55358
5.5773
5.6
5.61986
5.63789
5.65453
5.67115
5.68868
5.70673
5.72404
5.74017
5.75474
5.76871
5.78234
5.7965
5.81035
5.82383
5.83703
5.85057
5.86445
5.8781
5.89055
5.90126
5.91068
5.92001
5.93041
5.942
5.95365
5.96379
5.9715
5.97662
5.97945
5.98049
5.9807
5.98122
5.98333
5.98723
5.99215
5.99631
1.40001
1.40001
1.40001
1.40001
1.40001
1.40001
1.40001
1.40001
1.40001
1.40001
1.40001
1.40001
1.40001
1.40001
1.40001
1.40001
1.40001
1.40001
1.40001
1.40001
1.40001
1.40001
1.40001
1.40001
1.40001
1.40001
1.40001
1.40001
1.40001
1.40001
1.40001
1.40001
1.40001
1.40001
1.40001
1.40001
1.40001
1.40001
1.40001
1.40001
1.40001
1.40001
1.40001
1.40001
1.40001
1.40001
1.40001
1.40001
1.40055
3.958
5.40674
5.42798
5.44719
5.46639
5.48461
5.5034
5.52392
5.54648
5.57052
5.59348
5.61359
5.63174
5.64824
5.66442
5.68147
5.69917
5.71625
5.73252
5.74728
5.7616
5.77544
5.78966
5.80341
5.8167
5.82951
5.84252
5.85589
5.86928
5.88177
5.89277
5.90257
5.91223
5.92283
5.93446
5.94599
5.95587
5.96321
5.968
5.9706
5.97153
5.97171
5.97237
5.97473
5.97877
5.9839
5.98801
1.40001
1.40001
1.40001
1.40001
1.40001
1.40001
1.40001
1.40001
1.40001
1.40001
1.40001
1.40001
1.40001
1.40001
1.40001
1.40001
1.40001
1.40001
1.40001
1.40001
1.40001
1.40001
1.40001
1.40001
1.40001
1.40001
1.40001
1.40001
1.40001
1.40001
1.40001
1.40001
1.40001
1.40001
1.40001
1.40001
1.40001
1.40001
1.40001
1.40001
1.40001
1.40001
1.40001
1.40001
1.40001
1.40001
1.40001
1.40001
1.40001
3.72244
5.38352
5.41856
5.43845
5.45838
5.47633
5.49456
5.51446
5.53685
5.56134
5.58501
5.60622
5.6255
5.64269
5.65883
5.67532
5.69221
5.70845
5.72436
5.73898
5.75338
5.76732
5.78141
5.795
5.80793
5.82013
5.83235
5.84501
5.85806
5.87069
5.88217
5.8925
5.90246
5.91301
5.92434
5.93548
5.94498
5.95201
5.95659
5.95914
5.96013
5.96043
5.96126
5.96377
5.96781
5.97292
5.9768
1.40001
1.40001
1.40001
1.40001
1.40001
1.40001
1.40001
1.40001
1.40001
1.40001
1.40001
1.40001
1.40001
1.40001
1.40001
1.40001
1.40001
1.40001
1.40001
1.40001
1.40001
1.40001
1.40001
1.40001
1.40001
1.40001
1.40001
1.40001
1.40001
1.40001
1.40001
1.40001
1.40001
1.40001
1.40001
1.40001
1.40001
1.40001
1.40001
1.40001
1.40001
1.40001
1.40001
1.40001
1.40001
1.40001
1.40001
1.40001
1.40001
3.409
5.34747
5.40977
5.43049
5.45154
5.4691
5.48638
5.50517
5.52709
5.5516
5.57578
5.59802
5.61845
5.63647
5.65267
5.66843
5.68414
5.69899
5.71399
5.72828
5.74267
5.75687
5.77092
5.78453
5.7971
5.80862
5.81991
5.83179
5.84452
5.85741
5.86947
5.88031
5.89033
5.90037
5.91087
5.92117
5.93005
5.93669
5.94109
5.94371
5.94497
5.94562
5.94674
5.9493
5.95307
5.95774
5.96106
1.40001
1.40001
1.40001
1.40001
1.40001
1.40001
1.40001
1.40001
1.40001
1.40001
1.40001
1.40001
1.40001
1.40001
1.40001
1.40001
1.40001
1.40001
1.40001
1.40001
1.40001
1.40001
1.40001
1.40001
1.40001
1.40001
1.40001
1.40001
1.40001
1.40001
1.40001
1.40001
1.40001
1.40001
1.40001
1.40001
1.40001
1.40001
1.40001
1.40001
1.40001
1.40001
1.40001
1.40001
1.40001
1.40001
1.40001
1.40001
1.40001
3.0142
5.27495
5.40655
5.42813
5.44976
5.46639
5.48205
5.49858
5.51853
5.54164
5.56533
5.58798
5.60934
5.62844
5.64506
5.66029
5.67468
5.68787
5.70142
5.71513
5.72929
5.74372
5.75757
5.77117
5.78325
5.79405
5.80437
5.81546
5.82788
5.84106
5.85378
5.8652
5.8753
5.88476
5.89424
5.90356
5.91176
5.91803
5.92229
5.92501
5.92657
5.92758
5.92888
5.93106
5.93383
5.93727
5.9394
1.40001
1.40001
1.40001
1.40001
1.40001
1.40001
1.40001
1.40001
1.40001
1.40001
1.40001
1.40001
1.40001
1.40001
1.40001
1.40001
1.40001
1.40001
1.40001
1.40001
1.40001
1.40001
1.40001
1.40001
1.40001
1.40001
1.40001
1.40001
1.40001
1.40001
1.40001
1.40001
1.40001
1.40001
1.40001
1.40001
1.40001
1.40001
1.40001
1.40001
1.40001
1.40001
1.40001
1.40001
1.40001
1.40001
1.40001
1.40001
1.40001
2.55598
5.13635
5.41413
5.4344
5.45507
5.47045
5.48461
5.49901
5.51616
5.5366
5.55848
5.58032
5.60158
5.62111
5.63785
5.65226
5.66508
5.67646
5.68802
5.70075
5.71418
5.72837
5.7417
5.75508
5.76666
5.7768
5.78613
5.79615
5.80771
5.82042
5.83306
5.84448
5.85423
5.86276
5.8709
5.87891
5.88626
5.89226
5.89673
5.90003
5.90251
5.90457
5.90664
5.90874
5.91048
5.91233
5.91299
1.40001
1.40001
1.40001
1.40001
1.40001
1.40001
1.40001
1.40001
1.40001
1.40001
1.40001
1.40001
1.40001
1.40001
1.40001
1.40001
1.40001
1.40001
1.40001
1.40001
1.40001
1.40001
1.40001
1.40001
1.40001
1.40001
1.40001
1.40001
1.40001
1.40001
1.40001
1.40001
1.40001
1.40001
1.40001
1.40001
1.40001
1.40001
1.40001
1.40001
1.40001
1.40001
1.40001
1.40001
1.40001
1.40001
1.40001
1.40001
1.40001
2.06096
4.89016
5.4269
5.43589
5.45402
5.46743
5.48111
5.49477
5.51037
5.52896
5.54948
5.57048
5.59116
5.61061
5.62747
5.64158
5.65373
5.66428
5.67433
5.68604
5.6985
5.71217
5.72511
5.73818
5.7498
5.75988
5.76858
5.7774
5.78755
5.79907
5.81094
5.82189
5.83105
5.83845
5.84489
5.85109
5.85702
5.86219
5.86631
5.86961
5.87236
5.87477
5.87694
5.87818
5.87811
5.8777
5.87644
1.40001
1.40001
1.40001
1.40001
1.40001
1.40001
1.40001
1.40001
1.40001
1.40001
1.40001
1.40001
1.40001
1.40001
1.40001
1.40001
1.40001
1.40001
1.40001
1.40001
1.40001
1.40001
1.40001
1.40001
1.40001
1.40001
1.40001
1.40001
1.40001
1.40001
1.40001
1.40001
1.40001
1.40001
1.40001
1.40001
1.40001
1.40001
1.40001
1.40001
1.40001
1.40001
1.40001
1.40001
1.40001
1.40001
1.40001
1.40001
1.40001
1.60219
4.4493
5.44699
5.43951
5.45383
5.46587
5.47924
5.49221
5.50602
5.52166
5.53908
5.55749
5.57608
5.59418
5.61042
5.62411
5.63597
5.6464
5.6556
5.66593
5.67686
5.68899
5.7013
5.71375
5.72568
5.73604
5.74449
5.75206
5.76031
5.76991
5.78031
5.79031
5.79864
5.80477
5.80935
5.81344
5.81759
5.82174
5.82566
5.8294
5.833
5.83637
5.83914
5.84015
5.83894
5.83662
5.83414
1.40001
1.40001
1.40001
1.40001
1.40001
1.40001
1.40001
1.40001
1.40001
1.40001
1.40001
1.40001
1.40001
1.40001
1.40001
1.40001
1.40001
1.40001
1.40001
1.40001
1.40001
1.40001
1.40001
1.40001
1.40001
1.40001
1.40001
1.40001
1.40001
1.40001
1.40001
1.40001
1.40001
1.40001
1.40001
1.40001
1.40001
1.40001
1.40001
1.40001
1.40001
1.40001
1.40001
1.40001
1.40001
1.40001
1.40001
1.40001
1.40001
1.40399
3.74067
5.34896
5.38331
5.40592
5.42667
5.4448
5.46118
5.47701
5.49321
5.51046
5.52843
5.54638
5.56391
5.58024
5.59468
5.60764
5.61943
5.6296
5.63938
5.64939
5.6599
5.6717
5.68391
5.69631
5.70727
5.71592
5.72246
5.72858
5.73576
5.74416
5.75283
5.76029
5.76544
5.76851
5.77069
5.77297
5.77568
5.77872
5.78176
5.78441
5.78642
5.78696
5.78511
5.78148
5.77691
5.7735
1.40001
1.40001
1.40001
1.40001
1.40001
1.40001
1.40001
1.40001
1.40001
1.40001
1.40001
1.40001
1.40001
1.40001
1.40001
1.40001
1.40001
1.40001
1.40001
1.40001
1.40001
1.40001
1.40001
1.40001
1.40001
1.40001
1.40001
1.40001
1.40001
1.40001
1.40001
1.40001
1.40001
1.40001
1.40001
1.40001
1.40001
1.40001
1.40001
1.40001
1.40001
1.40001
1.40001
1.40001
1.40001
1.40001
1.40001
1.40001
1.40001
1.40001
2.8453
5.1532
5.36661
5.39138
5.41173
5.42887
5.44555
5.46195
5.47809
5.49387
5.50906
5.52353
5.53767
5.55155
5.56479
5.57722
5.58905
5.59965
5.60877
5.61762
5.626
5.63596
5.64716
5.65889
5.66962
5.67804
5.68361
5.68752
5.69183
5.69744
5.70384
5.70951
5.71291
5.71376
5.71307
5.71197
5.71132
5.71152
5.71235
5.71345
5.71415
5.71369
5.71142
5.70812
5.70412
5.70197
1.40001
1.40001
1.40001
1.40001
1.40001
1.40001
1.40001
1.40001
1.40001
1.40001
1.40001
1.40001
1.40001
1.40001
1.40001
1.40001
1.40001
1.40001
1.40001
1.40001
1.40001
1.40001
1.40001
1.40001
1.40001
1.40001
1.40001
1.40001
1.40001
1.40001
1.40001
1.40001
1.40001
1.40001
1.40001
1.40001
1.40001
1.40001
1.40001
1.40001
1.40001
1.40001
1.40001
1.40001
1.40001
1.40001
1.40001
1.40001
1.40001
1.40001
1.89438
4.72647
5.39348
5.38274
5.39926
5.41509
5.43247
5.44946
5.46577
5.48095
5.49453
5.50643
5.51732
5.52796
5.53862
5.5491
5.5593
5.56892
5.57704
5.58426
5.59058
5.59753
5.60629
5.61604
5.62534
5.63264
5.63695
5.63857
5.63942
5.64113
5.64396
5.64661
5.64792
5.64698
5.64382
5.63985
5.6364
5.63435
5.63308
5.63145
5.6275
5.6207
5.61057
5.59928
5.58827
5.57981
1.40001
1.40001
1.40001
1.40001
1.40001
1.40001
1.40001
1.40001
1.40001
1.40001
1.40001
1.40001
1.40001
1.40001
1.40001
1.40001
1.40001
1.40001
1.40001
1.40001
1.40001
1.40001
1.40001
1.40001
1.40001
1.40001
1.40001
1.40001
1.40001
1.40001
1.40001
1.40001
1.40001
1.40001
1.40001
1.40001
1.40001
1.40001
1.40001
1.40001
1.40001
1.40001
1.40001
1.40001
1.40001
1.40001
1.40001
1.40001
1.40001
1.40001
1.41691
3.58505
5.32773
5.3714
5.39158
5.40614
5.42036
5.43444
5.44858
5.46209
5.4739
5.48345
5.49128
5.49855
5.50623
5.51447
5.52296
5.5314
5.53871
5.54432
5.54855
5.55207
5.55694
5.56359
5.57059
5.57601
5.57864
5.57824
5.57558
5.57279
5.57066
5.56869
5.56623
5.56166
5.55421
5.5444
5.53339
5.52199
5.50945
5.49427
5.47558
5.45429
5.43485
5.41842
5.41086
5.40762
1.40001
1.40001
1.40001
1.40001
1.40001
1.40001
1.40001
1.40001
1.40001
1.40001
1.40001
1.40001
1.40001
1.40001
1.40001
1.40001
1.40001
1.40001
1.40001
1.40001
1.40001
1.40001
1.40001
1.40001
1.40001
1.40001
1.40001
1.40001
1.40001
1.40001
1.40001
1.40001
1.40001
1.40001
1.40001
1.40001
1.40001
1.40001
1.40001
1.40001
1.40001
1.40001
1.40001
1.40001
1.40001
1.40001
1.40001
1.40001
1.40001
1.40001
1.40001
2.19765
4.92133
5.37123
5.36956
5.38409
5.39761
5.4114
5.42452
5.43711
5.44821
5.45696
5.46346
5.46861
5.47357
5.47916
5.48568
5.4929
5.49924
5.50314
5.50452
5.50416
5.504
5.50577
5.50912
5.51159
5.51177
5.50884
5.50265
5.49453
5.48545
5.47653
5.46727
5.45631
5.44224
5.42478
5.40467
5.38279
5.35911
5.33312
5.30438
5.27357
5.23469
5.19148
5.13554
5.15557
1.40001
1.40001
1.40001
1.40001
1.40001
1.40001
1.40001
1.40001
1.40001
1.40001
1.40001
1.40001
1.40001
1.40001
1.40001
1.40001
1.40001
1.40001
1.40001
1.40001
1.40001
1.40001
1.40001
1.40001
1.40001
1.40001
1.40001
1.40001
1.40001
1.40001
1.40001
1.40001
1.40001
1.40001
1.40001
1.40001
1.40001
1.40001
1.40001
1.40001
1.40001
1.40001
1.40001
1.40001
1.40001
1.40001
1.40001
1.40001
1.40001
1.40001
1.4
1.44303
3.93256
5.34264
5.34211
5.35805
5.37124
5.38515
5.39779
5.41004
5.42116
5.42988
5.43577
5.4395
5.44233
5.44552
5.44992
5.45553
5.46073
5.46326
5.46186
5.45815
5.45318
5.44954
5.44865
5.44845
5.44591
5.44028
5.43085
5.4181
5.40297
5.38678
5.36973
5.35097
5.32884
5.30207
5.26999
5.23228
5.18671
5.13085
5.05651
4.95746
4.80811
4.58036
4.17633
3.28733
1.40001
1.40001
1.40001
1.40001
1.40001
1.40001
1.40001
1.40001
1.40001
1.40001
1.40001
1.40001
1.40001
1.40001
1.40001
1.40001
1.40001
1.40001
1.40001
1.40001
1.40001
1.40001
1.40001
1.40001
1.40001
1.40001
1.40001
1.40001
1.40001
1.40001
1.40001
1.40001
1.40001
1.40001
1.40001
1.40001
1.40001
1.40001
1.40001
1.40001
1.40001
1.40001
1.40001
1.40001
1.40001
1.40001
1.40001
1.40001
1.40001
1.40001
1.40001
1.39996
2.70679
5.06886
5.31318
5.32436
5.33959
5.35433
5.36789
5.38071
5.39238
5.4015
5.40733
5.41082
5.41336
5.41605
5.41961
5.42404
5.42827
5.42995
5.42669
5.42058
5.41192
5.40358
5.39849
5.39495
5.38944
5.38085
5.36845
5.35203
5.332
5.30923
5.28429
5.25707
5.22596
5.18951
5.14504
5.09193
5.02483
4.94238
4.83112
4.68802
4.48089
4.21455
3.67674
2.90769
1.40001
1.40001
1.40001
1.40001
1.40001
1.40001
1.40001
1.40001
1.40001
1.40001
1.40001
1.40001
1.40001
1.40001
1.40001
1.40001
1.40001
1.40001
1.40001
1.40001
1.40001
1.40001
1.40001
1.40001
1.40001
1.40001
1.40001
1.40001
1.40001
1.40001
1.40001
1.40001
1.40001
1.40001
1.40001
1.40001
1.40001
1.40001
1.40001
1.40001
1.40001
1.40001
1.40001
1.40001
1.40001
1.40001
1.40001
1.40001
1.40001
1.40001
1.40001
1.4
1.61337
4.46811
5.3659
5.33525
5.33519
5.34092
5.34868
5.35692
5.36476
5.37142
5.37586
5.37848
5.3805
5.38254
5.38497
5.38782
5.39085
5.39186
5.38795
5.3804
5.36909
5.3568
5.34715
5.33926
5.33019
5.3185
5.30303
5.28313
5.25854
5.22984
5.19709
5.16115
5.12032
5.07408
5.01809
4.95153
4.86794
4.76493
4.63332
4.46378
4.24605
3.92434
3.48105
2.97369
1.40001
1.40001
1.40001
1.40001
1.40001
1.40001
1.40001
1.40001
1.40001
1.40001
1.40001
1.40001
1.40001
1.40001
1.40001
1.40001
1.40001
1.40001
1.40001
1.40001
1.40001
1.40001
1.40001
1.40001
1.40001
1.40001
1.40001
1.40001
1.40001
1.40001
1.40001
1.40001
1.40001
1.40001
1.40001
1.40001
1.40001
1.40001
1.40001
1.40001
1.40001
1.40001
1.40001
1.40001
1.40001
1.40001
1.40001
1.40001
1.40001
1.40001
1.40001
1.4
1.40237
3.18031
5.18491
5.29214
5.30374
5.3125
5.3205
5.32809
5.33435
5.33928
5.34264
5.34362
5.34398
5.34459
5.34556
5.34691
5.34928
5.3503
5.34625
5.33745
5.32421
5.3093
5.29582
5.28366
5.27105
5.25618
5.23732
5.21379
5.18492
5.1511
5.11151
5.06743
5.01737
4.96158
4.89611
4.81896
4.7253
4.61093
4.47151
4.29445
4.07679
3.78905
3.44781
3.07013
1.40001
1.40001
1.40001
1.40001
1.40001
1.40001
1.40001
1.40001
1.40001
1.40001
1.40001
1.40001
1.40001
1.40001
1.40001
1.40001
1.40001
1.40001
1.40001
1.40001
1.40001
1.40001
1.40001
1.40001
1.40001
1.40001
1.40001
1.40001
1.40001
1.40001
1.40001
1.40001
1.40001
1.40001
1.40001
1.40001
1.40001
1.40001
1.40001
1.40001
1.40001
1.40001
1.40001
1.40001
1.40001
1.40001
1.40001
1.40001
1.40001
1.40001
1.40001
1.40001
1.4
1.81632
4.64207
5.3113
5.29763
5.29953
5.30581
5.31167
5.31443
5.31513
5.31565
5.31401
5.31163
5.30965
5.30825
5.30766
5.30819
5.30755
5.30268
5.29269
5.27829
5.26185
5.24541
5.22958
5.21304
5.19467
5.17247
5.14577
5.11344
5.07559
5.03095
4.98028
4.92284
4.8589
4.78615
4.70215
4.60358
4.48546
4.34809
4.17421
3.97757
3.73601
3.47058
3.1743
1.40001
1.40001
1.40001
1.40001
1.40001
1.40001
1.40001
1.40001
1.40001
1.40001
1.40001
1.40001
1.40001
1.40001
1.40001
1.40001
1.40001
1.40001
1.40001
1.40001
1.40001
1.40001
1.40001
1.40001
1.40001
1.40001
1.40001
1.40001
1.40001
1.40001
1.40001
1.40001
1.40001
1.40001
1.40001
1.40001
1.40001
1.40001
1.40001
1.40001
1.40001
1.40001
1.40001
1.40001
1.40001
1.40001
1.40001
1.40001
1.40001
1.40001
1.40001
1.40001
1.4
1.41081
3.26866
5.15828
5.26085
5.27194
5.28532
5.29212
5.29413
5.29381
5.29238
5.28841
5.28237
5.27686
5.27287
5.27049
5.26852
5.26479
5.2575
5.24537
5.22975
5.2121
5.19347
5.17463
5.15447
5.13257
5.10704
5.07728
5.04199
5.00115
4.95338
4.89866
4.83658
4.76724
4.68959
4.60201
4.50231
4.38588
4.25287
4.09498
3.92164
3.72107
3.50616
3.26291
1.40001
1.40001
1.40001
1.40001
1.40001
1.40001
1.40001
1.40001
1.40001
1.40001
1.40001
1.40001
1.40001
1.40001
1.40001
1.40001
1.40001
1.40001
1.40001
1.40001
1.40001
1.40001
1.40001
1.40001
1.40001
1.40001
1.40001
1.40001
1.40001
1.40001
1.40001
1.40001
1.40001
1.40001
1.40001
1.40001
1.40001
1.40001
1.40001
1.40001
1.40001
1.40001
1.40001
1.40001
1.40001
1.40001
1.40001
1.40001
1.40001
1.40001
1.40001
1.40001
1.40001
1.4
1.76955
4.57606
5.2794
5.27345
5.27653
5.2781
5.27767
5.27515
5.27065
5.26394
5.25535
5.24775
5.24209
5.23773
5.23225
5.22383
5.21226
5.19787
5.18146
5.16336
5.14367
5.12277
5.0997
5.07441
5.04564
5.01304
4.97548
4.93269
4.88324
4.82664
4.76246
4.69048
4.61036
4.52135
4.4228
4.31
4.18299
4.04286
3.88947
3.71907
3.53985
3.33747
1.40001
1.40001
1.40001
1.40001
1.40001
1.40001
1.40001
1.40001
1.40001
1.40001
1.40001
1.40001
1.40001
1.40001
1.40001
1.40001
1.40001
1.40001
1.40001
1.40001
1.40001
1.40001
1.40001
1.40001
1.40001
1.40001
1.40001
1.40001
1.40001
1.40001
1.40001
1.40001
1.40001
1.40001
1.40001
1.40001
1.40001
1.40001
1.40001
1.40001
1.40001
1.40001
1.40001
1.40001
1.40001
1.40001
1.40001
1.40001
1.40001
1.40001
1.40001
1.40001
1.40001
1.4
1.40782
3.07489
5.051
5.22934
5.23807
5.24212
5.24546
5.24663
5.24465
5.23985
5.23217
5.22354
5.21548
5.20751
5.19728
5.18429
5.16878
5.1527
5.1352
5.11577
5.09425
5.07094
5.04499
5.01656
4.98468
4.94927
4.90964
4.86551
4.81518
4.75836
4.69472
4.62331
4.5443
4.4564
4.36173
4.25336
4.13407
4.00784
3.87077
3.72171
3.56864
3.39594
1.40001
1.40001
1.40001
1.40001
1.40001
1.40001
1.40001
1.40001
1.40001
1.40001
1.40001
1.40001
1.40001
1.40001
1.40001
1.40001
1.40001
1.40001
1.40001
1.40001
1.40001
1.40001
1.40001
1.40001
1.40001
1.40001
1.40001
1.40001
1.40001
1.40001
1.40001
1.40001
1.40001
1.40001
1.40001
1.40001
1.40001
1.40001
1.40001
1.40001
1.40001
1.40001
1.40001
1.40001
1.40001
1.40001
1.40001
1.40001
1.40001
1.40001
1.40001
1.40001
1.40001
1.40001
1.4
1.58906
4.25847
5.24239
5.24076
5.2366
5.23595
5.23212
5.22711
5.22076
5.21222
5.20196
5.19145
5.17983
5.16553
5.14931
5.13082
5.1127
5.09382
5.07294
5.04962
5.02421
4.99595
4.96503
4.93048
4.8925
4.85118
4.80603
4.75469
4.6978
4.63548
4.56616
4.49071
4.40538
4.31565
4.21284
4.10167
3.98686
3.86193
3.72913
3.59415
3.44527
1.40001
1.40001
1.40001
1.40001
1.40001
1.40001
1.40001
1.40001
1.40001
1.40001
1.40001
1.40001
1.40001
1.40001
1.40001
1.40001
1.40001
1.40001
1.40001
1.40001
1.40001
1.40001
1.40001
1.40001
1.40001
1.40001
1.40001
1.40001
1.40001
1.40001
1.40001
1.40001
1.40001
1.40001
1.40001
1.40001
1.40001
1.40001
1.40001
1.40001
1.40001
1.40001
1.40001
1.40001
1.40001
1.40001
1.40001
1.40001
1.40001
1.40001
1.40001
1.40001
1.40001
1.40001
1.4
1.40181
2.55392
4.92768
5.19942
5.19701
5.20328
5.20172
5.19888
5.19314
5.18356
5.17157
5.15934
5.14523
5.1289
5.11161
5.0926
5.07354
5.05362
5.03143
5.00619
4.97861
4.94812
4.91497
4.87829
4.83847
4.79626
4.75034
4.69807
4.6412
4.58041
4.51369
4.44313
4.3622
4.2785
4.18337
4.08014
3.97521
3.85981
3.7411
3.61761
3.48829
1.40001
1.40001
1.40001
1.40001
1.40001
1.40001
1.40001
1.40001
1.40001
1.40001
1.40001
1.40001
1.40001
1.40001
1.40001
1.40001
1.40001
1.40001
1.40001
1.40001
1.40001
1.40001
1.40001
1.40001
1.40001
1.40001
1.40001
1.40001
1.40001
1.40001
1.40001
1.40001
1.40001
1.40001
1.40001
1.40001
1.40001
1.40001
1.40001
1.40001
1.40001
1.40001
1.40001
1.40001
1.40001
1.40001
1.40001
1.40001
1.40001
1.40001
1.40001
1.40001
1.40001
1.40001
1.40001
1.40001
1.48651
3.60308
5.10946
5.19218
5.19027
5.18476
5.18232
5.17637
5.1659
5.15189
5.13768
5.12189
5.1046
5.08653
5.06675
5.04593
5.02379
4.99965
4.97237
4.94232
4.90923
4.87351
4.83466
4.79342
4.75031
4.70315
4.65018
4.59327
4.53353
4.468
4.40103
4.32543
4.24742
4.16008
4.06479
3.96846
3.86184
3.75656
3.64267
3.52946
1.40001
1.40001
1.40001
1.40001
1.40001
1.40001
1.40001
1.40001
1.40001
1.40001
1.40001
1.40001
1.40001
1.40001
1.40001
1.40001
1.40001
1.40001
1.40001
1.40001
1.40001
1.40001
1.40001
1.40001
1.40001
1.40001
1.40001
1.40001
1.40001
1.40001
1.40001
1.40001
1.40001
1.40001
1.40001
1.40001
1.40001
1.40001
1.40001
1.40001
1.40001
1.40001
1.40001
1.40001
1.40001
1.40001
1.40001
1.40001
1.40001
1.40001
1.40001
1.40001
1.40001
1.40001
1.40001
1.40001
1.40035
1.75205
4.49923
5.22502
5.19357
5.17655
5.16354
5.15199
5.13928
5.12418
5.10881
5.09283
5.07545
5.05714
5.03675
5.01473
4.99094
4.96521
4.93679
4.90544
4.87116
4.83386
4.79395
4.75249
4.7088
4.6609
4.60867
4.55194
4.49282
4.42884
4.36523
4.29398
4.22014
4.13893
4.05157
3.96219
3.8655
3.77117
3.66758
3.56687
1.40001
1.40001
1.40001
1.40001
1.40001
1.40001
1.40001
1.40001
1.40001
1.40001
1.40001
1.40001
1.40001
1.40001
1.40001
1.40001
1.40001
1.40001
1.40001
1.40001
1.40001
1.40001
1.40001
1.40001
1.40001
1.40001
1.40001
1.40001
1.40001
1.40001
1.40001
1.40001
1.40001
1.40001
1.40001
1.40001
1.40001
1.40001
1.40001
1.40001
1.40001
1.40001
1.40001
1.40001
1.40001
1.40001
1.40001
1.40001
1.40001
1.40001
1.40001
1.40001
1.40001
1.40001
1.40001
1.40001
1.40001
1.40683
2.76273
4.96929
5.13719
5.1266
5.12448
5.11724
5.10711
5.09424
5.08028
5.06544
5.04891
5.03084
5.01009
4.98755
4.96265
4.93571
4.90631
4.87405
4.83891
4.80071
4.76066
4.71905
4.67435
4.6262
4.57458
4.51814
4.46024
4.39902
4.33732
4.26824
4.19715
4.11994
4.03949
3.95601
3.86963
3.78357
3.69067
3.59873
1.40001
1.40001
1.40001
1.40001
1.40001
1.40001
1.40001
1.40001
1.40001
1.40001
1.40001
1.40001
1.40001
1.40001
1.40001
1.40001
1.40001
1.40001
1.40001
1.40001
1.40001
1.40001
1.40001
1.40001
1.40001
1.40001
1.40001
1.40001
1.40001
1.40001
1.40001
1.40001
1.40001
1.40001
1.40001
1.40001
1.40001
1.40001
1.40001
1.40001
1.40001
1.40001
1.40001
1.40001
1.40001
1.40001
1.40001
1.40001
1.40001
1.40001
1.40001
1.40001
1.40001
1.40001
1.40001
1.40001
1.40001
1.40001
1.51445
3.52244
5.0539
5.1094
5.10574
5.10287
5.09358
5.08016
5.06475
5.04798
5.02965
5.01002
4.98825
4.96456
4.93826
4.90996
4.87899
4.84568
4.80986
4.77162
4.73177
4.68971
4.64525
4.59733
4.54611
4.49099
4.43471
4.37609
4.31543
4.24849
4.17962
4.10533
4.03073
3.95276
3.87462
3.79453
3.71054
3.6249
1.40001
1.40001
1.40001
1.40001
1.40001
1.40001
1.40001
1.40001
1.40001
1.40001
1.40001
1.40001
1.40001
1.40001
1.40001
1.40001
1.40001
1.40001
1.40001
1.40001
1.40001
1.40001
1.40001
1.40001
1.40001
1.40001
1.40001
1.40001
1.40001
1.40001
1.40001
1.40001
1.40001
1.40001
1.40001
1.40001
1.40001
1.40001
1.40001
1.40001
1.40001
1.40001
1.40001
1.40001
1.40001
1.40001
1.40001
1.40001
1.40001
1.40001
1.40001
1.40001
1.40001
1.40001
1.40001
1.40001
1.40001
1.40001
1.40072
1.70046
4.13303
5.11815
5.11312
5.09851
5.0819
5.06472
5.04578
5.02716
5.00718
4.9864
4.96388
4.93928
4.91249
4.88355
4.85223
4.81883
4.78306
4.74509
4.70532
4.66358
4.6191
4.57185
4.52211
4.46955
4.415
4.35828
4.29871
4.23442
4.16759
4.0969
4.02695
3.95338
3.88145
3.80585
3.72829
3.6474
1.40001
1.40001
1.40001
1.40001
1.40001
1.40001
1.40001
1.40001
1.40001
1.40001
1.40001
1.40001
1.40001
1.40001
1.40001
1.40001
1.40001
1.40001
1.40001
1.40001
1.40001
1.40001
1.40001
1.40001
1.40001
1.40001
1.40001
1.40001
1.40001
1.40001
1.40001
1.40001
1.40001
1.40001
1.40001
1.40001
1.40001
1.40001
1.40001
1.40001
1.40001
1.40001
1.40001
1.40001
1.40001
1.40001
1.40001
1.40001
1.40001
1.40001
1.40001
1.40001
1.40001
1.40001
1.40001
1.40001
1.40001
1.40001
1.40001
1.40487
2.09509
4.70782
5.13862
5.09662
5.07432
5.04822
5.02502
5.00409
4.98355
4.96268
4.94025
4.91598
4.88971
4.86123
4.83057
4.79746
4.76195
4.7241
4.68428
4.64249
4.59834
4.55145
4.50314
4.45313
4.40021
4.34502
4.28665
4.22518
4.16088
4.0947
4.02802
3.95843
3.89005
3.8177
3.74429
3.66768
1.40001
1.40001
1.40001
1.40001
1.40001
1.40001
1.40001
1.40001
1.40001
1.40001
1.40001
1.40001
1.40001
1.40001
1.40001
1.40001
1.40001
1.40001
1.40001
1.40001
1.40001
1.40001
1.40001
1.40001
1.40001
1.40001
1.40001
1.40001
1.40001
1.40001
1.40001
1.40001
1.40001
1.40001
1.40001
1.40001
1.40001
1.40001
1.40001
1.40001
1.40001
1.40001
1.40001
1.40001
1.40001
1.40001
1.40001
1.40001
1.40001
1.40001
1.40001
1.40001
1.40001
1.40001
1.40001
1.40001
1.40001
1.40001
1.40001
1.40001
1.42706
2.85835
4.95068
5.06933
5.0373
5.01896
5.0004
4.98213
4.96179
4.9409
4.91839
4.89406
4.86769
4.83956
4.80946
4.77708
4.74231
4.70503
4.66551
4.6239
4.58029
4.53444
4.48717
4.43883
4.38779
4.33442
4.2779
4.21949
4.15816
4.0958
4.03176
3.96581
3.89952
3.83027
3.75995
3.68721
1.40001
1.40001
1.40001
1.40001
1.40001
1.40001
1.40001
1.40001
1.40001
1.40001
1.40001
1.40001
1.40001
1.40001
1.40001
1.40001
1.40001
1.40001
1.40001
1.40001
1.40001
1.40001
1.40001
1.40001
1.40001
1.40001
1.40001
1.40001
1.40001
1.40001
1.40001
1.40001
1.40001
1.40001
1.40001
1.40001
1.40001
1.40001
1.40001
1.40001
1.40001
1.40001
1.40001
1.40001
1.40001
1.40001
1.40001
1.40001
1.40001
1.40001
1.40001
1.40001
1.40001
1.40001
1.40001
1.40001
1.40001
1.40001
1.40001
1.40001
1.40008
1.52452
3.3508
4.97131
5.00393
4.99465
4.98938
4.9762
4.95807
4.93595
4.91157
4.88507
4.85672
4.8272
4.79605
4.76339
4.72866
4.69171
4.65246
4.61111
4.5679
4.5229
4.47645
4.4289
4.37946
4.32729
4.27245
4.21648
4.15809
4.09875
4.03715
3.97435
3.90992
3.84344
3.77563
3.7064
1.40001
1.40001
1.40001
1.40001
1.40001
1.40001
1.40001
1.40001
1.40001
1.40001
1.40001
1.40001
1.40001
1.40001
1.40001
1.40001
1.40001
1.40001
1.40001
1.40001
1.40001
1.40001
1.40001
1.40001
1.40001
1.40001
1.40001
1.40001
1.40001
1.40001
1.40001
1.40001
1.40001
1.40001
1.40001
1.40001
1.40001
1.40001
1.40001
1.40001
1.40001
1.40001
1.40001
1.40001
1.40001
1.40001
1.40001
1.40001
1.40001
1.40001
1.40001
1.40001
1.40001
1.40001
1.40001
1.40001
1.40001
1.40001
1.40001
1.40001
1.40001
1.40094
1.64054
3.65466
4.97431
4.98994
4.98189
4.96936
4.95105
4.92978
4.90528
4.87829
4.84906
4.8184
4.78621
4.75267
4.71742
4.68045
4.64155
4.60077
4.5583
4.51421
4.46853
4.42155
4.37329
4.32242
4.26941
4.21508
4.15918
4.10218
4.04308
3.98279
3.92043
3.85679
3.79178
3.72632
1.40001
1.40001
1.40001
1.40001
1.40001
1.40001
1.40001
1.40001
1.40001
1.40001
1.40001
1.40001
1.40001
1.40001
1.40001
1.40001
1.40001
1.40001
1.40001
1.40001
1.40001
1.40001
1.40001
1.40001
1.40001
1.40001
1.40001
1.40001
1.40001
1.40001
1.40001
1.40001
1.40001
1.40001
1.40001
1.40001
1.40001
1.40001
1.40001
1.40001
1.40001
1.40001
1.40001
1.40001
1.40001
1.40001
1.40001
1.40001
1.40001
1.40001
1.40001
1.40001
1.40001
1.40001
1.40001
1.40001
1.40001
1.40001
1.40001
1.40001
1.40001
1.40001
1.40321
1.74838
3.91043
4.99119
4.98441
4.96571
4.94439
4.92152
4.89661
4.86966
4.8411
4.81085
4.77879
4.74504
4.70959
4.6726
4.63403
4.59386
4.55225
4.50917
4.46447
4.41827
4.37085
4.32125
4.26932
4.21567
4.16144
4.10641
4.04983
3.99163
3.93157
3.87047
3.80832
3.74598
1.40001
1.40001
1.40001
1.40001
1.40001
1.40001
1.40001
1.40001
1.40001
1.40001
1.40001
1.40001
1.40001
1.40001
1.40001
1.40001
1.40001
1.40001
1.40001
1.40001
1.40001
1.40001
1.40001
1.40001
1.40001
1.40001
1.40001
1.40001
1.40001
1.40001
1.40001
1.40001
1.40001
1.40001
1.40001
1.40001
1.40001
1.40001
1.40001
1.40001
1.40001
1.40001
1.40001
1.40001
1.40001
1.40001
1.40001
1.40001
1.40001
1.40001
1.40001
1.40001
1.40001
1.40001
1.40001
1.40001
1.40001
1.40001
1.40001
1.40001
1.40001
1.40001
1.40001
1.40661
1.85996
4.12593
4.99195
4.97524
4.94824
4.92138
4.8925
4.864
4.8345
4.80394
4.77166
4.73803
4.70305
4.66662
4.62866
4.58916
4.54835
4.50621
4.46241
4.41689
4.36997
4.32127
4.27034
4.21783
4.16522
4.1121
4.05742
4.00052
3.94233
3.8838
3.825
3.76542
1.40001
1.40001
1.40001
1.40001
1.40001
1.40001
1.40001
1.40001
1.40001
1.40001
1.40001
1.40001
1.40001
1.40001
1.40001
1.40001
1.40001
1.40001
1.40001
1.40001
1.40001
1.40001
1.40001
1.40001
1.40001
1.40001
1.40001
1.40001
1.40001
1.40001
1.40001
1.40001
1.40001
1.40001
1.40001
1.40001
1.40001
1.40001
1.40001
1.40001
1.40001
1.40001
1.40001
1.40001
1.40001
1.40001
1.40001
1.40001
1.40001
1.40001
1.40001
1.40001
1.40001
1.40001
1.40001
1.40001
1.40001
1.40001
1.40001
1.40001
1.40001
1.40001
1.40001
1.40002
1.41138
1.97431
4.27688
4.98653
4.96389
4.93248
4.90067
4.86897
4.83673
4.80287
4.76858
4.73397
4.69862
4.66216
4.62425
4.58514
4.54498
4.50366
4.46094
4.41652
4.37034
4.3226
4.27329
4.22234
4.17072
4.11875
4.06577
4.01062
3.95417
3.89837
3.84265
3.78556
1.40001
1.40001
1.40001
1.40001
1.40001
1.40001
1.40001
1.40001
1.40001
1.40001
1.40001
1.40001
1.40001
1.40001
1.40001
1.40001
1.40001
1.40001
1.40001
1.40001
1.40001
1.40001
1.40001
1.40001
1.40001
1.40001
1.40001
1.40001
1.40001
1.40001
1.40001
1.40001
1.40001
1.40001
1.40001
1.40001
1.40001
1.40001
1.40001
1.40001
1.40001
1.40001
1.40001