/*--------------------------------*- C++ -*----------------------------------*\
  =========                 |
  \\      /  F ield         | OpenFOAM: The Open Source CFD Toolbox
   \\    /   O peration     | Website:  https://openfoam.org
    \\  /    A nd           | Version:  7
     \\/     M anipulation  |
\*---------------------------------------------------------------------------*/
FoamFile
{
    version     2.0;
    format      ascii;
    class       volVectorField;
    location    "3.6";
    object      U;
}
// * * * * * * * * * * * * * * * * * * * * * * * * * * * * * * * * * * * * * //

dimensions      [0 1 -1 0 0 0 0];

internalField   nonuniform List<vector> 
19968
(
(3 -7.03022e-17 0)
(3 -1.1181e-16 0)
(3 -1.49549e-16 0)
(3 -2.68718e-16 0)
(3 -3.36469e-16 0)
(3 4.02623e-16 0)
(3 8.2935e-16 0)
(3 4.33702e-16 0)
(3 3.06018e-16 0)
(3 1.87109e-16 0)
(3 2.94946e-16 0)
(3 4.70744e-17 0)
(3 2.6609e-16 0)
(3 4.57859e-16 0)
(3 1.23096e-15 0)
(3 1.62061e-15 0)
(3 1.3532e-15 0)
(3 1.35509e-15 0)
(3 9.57197e-16 0)
(3 6.77416e-16 0)
(3 -1.3858e-16 0)
(3 -1.02536e-15 0)
(3 -1.66926e-15 0)
(3 -1.80389e-15 0)
(3 -1.68561e-15 0)
(3 -1.7481e-15 0)
(3 -1.3775e-15 0)
(3 -6.8373e-16 0)
(3 2.16519e-16 0)
(3 2.04106e-16 0)
(3 1.69811e-16 0)
(3 -9.93098e-17 0)
(3 2.18306e-16 0)
(3 4.50886e-17 0)
(3 -3.54614e-16 0)
(3 -5.92567e-16 0)
(3 -5.7625e-16 0)
(3 -7.64504e-16 0)
(3 -9.34768e-16 0)
(3 -9.54935e-16 0)
(3 -8.08573e-16 0)
(3 -1.32606e-15 0)
(3 -1.06132e-15 0)
(3 -7.89873e-16 0)
(3 -8.65644e-16 0)
(3 -1.3022e-15 0)
(3 -1.07802e-15 0)
(3 2.28661e-17 0)
(2.94345 0.000830973 0)
(1.03434 0.00626186 0)
(0.760594 0.00573179 0)
(0.744614 0.00779787 0)
(0.728986 0.00840288 0)
(0.714097 0.00897235 0)
(0.699234 0.00929673 0)
(0.684371 0.00897373 0)
(0.669766 0.0082227 0)
(0.655336 0.00794845 0)
(0.640608 0.00857851 0)
(0.625163 0.00975545 0)
(0.609127 0.0104392 0)
(0.593599 0.00981506 0)
(0.579434 0.00865675 0)
(0.565974 0.00822484 0)
(0.552005 0.00858722 0)
(0.53701 0.00927466 0)
(0.521309 0.00986419 0)
(0.505536 0.0101085 0)
(0.490053 0.010178 0)
(0.474597 0.010404 0)
(0.458827 0.0105823 0)
(0.44299 0.0103962 0)
(0.427354 0.0102401 0)
(0.411521 0.0104761 0)
(0.395018 0.0108581 0)
(0.377923 0.0110794 0)
(0.360727 0.0111115 0)
(0.343951 0.0110568 0)
(0.327854 0.0109781 0)
(0.312303 0.0109087 0)
(0.296855 0.010886 0)
(0.280991 0.0109477 0)
(0.264334 0.0111114 0)
(0.246832 0.0113618 0)
(0.22874 0.0116634 0)
(0.210355 0.0119822 0)
(0.191873 0.012309 0)
(0.173453 0.0126432 0)
(0.155222 0.0129869 0)
(0.137095 0.0133511 0)
(0.118733 0.0137296 0)
(0.0996381 0.0141121 0)
(0.0793651 0.0144696 0)
(0.0576796 0.0147948 0)
(0.0350433 0.0149288 0)
(0.0121581 0.0150542 0)
(3 8.87942e-17 0)
(3 1.51123e-17 0)
(3 3.82601e-16 0)
(3 6.56164e-16 0)
(3 8.4029e-16 0)
(3 1.41792e-15 0)
(3 1.59502e-15 0)
(3 1.06007e-15 0)
(3 1.10814e-15 0)
(3 1.44695e-15 0)
(3 1.35229e-15 0)
(3 9.16522e-16 0)
(3 8.49022e-16 0)
(3 1.04442e-15 0)
(3 1.03482e-15 0)
(3 9.56527e-16 0)
(3 9.71314e-16 0)
(3 7.47676e-16 0)
(3 5.45909e-16 0)
(3 -2.59664e-16 0)
(3 -9.48254e-16 0)
(3 -1.57092e-15 0)
(3 -2.53535e-15 0)
(3 -2.3419e-15 0)
(3 -1.75723e-15 0)
(3 -1.23777e-15 0)
(3 -8.26158e-16 0)
(3 -7.95905e-16 0)
(3 -4.46253e-16 0)
(3 -9.90627e-17 0)
(3 5.54267e-16 0)
(3 5.46499e-16 0)
(3 1.01279e-15 0)
(3 7.91797e-16 0)
(3 5.65324e-16 0)
(3 5.76709e-16 0)
(3 -1.08191e-16 0)
(3 -1.81613e-16 0)
(3 -7.31934e-16 0)
(3 -8.59968e-16 0)
(3 -8.06371e-16 0)
(3 -9.8378e-16 0)
(3 -5.55966e-16 0)
(3 -6.41392e-16 0)
(3 -6.77966e-16 0)
(3 -2.62596e-16 0)
(3 1.61385e-16 0)
(3 6.11997e-16 0)
(2.94989 0.007055 0)
(1.04041 0.0285921 0)
(0.758359 0.0234392 0)
(0.740406 0.0245098 0)
(0.724215 0.0257489 0)
(0.708887 0.0265924 0)
(0.694171 0.0269443 0)
(0.679826 0.0261038 0)
(0.665546 0.0245839 0)
(0.650844 0.0241492 0)
(0.635664 0.0258682 0)
(0.620095 0.0288441 0)
(0.604281 0.0303897 0)
(0.589235 0.0288205 0)
(0.575236 0.0260407 0)
(0.561319 0.0248492 0)
(0.546805 0.0257252 0)
(0.531394 0.0275303 0)
(0.515467 0.0290063 0)
(0.499735 0.0295171 0)
(0.484504 0.0297253 0)
(0.469402 0.0305919 0)
(0.453928 0.031422 0)
(0.438218 0.0311053 0)
(0.422573 0.0306856 0)
(0.406745 0.0313274 0)
(0.390374 0.0324445 0)
(0.373501 0.0331567 0)
(0.35656 0.0334057 0)
(0.339969 0.0334526 0)
(0.323926 0.0334163 0)
(0.308306 0.033342 0)
(0.292723 0.0333131 0)
(0.276731 0.033449 0)
(0.260011 0.0338474 0)
(0.242536 0.0345187 0)
(0.22456 0.0353898 0)
(0.206377 0.0363661 0)
(0.188185 0.0374093 0)
(0.170139 0.0384939 0)
(0.152359 0.0395988 0)
(0.134746 0.0407475 0)
(0.116937 0.0419268 0)
(0.0984076 0.0431065 0)
(0.0786617 0.0442559 0)
(0.0574016 0.0453421 0)
(0.0350223 0.0459007 0)
(0.0122106 0.0464759 0)
(3 1.97369e-16 0)
(3 7.50546e-16 0)
(3 1.05587e-15 0)
(3 1.25435e-15 0)
(3 1.49485e-15 0)
(3 1.27446e-15 0)
(3 2.92444e-16 0)
(3 3.44435e-16 0)
(3 3.84585e-16 0)
(3 4.47623e-16 0)
(3 4.08438e-17 0)
(3 -1.47981e-16 0)
(3 -3.68424e-16 0)
(3 -5.54292e-16 0)
(3 -4.97931e-16 0)
(3 -1.27334e-16 0)
(3 2.96573e-16 0)
(3 6.49362e-17 0)
(3 -3.40662e-16 0)
(3 -1.59969e-16 0)
(3 -4.83429e-16 0)
(3 -1.24263e-15 0)
(3 -2.34512e-15 0)
(3 -2.05373e-15 0)
(3 -1.82539e-15 0)
(3 -1.93714e-15 0)
(3 -2.15777e-15 0)
(3 -2.46846e-15 0)
(3 -1.82391e-15 0)
(3 -1.09974e-15 0)
(3 -5.3259e-16 0)
(3 4.19971e-16 0)
(3 9.03503e-16 0)
(3 1.18959e-15 0)
(3 1.43644e-15 0)
(3 1.1451e-15 0)
(3 7.80923e-16 0)
(3 6.46256e-16 0)
(3 7.1116e-16 0)
(3 4.73921e-16 0)
(3 -9.29208e-16 0)
(3 -8.63295e-16 0)
(3 -1.98149e-16 0)
(3 6.00141e-16 0)
(3 9.44811e-16 0)
(3 5.34615e-16 0)
(3 2.11139e-16 0)
(3 -5.66529e-16 0)
(2.96387 -0.000284657 0)
(1.05432 0.0506318 0)
(0.762286 0.0409657 0)
(0.744039 0.0443132 0)
(0.726692 0.0458835 0)
(0.710584 0.0465468 0)
(0.695646 0.0462061 0)
(0.68148 0.0445884 0)
(0.667204 0.0427419 0)
(0.652046 0.0427707 0)
(0.636308 0.0457335 0)
(0.62043 0.0499687 0)
(0.604625 0.0516051 0)
(0.589997 0.0490366 0)
(0.576115 0.0452563 0)
(0.561712 0.0439036 0)
(0.546555 0.0455065 0)
(0.530522 0.0483448 0)
(0.514047 0.0503884 0)
(0.498022 0.0507488 0)
(0.482765 0.0507578 0)
(0.467874 0.0521005 0)
(0.452675 0.0536349 0)
(0.437087 0.0533633 0)
(0.421406 0.0527392 0)
(0.405496 0.0536693 0)
(0.389143 0.0553546 0)
(0.372355 0.0564372 0)
(0.355512 0.056869 0)
(0.338925 0.0570735 0)
(0.322715 0.0572047 0)
(0.306745 0.0572903 0)
(0.290673 0.0574125 0)
(0.274113 0.0577104 0)
(0.256803 0.0583129 0)
(0.238757 0.0592477 0)
(0.220258 0.0604363 0)
(0.201645 0.0617751 0)
(0.18317 0.0632482 0)
(0.165027 0.0648421 0)
(0.147357 0.0665242 0)
(0.130068 0.0683438 0)
(0.112779 0.0702847 0)
(0.0949635 0.0723047 0)
(0.0760484 0.074356 0)
(0.0556705 0.0763645 0)
(0.0340798 0.0775213 0)
(0.0119487 0.0787358 0)
(3 -5.28157e-17 0)
(3 1.50106e-16 0)
(3 3.79453e-16 0)
(3 3.60821e-16 0)
(3 3.80986e-16 0)
(3 1.52439e-16 0)
(3 -2.60578e-16 0)
(3 -1.9269e-16 0)
(3 -6.46774e-16 0)
(3 -1.07574e-15 0)
(3 -1.36526e-15 0)
(3 -1.54215e-15 0)
(3 -1.54025e-15 0)
(3 -1.212e-15 0)
(3 -8.31817e-16 0)
(3 -1.97037e-16 0)
(3 1.96064e-16 0)
(3 6.37722e-16 0)
(3 -4.07672e-17 0)
(3 -6.16428e-16 0)
(3 -1.13844e-15 0)
(3 -1.17332e-15 0)
(3 -1.42635e-15 0)
(3 -1.52865e-15 0)
(3 -1.5151e-15 0)
(3 -1.5013e-15 0)
(3 -1.53664e-15 0)
(3 -7.1842e-16 0)
(3 -1.27875e-15 0)
(3 -1.23522e-15 0)
(3 -1.1594e-15 0)
(3 -9.67508e-16 0)
(3 -4.16805e-16 0)
(3 4.1038e-16 0)
(3 5.23115e-16 0)
(3 3.82876e-16 0)
(3 8.60689e-16 0)
(3 9.93059e-16 0)
(3 8.06193e-16 0)
(3 5.14744e-16 0)
(3 2.94507e-16 0)
(3 3.48632e-16 0)
(3 3.07926e-16 0)
(3 5.32811e-16 0)
(3 6.68017e-16 0)
(3 3.96529e-16 0)
(3 -8.30324e-16 0)
(3 -2.22764e-15 0)
(2.98294 -0.000686139 0)
(1.09065 0.0691929 0)
(0.766795 0.0570347 0)
(0.749173 0.0650731 0)
(0.732437 0.0665797 0)
(0.717044 0.0662437 0)
(0.702819 0.0646529 0)
(0.689082 0.062382 0)
(0.6748 0.0608459 0)
(0.659413 0.061945 0)
(0.643529 0.0663022 0)
(0.62759 0.0712786 0)
(0.611903 0.0723859 0)
(0.597609 0.0688927 0)
(0.583713 0.0646754 0)
(0.569004 0.0636291 0)
(0.553526 0.066177 0)
(0.537153 0.0701201 0)
(0.52025 0.0726703 0)
(0.503893 0.0726818 0)
(0.488437 0.0722658 0)
(0.473556 0.0739164 0)
(0.458514 0.0762051 0)
(0.442936 0.0762088 0)
(0.427136 0.0754956 0)
(0.411069 0.0766867 0)
(0.394658 0.0789062 0)
(0.377839 0.0803956 0)
(0.360943 0.0811347 0)
(0.344185 0.0817237 0)
(0.32762 0.0823462 0)
(0.311103 0.0829873 0)
(0.294322 0.0836752 0)
(0.276925 0.0845008 0)
(0.258676 0.0855645 0)
(0.239604 0.0868772 0)
(0.220026 0.0883506 0)
(0.20034 0.089884 0)
(0.18088 0.0915043 0)
(0.161907 0.093241 0)
(0.14361 0.095076 0)
(0.125952 0.0971306 0)
(0.108592 0.0994375 0)
(0.091071 0.10198 0)
(0.0727742 0.104722 0)
(0.0533006 0.10759 0)
(0.0326704 0.109376 0)
(0.0114837 0.111284 0)
(3 -2.58977e-16 0)
(3 -7.8256e-16 0)
(3 -8.98258e-16 0)
(3 -5.85138e-16 0)
(3 -2.75164e-16 0)
(3 -5.87914e-16 0)
(3 -6.74096e-16 0)
(3 -9.51127e-16 0)
(3 -1.06462e-15 0)
(3 -1.28136e-15 0)
(3 -1.33228e-15 0)
(3 -9.44998e-16 0)
(3 -8.15247e-16 0)
(3 -4.72235e-16 0)
(3 -3.27513e-16 0)
(3 -3.3566e-16 0)
(3 -8.38305e-16 0)
(3 -4.23628e-16 0)
(3 -7.27087e-17 0)
(3 -2.1768e-16 0)
(3 -5.27007e-16 0)
(3 3.59943e-17 0)
(3 9.45768e-16 0)
(3 1.34776e-15 0)
(3 1.03609e-15 0)
(3 1.13822e-15 0)
(3 9.48947e-16 0)
(3 -2.18741e-17 0)
(3 -3.42802e-17 0)
(3 -3.85734e-16 0)
(3 -6.62174e-16 0)
(3 -1.1938e-15 0)
(3 -1.27904e-15 0)
(3 -1.06419e-15 0)
(3 -6.15022e-16 0)
(3 6.459e-16 0)
(3 1.06873e-15 0)
(3 1.7249e-17 0)
(3 -9.38435e-16 0)
(3 -8.31963e-16 0)
(3 1.298e-16 0)
(3 3.17608e-16 0)
(3 1.95187e-16 0)
(3 1.27108e-16 0)
(3 4.7e-16 0)
(3 -1.04111e-16 0)
(3 -1.4183e-16 0)
(3 -6.83081e-17 0)
(2.99963 0.000370092 0)
(1.15196 0.0882273 0)
(0.76906 0.0739232 0)
(0.7499 0.0860489 0)
(0.733943 0.0870323 0)
(0.719302 0.0858937 0)
(0.705569 0.083895 0)
(0.691665 0.0820334 0)
(0.676668 0.0815379 0)
(0.660369 0.0839496 0)
(0.643765 0.0894298 0)
(0.627364 0.0944412 0)
(0.61167 0.0947444 0)
(0.597568 0.0906293 0)
(0.583698 0.0862527 0)
(0.568982 0.0855098 0)
(0.553676 0.0888172 0)
(0.537605 0.0936313 0)
(0.520906 0.0965101 0)
(0.504723 0.0960784 0)
(0.489383 0.0951215 0)
(0.474644 0.0969611 0)
(0.459862 0.100056 0)
(0.444318 0.100576 0)
(0.428399 0.0998476 0)
(0.412154 0.101189 0)
(0.395667 0.103865 0)
(0.378816 0.105797 0)
(0.3619 0.106952 0)
(0.345093 0.108067 0)
(0.328441 0.109339 0)
(0.311832 0.110701 0)
(0.294998 0.112109 0)
(0.277617 0.113583 0)
(0.259444 0.115185 0)
(0.240462 0.116913 0)
(0.220927 0.118681 0)
(0.201204 0.120402 0)
(0.181604 0.122142 0)
(0.162369 0.123965 0)
(0.143692 0.125838 0)
(0.1256 0.127932 0)
(0.107861 0.130321 0)
(0.09014 0.133059 0)
(0.0718723 0.136094 0)
(0.0526723 0.139518 0)
(0.0323242 0.141732 0)
(0.0113726 0.14418 0)
(3 2.16711e-16 0)
(3 2.72038e-16 0)
(3 -2.16514e-16 0)
(3 -3.96524e-16 0)
(3 -5.01343e-16 0)
(3 -9.24452e-16 0)
(3 -1.17109e-15 0)
(3 -1.08522e-15 0)
(3 -4.73008e-16 0)
(3 -7.70819e-16 0)
(3 -5.5243e-16 0)
(3 -3.78599e-16 0)
(3 3.75444e-17 0)
(3 -3.51933e-18 0)
(3 -3.45205e-17 0)
(3 -8.79973e-17 0)
(3 -4.971e-16 0)
(3 -3.95367e-16 0)
(3 2.90311e-17 0)
(3 4.04686e-16 0)
(3 3.586e-16 0)
(3 5.33864e-16 0)
(3 3.26879e-16 0)
(3 4.60231e-16 0)
(3 5.36155e-16 0)
(3 6.04497e-16 0)
(3 5.97145e-16 0)
(3 1.62967e-16 0)
(3 3.83081e-16 0)
(3 3.29073e-16 0)
(3 8.60311e-17 0)
(3 1.32936e-16 0)
(3 -3.24775e-16 0)
(3 -5.10891e-16 0)
(3 1.15999e-16 0)
(3 -7.33122e-16 0)
(3 -2.68028e-15 0)
(3 -3.02264e-15 0)
(3 -3.08344e-15 0)
(3 -2.68281e-15 0)
(3 -2.62519e-15 0)
(3 -3.00414e-15 0)
(3 -2.19333e-15 0)
(3 -9.06748e-16 0)
(3 -9.43666e-16 0)
(3 -7.76622e-16 0)
(3 -8.18853e-16 0)
(3 -7.71612e-16 0)
(3 7.55844e-07 0)
(1.25627 0.114272 0)
(0.774737 0.0945804 0)
(0.749632 0.108465 0)
(0.732961 0.107663 0)
(0.717603 0.105565 0)
(0.703423 0.103405 0)
(0.689188 0.102324 0)
(0.674061 0.103175 0)
(0.657955 0.106954 0)
(0.641868 0.113093 0)
(0.626028 0.117494 0)
(0.611046 0.11688 0)
(0.597492 0.112351 0)
(0.583919 0.108048 0)
(0.569474 0.1077 0)
(0.554565 0.111708 0)
(0.538963 0.117365 0)
(0.522531 0.120735 0)
(0.506443 0.120095 0)
(0.491079 0.118676 0)
(0.476298 0.120622 0)
(0.46171 0.124556 0)
(0.446185 0.125877 0)
(0.430163 0.125265 0)
(0.413781 0.126682 0)
(0.397272 0.129744 0)
(0.380461 0.132148 0)
(0.363613 0.13378 0)
(0.346889 0.135475 0)
(0.33034 0.137441 0)
(0.313877 0.139552 0)
(0.297257 0.141692 0)
(0.280162 0.143806 0)
(0.262329 0.145935 0)
(0.243679 0.148096 0)
(0.224407 0.150231 0)
(0.20484 0.152273 0)
(0.185261 0.154302 0)
(0.165868 0.156394 0)
(0.146829 0.158473 0)
(0.12821 0.160736 0)
(0.109889 0.16325 0)
(0.0916624 0.166189 0)
(0.07304 0.169438 0)
(0.0536121 0.173316 0)
(0.032969 0.175881 0)
(0.0115894 0.178799 0)
(3 9.80967e-17 0)
(3 6.84361e-17 0)
(3 -1.87243e-16 0)
(3 -5.34789e-16 0)
(3 -1.33638e-15 0)
(3 -1.54961e-15 0)
(3 -1.10072e-15 0)
(3 -8.34587e-16 0)
(3 -5.8136e-16 0)
(3 -5.56533e-16 0)
(3 2.50409e-16 0)
(3 5.80844e-16 0)
(3 7.35623e-16 0)
(3 6.58903e-16 0)
(3 4.83484e-16 0)
(3 1.18e-16 0)
(3 1.83587e-17 0)
(3 -1.08531e-16 0)
(3 3.71272e-16 0)
(3 2.63333e-17 0)
(3 1.26368e-16 0)
(3 -1.97701e-18 0)
(3 -3.28407e-17 0)
(3 5.31276e-16 0)
(3 8.75684e-16 0)
(3 1.30661e-15 0)
(3 2.17932e-15 0)
(3 2.64127e-15 0)
(3 1.8316e-15 0)
(3 1.89675e-15 0)
(3 2.13959e-15 0)
(3 2.5073e-15 0)
(3 6.62799e-16 0)
(3 4.74446e-16 0)
(3 -4.84666e-16 0)
(3 -2.29879e-15 0)
(3 -3.54783e-15 0)
(3 -3.30471e-15 0)
(3 -1.63296e-15 0)
(3 -1.70237e-15 0)
(3 -1.86886e-15 0)
(3 -2.42705e-15 0)
(3 -3.08705e-15 0)
(3 -2.21423e-15 0)
(3 -1.08109e-15 0)
(3 -1.06156e-15 0)
(3 -1.13759e-15 0)
(3 -1.09662e-15 0)
(3 2.04148e-09 0)
(1.42371 0.141375 0)
(0.788666 0.11789 0)
(0.75372 0.134222 0)
(0.735968 0.130824 0)
(0.71935 0.127016 0)
(0.704535 0.124026 0)
(0.690061 0.12339 0)
(0.675105 0.125525 0)
(0.65943 0.130591 0)
(0.643738 0.137138 0)
(0.628054 0.140974 0)
(0.613065 0.139914 0)
(0.599221 0.13534 0)
(0.585407 0.131152 0)
(0.570967 0.131036 0)
(0.556369 0.135507 0)
(0.541318 0.141879 0)
(0.525279 0.145893 0)
(0.509299 0.145331 0)
(0.493908 0.14348 0)
(0.479013 0.145332 0)
(0.464632 0.150012 0)
(0.449193 0.152411 0)
(0.433057 0.152101 0)
(0.416506 0.153555 0)
(0.399912 0.156965 0)
(0.383082 0.159924 0)
(0.366224 0.162119 0)
(0.349495 0.164431 0)
(0.332939 0.167083 0)
(0.316473 0.169904 0)
(0.299878 0.172723 0)
(0.282862 0.175439 0)
(0.265169 0.178093 0)
(0.246689 0.180747 0)
(0.227554 0.183371 0)
(0.208051 0.185903 0)
(0.188435 0.188401 0)
(0.168869 0.190932 0)
(0.149483 0.193363 0)
(0.130383 0.195922 0)
(0.111546 0.198624 0)
(0.0929087 0.20182 0)
(0.0740318 0.205287 0)
(0.0544506 0.209619 0)
(0.033561 0.212526 0)
(0.0117736 0.215918 0)
(3 -1.79544e-16 0)
(3 -1.91517e-16 0)
(3 -2.68302e-16 0)
(3 -4.47343e-16 0)
(3 -3.24113e-16 0)
(3 -1.63574e-17 0)
(3 -2.71595e-16 0)
(3 -4.62883e-16 0)
(3 -7.17684e-16 0)
(3 -4.07403e-16 0)
(3 -5.64903e-16 0)
(3 -4.83384e-16 0)
(3 -4.5697e-16 0)
(3 -4.09832e-16 0)
(3 -3.76141e-16 0)
(3 -5.32021e-16 0)
(3 -8.69993e-16 0)
(3 -1.40167e-15 0)
(3 -1.47325e-15 0)
(3 -8.89683e-16 0)
(3 -4.01942e-16 0)
(3 -3.61111e-16 0)
(3 -6.26865e-16 0)
(3 4.33193e-16 0)
(3 9.95414e-16 0)
(3 2.31235e-15 0)
(3 2.81511e-15 0)
(3 2.04863e-15 0)
(3 1.71468e-15 0)
(3 1.25869e-16 0)
(3 -2.01717e-16 0)
(3 2.83551e-16 0)
(3 -3.40689e-16 0)
(3 -6.02488e-16 0)
(3 -1.11572e-15 0)
(3 -8.32581e-16 0)
(3 2.36153e-16 0)
(3 4.80788e-16 0)
(3 4.9016e-16 0)
(3 5.46138e-16 0)
(3 4.51549e-16 0)
(3 2.49298e-17 0)
(3 -3.69498e-16 0)
(3 -1.20616e-15 0)
(3 -1.52414e-15 0)
(3 -1.62108e-15 0)
(3 -8.83995e-16 0)
(3 -1.64343e-15 0)
(3 4.78986e-12 0)
(1.67908 0.162206 0)
(0.811966 0.142531 0)
(0.759588 0.162363 0)
(0.741065 0.15695 0)
(0.723158 0.151233 0)
(0.707241 0.146509 0)
(0.691871 0.145347 0)
(0.676624 0.147968 0)
(0.661382 0.154139 0)
(0.646208 0.161182 0)
(0.630842 0.165011 0)
(0.615859 0.164172 0)
(0.601735 0.159889 0)
(0.587768 0.155664 0)
(0.573396 0.155372 0)
(0.55915 0.159902 0)
(0.544726 0.166806 0)
(0.529182 0.171668 0)
(0.513278 0.171651 0)
(0.497842 0.169492 0)
(0.482791 0.170988 0)
(0.468669 0.176199 0)
(0.453585 0.179893 0)
(0.437564 0.180122 0)
(0.421118 0.181575 0)
(0.40474 0.185279 0)
(0.38825 0.188912 0)
(0.371715 0.191821 0)
(0.355249 0.194838 0)
(0.338836 0.198219 0)
(0.322371 0.201781 0)
(0.305668 0.205322 0)
(0.288497 0.208723 0)
(0.270658 0.212029 0)
(0.25204 0.215345 0)
(0.232718 0.218649 0)
(0.212924 0.221859 0)
(0.192895 0.224976 0)
(0.172784 0.228055 0)
(0.152708 0.230898 0)
(0.132834 0.233799 0)
(0.113233 0.236676 0)
(0.0940037 0.240097 0)
(0.0747359 0.243703 0)
(0.0549594 0.248451 0)
(0.0338887 0.251668 0)
(0.0118041 0.255529 0)
(3 2.34815e-17 0)
(3 2.33415e-16 0)
(3 6.10539e-16 0)
(3 8.54906e-16 0)
(3 1.09932e-15 0)
(3 1.34043e-15 0)
(3 1.30593e-15 0)
(3 1.39199e-15 0)
(3 1.33338e-15 0)
(3 9.4261e-16 0)
(3 7.04933e-16 0)
(3 5.01178e-16 0)
(3 4.20645e-16 0)
(3 6.87746e-17 0)
(3 -2.36737e-16 0)
(3 -5.55857e-16 0)
(3 -7.43131e-16 0)
(3 -1.10848e-15 0)
(3 -1.73656e-15 0)
(3 -1.58098e-15 0)
(3 -9.26265e-16 0)
(3 -3.70839e-16 0)
(3 -6.50104e-16 0)
(3 -1.46099e-15 0)
(3 -1.18678e-15 0)
(3 -5.72388e-16 0)
(3 2.00561e-17 0)
(3 -6.24231e-16 0)
(3 -9.0142e-16 0)
(3 -7.86956e-16 0)
(3 9.39478e-18 0)
(3 1.07816e-15 0)
(3 1.2267e-15 0)
(3 7.88257e-16 0)
(3 4.25936e-16 0)
(3 7.87982e-16 0)
(3 1.15927e-15 0)
(3 2.45425e-15 0)
(3 2.74392e-15 0)
(3 1.42093e-15 0)
(3 6.46305e-16 0)
(3 1.11056e-15 0)
(3 1.53095e-15 0)
(3 9.00028e-16 0)
(3 -1.4053e-15 0)
(3 -1.44111e-15 0)
(3 -9.94004e-16 0)
(3 -2.85605e-15 0)
(3 8.94299e-15 0)
(2.02545 0.176674 0)
(0.841296 0.178888 0)
(0.754581 0.192625 0)
(0.738641 0.18515 0)
(0.722226 0.178821 0)
(0.707186 0.172911 0)
(0.692124 0.170871 0)
(0.67734 0.173241 0)
(0.663086 0.179485 0)
(0.649003 0.186582 0)
(0.634434 0.190771 0)
(0.619641 0.190706 0)
(0.605142 0.187113 0)
(0.590771 0.182822 0)
(0.576107 0.181885 0)
(0.561753 0.185929 0)
(0.547645 0.193074 0)
(0.532524 0.198919 0)
(0.516608 0.199922 0)
(0.501039 0.197638 0)
(0.485708 0.198311 0)
(0.471611 0.203538 0)
(0.456946 0.208489 0)
(0.441044 0.209518 0)
(0.424694 0.210899 0)
(0.40852 0.214749 0)
(0.392474 0.219104 0)
(0.376425 0.22285 0)
(0.360417 0.226628 0)
(0.344362 0.230747 0)
(0.328135 0.235058 0)
(0.311607 0.239369 0)
(0.29465 0.243556 0)
(0.277137 0.247671 0)
(0.258951 0.251836 0)
(0.240048 0.256025 0)
(0.220517 0.260125 0)
(0.200503 0.264072 0)
(0.180133 0.267914 0)
(0.159491 0.271383 0)
(0.138803 0.274845 0)
(0.118201 0.27806 0)
(0.0979618 0.281819 0)
(0.077714 0.285561 0)
(0.0570554 0.290706 0)
(0.0351266 0.294189 0)
(0.0121304 0.298534 0)
(3 2.99681e-17 0)
(3 -3.57453e-17 0)
(3 3.75173e-16 0)
(3 6.21154e-16 0)
(3 6.08187e-16 0)
(3 6.72772e-16 0)
(3 8.47959e-16 0)
(3 6.32796e-16 0)
(3 7.24156e-16 0)
(3 8.69511e-16 0)
(3 9.31066e-16 0)
(3 8.41848e-16 0)
(3 4.84075e-16 0)
(3 4.0014e-16 0)
(3 3.75017e-16 0)
(3 4.38379e-16 0)
(3 1.45828e-16 0)
(3 -2.20685e-16 0)
(3 -5.25076e-16 0)
(3 -1.12341e-15 0)
(3 -9.17518e-16 0)
(3 -4.85036e-16 0)
(3 -2.44496e-16 0)
(3 -7.19333e-17 0)
(3 -4.74482e-16 0)
(3 -9.84827e-16 0)
(3 -1.14835e-15 0)
(3 -7.84972e-16 0)
(3 -6.91696e-16 0)
(3 2.44063e-16 0)
(3 1.61718e-15 0)
(3 1.81639e-15 0)
(3 1.62662e-15 0)
(3 1.17291e-15 0)
(3 9.85872e-16 0)
(3 9.03589e-16 0)
(3 5.82261e-16 0)
(3 5.01701e-16 0)
(3 5.64912e-16 0)
(3 1.14314e-15 0)
(3 1.42647e-16 0)
(3 -5.73887e-16 0)
(3 -7.78579e-16 0)
(3 -7.98775e-16 0)
(3 -1.23937e-15 0)
(3 -1.60895e-15 0)
(3 -2.20791e-15 0)
(3 -1.94729e-15 0)
(3 -9.49219e-16 0)
(2.49615 0.173213 0)
(0.919852 0.223725 0)
(0.771323 0.218156 0)
(0.760235 0.207745 0)
(0.744566 0.203004 0)
(0.729549 0.197889 0)
(0.713602 0.19599 0)
(0.697849 0.19796 0)
(0.682893 0.203573 0)
(0.668549 0.210652 0)
(0.653884 0.216042 0)
(0.638588 0.217953 0)
(0.623015 0.216208 0)
(0.607468 0.212579 0)
(0.591724 0.210957 0)
(0.57631 0.214055 0)
(0.561639 0.221006 0)
(0.546477 0.227844 0)
(0.530202 0.230472 0)
(0.513907 0.228677 0)
(0.49768 0.228362 0)
(0.482663 0.23308 0)
(0.467806 0.239141 0)
(0.451491 0.241496 0)
(0.434566 0.24297 0)
(0.417817 0.246814 0)
(0.401455 0.251776 0)
(0.385176 0.256336 0)
(0.368891 0.260791 0)
(0.352439 0.265505 0)
(0.33569 0.270438 0)
(0.318592 0.275468 0)
(0.301138 0.280487 0)
(0.283307 0.285544 0)
(0.265008 0.290764 0)
(0.246104 0.296097 0)
(0.226542 0.301392 0)
(0.206367 0.306494 0)
(0.185695 0.311439 0)
(0.164563 0.315846 0)
(0.143226 0.32014 0)
(0.121817 0.323896 0)
(0.100709 0.328106 0)
(0.079454 0.331912 0)
(0.0580768 0.337353 0)
(0.03557 0.341 0)
(0.0121448 0.345855 0)
(3 3.12856e-17 0)
(3 6.6219e-17 0)
(3 4.50858e-18 0)
(3 4.18157e-16 0)
(3 5.61266e-16 0)
(3 2.04996e-16 0)
(3 -7.57663e-17 0)
(3 -2.42997e-16 0)
(3 -2.46387e-16 0)
(3 -3.89525e-16 0)
(3 -6.12569e-16 0)
(3 -9.05718e-16 0)
(3 -1.21476e-15 0)
(3 -6.01777e-16 0)
(3 -1.93158e-16 0)
(3 -9.2568e-17 0)
(3 -1.90633e-16 0)
(3 -7.66226e-16 0)
(3 -1.00191e-15 0)
(3 -1.40791e-15 0)
(3 -1.03886e-15 0)
(3 -8.53714e-16 0)
(3 -3.4051e-16 0)
(3 4.00664e-16 0)
(3 1.61856e-16 0)
(3 -4.84573e-16 0)
(3 -9.76358e-16 0)
(3 -8.98266e-16 0)
(3 -7.67435e-16 0)
(3 -5.75565e-16 0)
(3 -4.67003e-16 0)
(3 -7.63439e-16 0)
(3 -4.10382e-16 0)
(3 3.24815e-16 0)
(3 1.25636e-15 0)
(3 1.03843e-15 0)
(3 9.74512e-16 0)
(3 8.52709e-16 0)
(3 7.1477e-16 0)
(3 4.61662e-16 0)
(3 -5.02407e-16 0)
(3 8.14858e-16 0)
(3 7.78457e-16 0)
(3 2.38158e-16 0)
(3 6.90299e-17 0)
(3 -3.8886e-16 0)
(3 -1.04096e-15 0)
(3 -1.33947e-15 0)
(3 -2.01741e-15 0)
(2.93423 0.055324 0)
(1.05611 0.252144 0)
(0.795102 0.229164 0)
(0.787396 0.222615 0)
(0.77362 0.223634 0)
(0.759237 0.222719 0)
(0.743324 0.2224 0)
(0.727068 0.223654 0)
(0.711243 0.227751 0)
(0.696369 0.234067 0)
(0.681842 0.240308 0)
(0.666787 0.244293 0)
(0.651026 0.244951 0)
(0.634909 0.242874 0)
(0.618515 0.240995 0)
(0.602173 0.24278 0)
(0.586685 0.248875 0)
(0.571425 0.256399 0)
(0.55507 0.261131 0)
(0.538128 0.26094 0)
(0.521139 0.259912 0)
(0.50491 0.263577 0)
(0.489658 0.270373 0)
(0.473133 0.274796 0)
(0.455665 0.27693 0)
(0.438218 0.280737 0)
(0.42126 0.286165 0)
(0.404467 0.291607 0)
(0.387609 0.296846 0)
(0.370461 0.302201 0)
(0.352893 0.307761 0)
(0.334935 0.313531 0)
(0.316695 0.31943 0)
(0.29827 0.325472 0)
(0.279635 0.331765 0)
(0.260615 0.338242 0)
(0.241022 0.344769 0)
(0.220719 0.351151 0)
(0.199729 0.35749 0)
(0.177942 0.363325 0)
(0.155584 0.369098 0)
(0.132704 0.374156 0)
(0.109734 0.379462 0)
(0.0860986 0.383738 0)
(0.0625151 0.389586 0)
(0.0379086 0.39339 0)
(0.0128527 0.398876 0)
(3 8.91883e-17 0)
(3 -1.04354e-16 0)
(3 -4.40947e-16 0)
(3 -5.53472e-16 0)
(3 -4.44578e-16 0)
(3 -6.24821e-16 0)
(3 -9.07149e-16 0)
(3 -9.75767e-16 0)
(3 -9.16242e-16 0)
(3 -1.01989e-15 0)
(3 -1.10926e-15 0)
(3 -7.40103e-16 0)
(3 -6.05332e-16 0)
(3 -7.46968e-16 0)
(3 -9.25252e-16 0)
(3 -5.78235e-16 0)
(3 -3.31265e-16 0)
(3 -5.01887e-16 0)
(3 -6.31974e-16 0)
(3 -1.26408e-15 0)
(3 -1.09081e-15 0)
(3 -7.69808e-16 0)
(3 -3.79028e-17 0)
(3 -2.77403e-18 0)
(3 -1.85145e-16 0)
(3 -5.02361e-16 0)
(3 -2.74088e-16 0)
(3 -2.67608e-16 0)
(3 -5.41029e-16 0)
(3 -4.60284e-16 0)
(3 -3.25639e-16 0)
(3 -2.8385e-16 0)
(3 6.10368e-16 0)
(3 1.31813e-15 0)
(3 1.47096e-15 0)
(3 1.95097e-15 0)
(3 2.40257e-15 0)
(3 1.51994e-15 0)
(3 1.23709e-15 0)
(3 7.70719e-16 0)
(3 7.0947e-16 0)
(3 8.97245e-16 0)
(3 1.0381e-15 0)
(3 6.65392e-16 0)
(3 4.04562e-16 0)
(3 3.12882e-16 0)
(3 -3.28661e-16 0)
(3 -1.80165e-15 0)
(3 -1.78766e-15 0)
(3.00496 0.00172799 0)
(1.2713 0.264783 0)
(0.805538 0.229801 0)
(0.789318 0.248026 0)
(0.773932 0.255437 0)
(0.75896 0.257315 0)
(0.744393 0.258349 0)
(0.729738 0.259428 0)
(0.715067 0.261665 0)
(0.700929 0.265868 0)
(0.687558 0.271367 0)
(0.674342 0.276162 0)
(0.660695 0.278388 0)
(0.64668 0.277793 0)
(0.632276 0.276338 0)
(0.617491 0.277158 0)
(0.603069 0.281964 0)
(0.589104 0.289401 0)
(0.574172 0.295678 0)
(0.557994 0.297588 0)
(0.541354 0.296782 0)
(0.524741 0.299238 0)
(0.509453 0.306089 0)
(0.493604 0.312643 0)
(0.476402 0.316225 0)
(0.458835 0.320161 0)
(0.441589 0.325767 0)
(0.424559 0.331895 0)
(0.407438 0.337905 0)
(0.389911 0.343938 0)
(0.371762 0.350117 0)
(0.353027 0.356591 0)
(0.333867 0.363368 0)
(0.314454 0.370438 0)
(0.294853 0.377935 0)
(0.27492 0.385779 0)
(0.254459 0.393924 0)
(0.233204 0.402115 0)
(0.211168 0.41047 0)
(0.188261 0.418369 0)
(0.164857 0.426143 0)
(0.140909 0.43295 0)
(0.116368 0.439565 0)
(0.0911463 0.444497 0)
(0.0657085 0.450585 0)
(0.0393368 0.454244 0)
(0.0132076 0.460112 0)
(3 -9.33253e-17 0)
(3 -3.09277e-16 0)
(3 -4.02649e-16 0)
(3 -8.42722e-16 0)
(3 -1.19861e-15 0)
(3 -1.14869e-15 0)
(3 -7.43401e-16 0)
(3 -5.18753e-16 0)
(3 -5.11404e-16 0)
(3 -6.42187e-16 0)
(3 -6.25847e-16 0)
(3 -2.92812e-16 0)
(3 -2.96437e-16 0)
(3 -9.71743e-16 0)
(3 -1.43841e-15 0)
(3 -1.70196e-15 0)
(3 -1.31074e-15 0)
(3 1.94602e-17 0)
(3 3.35069e-16 0)
(3 3.89471e-16 0)
(3 1.44037e-16 0)
(3 -5.91911e-17 0)
(3 6.68056e-16 0)
(3 -2.63465e-16 0)
(3 -3.83086e-16 0)
(3 -5.30383e-16 0)
(3 -3.69996e-16 0)
(3 3.2862e-16 0)
(3 1.09575e-15 0)
(3 1.12979e-15 0)
(3 1.05076e-15 0)
(3 9.12369e-16 0)
(3 7.08315e-16 0)
(3 7.9476e-16 0)
(3 6.12156e-16 0)
(3 7.64707e-16 0)
(3 5.78812e-16 0)
(3 -3.95061e-16 0)
(3 -7.2517e-16 0)
(3 -5.34523e-16 0)
(3 2.33743e-16 0)
(3 5.27986e-16 0)
(3 6.06887e-16 0)
(3 3.25926e-16 0)
(3 -6.74976e-16 0)
(3 -9.90621e-16 0)
(3 -8.52515e-16 0)
(3 -9.41917e-16 0)
(3 -1.04656e-15 0)
(3.00002 2.76739e-06 0)
(1.79541 0.307447 0)
(0.836208 0.284515 0)
(0.771737 0.279023 0)
(0.759195 0.281183 0)
(0.747274 0.281804 0)
(0.735779 0.283729 0)
(0.723813 0.286032 0)
(0.711415 0.288513 0)
(0.698936 0.291983 0)
(0.686874 0.296689 0)
(0.675188 0.30147 0)
(0.663451 0.304721 0)
(0.651483 0.305853 0)
(0.63922 0.305996 0)
(0.626609 0.307407 0)
(0.614055 0.311914 0)
(0.601968 0.319448 0)
(0.589313 0.327281 0)
(0.575112 0.33189 0)
(0.560045 0.332749 0)
(0.544636 0.334678 0)
(0.530282 0.341042 0)
(0.516398 0.349196 0)
(0.501014 0.355095 0)
(0.48469 0.359774 0)
(0.468239 0.365515 0)
(0.451837 0.372225 0)
(0.435228 0.379271 0)
(0.418073 0.386507 0)
(0.40004 0.393923 0)
(0.381106 0.401617 0)
(0.361518 0.409776 0)
(0.341528 0.418325 0)
(0.321313 0.427408 0)
(0.300853 0.436931 0)
(0.280125 0.446883 0)
(0.258767 0.456976 0)
(0.236791 0.46731 0)
(0.213793 0.477213 0)
(0.190028 0.487158 0)
(0.164845 0.496396 0)
(0.138169 0.506113 0)
(0.109081 0.514483 0)
(0.0784674 0.522832 0)
(0.0465039 0.527421 0)
(0.0154593 0.53337 0)
(3 -1.11124e-16 0)
(3 -7.2537e-17 0)
(3 1.58542e-16 0)
(3 2.909e-16 0)
(3 4.17297e-16 0)
(3 5.0738e-16 0)
(3 5.30561e-16 0)
(3 5.95569e-16 0)
(3 3.23185e-16 0)
(3 3.56462e-16 0)
(3 -4.96292e-16 0)
(3 -8.71473e-16 0)
(3 -9.4301e-16 0)
(3 -7.97361e-16 0)
(3 -3.72876e-16 0)
(3 -3.72271e-16 0)
(3 -1.06808e-15 0)
(3 -1.04438e-15 0)
(3 1.54086e-16 0)
(3 6.9424e-16 0)
(3 4.0714e-16 0)
(3 -9.35409e-17 0)
(3 -7.36894e-16 0)
(3 -9.29222e-16 0)
(3 -9.61972e-16 0)
(3 -8.77371e-16 0)
(3 -1.03984e-15 0)
(3 -1.14405e-15 0)
(3 -8.45892e-16 0)
(3 -5.24847e-16 0)
(3 -4.51578e-16 0)
(3 -6.56445e-16 0)
(3 -7.30544e-16 0)
(3 -8.66567e-17 0)
(3 1.93788e-16 0)
(3 2.43111e-16 0)
(3 -5.78431e-16 0)
(3 -1.34893e-15 0)
(3 -1.34593e-15 0)
(3 -1.0491e-15 0)
(3 5.52191e-17 0)
(3 1.08841e-15 0)
(3 6.39794e-16 0)
(3 -8.72515e-16 0)
(3 -9.61817e-16 0)
(3 -9.88269e-16 0)
(3 -4.54955e-16 0)
(3 1.95363e-16 0)
(3 1.49989e-16 0)
(3 6.10177e-09 0)
(2.69638 0.194872 0)
(0.993843 0.343409 0)
(0.799301 0.321416 0)
(0.783145 0.310568 0)
(0.764578 0.31101 0)
(0.749637 0.312684 0)
(0.735938 0.315415 0)
(0.722822 0.318288 0)
(0.709863 0.321605 0)
(0.697155 0.325649 0)
(0.684742 0.329715 0)
(0.67252 0.332764 0)
(0.660376 0.334471 0)
(0.648196 0.3356 0)
(0.635932 0.337705 0)
(0.623782 0.342263 0)
(0.612165 0.349794 0)
(0.600727 0.358677 0)
(0.588233 0.365647 0)
(0.574686 0.368839 0)
(0.56072 0.371267 0)
(0.547303 0.37712 0)
(0.535123 0.386148 0)
(0.522146 0.39479 0)
(0.507714 0.401483 0)
(0.492624 0.408177 0)
(0.477301 0.415821 0)
(0.46171 0.424319 0)
(0.445619 0.433308 0)
(0.42869 0.442637 0)
(0.410635 0.452055 0)
(0.391743 0.461942 0)
(0.3721 0.472269 0)
(0.351864 0.483176 0)
(0.331318 0.494683 0)
(0.310159 0.50697 0)
(0.287952 0.519884 0)
(0.264548 0.533644 0)
(0.239415 0.547751 0)
(0.212677 0.562626 0)
(0.183902 0.577513 0)
(0.1537 0.592963 0)
(0.122005 0.607237 0)
(0.0888674 0.6188 0)
(0.0541072 0.625463 0)
(0.0171621 0.6295 0)
(3 -4.42642e-17 0)
(3 -4.83067e-17 0)
(3 -8.08972e-19 0)
(3 1.55862e-17 0)
(3 1.49581e-16 0)
(3 5.04295e-16 0)
(3 6.00123e-16 0)
(3 6.037e-16 0)
(3 5.09661e-16 0)
(3 6.52237e-16 0)
(3 6.56636e-16 0)
(3 3.29739e-16 0)
(3 1.76073e-16 0)
(3 4.06582e-16 0)
(3 7.61831e-16 0)
(3 8.2677e-16 0)
(3 7.49436e-16 0)
(3 7.92024e-16 0)
(3 2.36959e-16 0)
(3 1.31111e-16 0)
(3 -3.89398e-16 0)
(3 -7.76536e-16 0)
(3 -9.85012e-16 0)
(3 -1.00653e-15 0)
(3 -6.79662e-16 0)
(3 -2.67942e-16 0)
(3 1.98136e-17 0)
(3 1.43928e-16 0)
(3 -1.05727e-16 0)
(3 -1.44439e-16 0)
(3 -2.56647e-16 0)
(3 -7.99255e-16 0)
(3 -1.09095e-15 0)
(3 -7.99828e-16 0)
(3 1.31713e-16 0)
(3 2.40156e-16 0)
(3 1.20232e-17 0)
(3 -2.38526e-17 0)
(3 7.3501e-17 0)
(3 2.95597e-17 0)
(3 -2.39168e-16 0)
(3 -2.02418e-16 0)
(3 -2.76316e-16 0)
(3 -1.46881e-15 0)
(3 -1.69083e-15 0)
(3 -1.73854e-15 0)
(3 -6.73476e-16 0)
(3 8.27904e-16 0)
(3 2.61061e-16 0)
(3 1.00092e-11 0)
(3.01847 0.00572246 0)
(1.42549 0.382096 0)
(0.852093 0.34232 0)
(0.818972 0.347729 0)
(0.798948 0.343846 0)
(0.781984 0.341586 0)
(0.766669 0.342349 0)
(0.752554 0.345031 0)
(0.738913 0.348921 0)
(0.725429 0.353457 0)
(0.711926 0.357694 0)
(0.698397 0.360841 0)
(0.68493 0.362937 0)
(0.671559 0.364804 0)
(0.658356 0.36757 0)
(0.645499 0.372258 0)
(0.633349 0.379491 0)
(0.622013 0.388458 0)
(0.610488 0.396597 0)
(0.59812 0.40179 0)
(0.585263 0.405085 0)
(0.572588 0.410375 0)
(0.56104 0.419255 0)
(0.549915 0.429838 0)
(0.537501 0.439322 0)
(0.524098 0.447872 0)
(0.510175 0.456734 0)
(0.495875 0.466641 0)
(0.481434 0.477452 0)
(0.466414 0.489091 0)
(0.450173 0.500968 0)
(0.432969 0.51342 0)
(0.414727 0.526444 0)
(0.395743 0.540359 0)
(0.376056 0.555271 0)
(0.355668 0.571483 0)
(0.334286 0.588958 0)
(0.311879 0.60789 0)
(0.288232 0.627884 0)
(0.263353 0.648506 0)
(0.237039 0.66861 0)
(0.208441 0.686809 0)
(0.177513 0.705013 0)
(0.140587 0.725669 0)
(0.0950565 0.74951 0)
(0.0362978 0.769541 0)
(3 -5.68504e-17 0)
(3 1.07369e-17 0)
(3 -2.00901e-17 0)
(3 -8.51442e-17 0)
(3 1.66731e-17 0)