/*--------------------------------*- C++ -*----------------------------------*\
  =========                 |
  \\      /  F ield         | OpenFOAM: The Open Source CFD Toolbox
   \\    /   O peration     | Website:  https://openfoam.org
    \\  /    A nd           | Version:  7
     \\/     M anipulation  |
\*---------------------------------------------------------------------------*/
FoamFile
{
    version     2.0;
    format      ascii;
    class       volScalarField;
    location    "2.54";
    object      T;
}
// * * * * * * * * * * * * * * * * * * * * * * * * * * * * * * * * * * * * * //

dimensions      [0 0 0 1 0 0 0];

internalField   nonuniform List<scalar> 
1000
(
0
0
0
0
0
0
0
0
0
0
0
0
0
0
0
0
0
0
0
0
0
0
0
0
0
0
0
0
0
0
0
0
0
0
0
0
0
0
0
0
0
0
0
0
0
0
0
0
0
0
0
0
0
0
0
0
0
0
0
0
0
0
0
0
0
0
0
0
0
0
0
0
0
0
0
0
0
0
0
0
0
0
0
0
0
0
0
0
0
0
0
0
0
0
0
0
0
0
0
0
0
0
0
0
0
0
0
0
0
0
0
0
0
0
0
0
0
0
0
0
0
0
0
0
0
0
0
0
0
0
0
0
0
0
0
0
0
0
0
0
0
0
0
0
0
0
0
0
0
0
0
0
0
0
0
0
0
0
0
0
0
0
0
0
0
0
0
0
0
0
0
0
0
0
0
0
0
0
0
0
0
0
0
0
0
0
0
0
0
0
0
0
0
0
0
0
7.72616e-275
-1.70001e-271
1.86216e-268
-1.35391e-265
7.35045e-263
-3.17839e-260
1.14022e-257
-3.49048e-255
9.30764e-253
-2.19626e-250
4.64303e-248
-8.88278e-246
1.55067e-243
-2.4873e-241
3.68761e-239
-5.079e-237
6.5276e-235
-7.85886e-233
8.89386e-231
-9.49027e-229
9.57452e-227
-9.1555e-225
8.31666e-223
-7.19123e-221
5.93002e-219
-4.67143e-217
3.52102e-215
-2.54298e-213
1.76221e-211
-1.17315e-209
7.51166e-208
-4.631e-206
2.75175e-204
-1.57743e-202
8.73143e-201
-4.67064e-199
2.41637e-197
-1.20996e-195
5.86811e-194
-2.75826e-192
1.25734e-190
-5.56172e-189
2.38862e-187
-9.96545e-186
4.04092e-184
-1.59333e-182
6.11186e-181
-2.28177e-179
8.29436e-178
-2.93682e-176
1.01326e-174
-3.40778e-173
1.11758e-171
-3.57507e-170
1.11591e-168
-3.3997e-167
1.01122e-165
-2.93744e-164
8.33529e-163
-2.31107e-161
6.26254e-160
-1.65896e-158
4.29699e-157
-1.08851e-155
2.69727e-154
-6.53927e-153
1.55141e-151
-3.60244e-150
8.18867e-149
-1.82242e-147
3.97163e-146
-8.477e-145
1.77227e-143
-3.6299e-142
7.28433e-141
-1.43242e-139
2.76052e-138
-5.21432e-137
9.65472e-136
-1.75251e-134
3.1189e-133
-5.44257e-132
9.31331e-131
-1.56292e-129
2.5724e-128
-4.15276e-127
6.57599e-126
-1.0215e-124
1.55666e-123
-2.32729e-122
3.41371e-121
-4.91296e-120
6.9377e-119
-9.61297e-118
1.30702e-116
-1.74381e-115
2.28307e-114
-2.93323e-113
3.69814e-112
-4.57547e-111
5.55521e-110
-6.61876e-109
7.73856e-108
-8.87857e-107
9.9958e-106
-1.10426e-104
1.19699e-103
-1.2731e-102
1.32851e-101
-1.36011e-100
1.36607e-99
-1.34595e-98
1.30081e-97
-1.2331e-96
1.14641e-95
-1.04521e-94
9.34433e-94
-8.19075e-93
7.03852e-92
-5.9288e-91
4.89464e-90
-3.95986e-89
3.1389e-88
-2.43746e-87
1.85389e-86
-1.38079e-85
1.00689e-84
-7.18689e-84
5.01999e-83
-3.43046e-82
2.29278e-81
-1.49831e-80
9.57019e-80
-5.97259e-79
3.64044e-78
-2.16624e-77
1.25781e-76
-7.12278e-76
3.93154e-75
-2.11386e-74
1.10632e-73
-5.6316e-73
2.78573e-72
-1.33771e-71
6.22859e-71
-2.80827e-70
1.22411e-69
-5.14892e-69
2.08515e-68
-8.10711e-68
3.01546e-67
-1.06802e-66
3.57919e-66
-1.12459e-65
3.26615e-65
-8.5544e-65
1.92009e-64
-3.19223e-64
1.1015e-64
1.99313e-63
-1.09001e-62
3.82053e-62
-1.00608e-61
1.84952e-61
-9.64993e-62
-9.60873e-61
5.07922e-60
-1.54201e-59
2.97653e-59
-1.45016e-59
-1.55643e-58
7.48862e-58
-1.92826e-57
2.37364e-57
4.28522e-57
-3.30389e-56
9.48792e-56
-1.24018e-55
-1.96304e-55
1.53639e-54
-4.04616e-54
3.63319e-54
1.44863e-53
-7.13787e-53
1.35986e-52
3.00385e-53
-9.60762e-52
2.71876e-51
-2.02551e-51
-1.10625e-50
4.39394e-50
-5.42561e-50
-1.19873e-49
6.46181e-49
-9.61311e-49
-1.39844e-48
9.1392e-48
-1.3973e-47
-1.99834e-47
1.26672e-46
-1.71376e-46
-3.41671e-46
1.69748e-45
-1.63935e-45
-6.07246e-45
2.10625e-44
-7.50128e-45
-1.00054e-43
2.23084e-43
1.38101e-43
-1.42008e-42
1.65099e-42
4.73081e-42
-1.60033e-41
8.93991e-44
8.1558e-41
-1.17017e-40
-2.48551e-40
9.15927e-40
5.25951e-41
-4.57202e-39
5.2079e-39
1.61834e-38
-4.29476e-38
-3.18336e-38
2.36119e-37
-7.93965e-38
-1.03078e-36
1.2805e-36
3.67524e-36
-8.79964e-36
-1.00464e-35
4.69055e-35
1.34287e-35
-2.17255e-34
6.92219e-35
9.15293e-34
-7.69589e-34
-3.59843e-33
4.86189e-33
1.34491e-32
-2.53685e-32
-4.86154e-32
1.19535e-31
1.73272e-31
-5.27889e-31
-6.23035e-31
2.22681e-30
2.31632e-30
-9.06233e-30
-9.07439e-30
3.57207e-29
3.76225e-29
-1.36213e-28
-1.62993e-28
4.99235e-28
7.21204e-28
-1.73501e-27
-3.18192e-27
5.57305e-27
1.37121e-26
-1.56766e-26
-5.67212e-26
3.3006e-26
2.21494e-25
-9.68073e-27
-8.0022e-25
-4.12706e-25
2.5926e-24
3.06688e-24
-7.06984e-24
-1.55085e-23
1.33387e-23
6.32314e-23
3.58721e-24
-2.11654e-22
-1.8933e-22
5.45229e-22
1.11984e-21
-7.67908e-22
-4.42014e-21
-1.84155e-21
1.25092e-20
1.89993e-20
-1.98519e-20
-8.25471e-20
-3.00556e-20
2.25981e-19
3.61977e-19
-2.66951e-19
-1.45471e-18
-1.01877e-18
3.14743e-18
7.26844e-18
2.43419e-19
-2.16102e-17
-3.10176e-17
2.0246e-17
1.21577e-16
1.20169e-16
-1.7627e-16
-6.21402e-16
-4.55542e-16
1.07639e-15
3.04316e-15
1.89117e-15
-5.53229e-15
-1.4681e-14
-9.48971e-15
2.47558e-14
7.00527e-14
5.61023e-14
-9.24218e-14
-3.23828e-13
-3.47711e-13
2.299e-13
1.38226e-12
2.04303e-12
2.65438e-13
-4.95227e-12
-1.06052e-11
-8.27933e-12
1.11372e-11
4.48542e-11
6.45557e-11
1.91914e-11
-1.27114e-10
-3.24269e-10
-3.79017e-10
-5.97566e-13
9.70947e-10
2.18518e-09
2.48988e-09
1.63355e-10
-5.92033e-09
-1.42483e-08
-1.87317e-08
-8.89779e-09
2.54076e-08
8.3737e-08
1.41674e-07
1.42145e-07
3.86916e-09
-3.4028e-07
-8.70467e-07
-1.38718e-06
-1.44093e-06
-3.54489e-07
2.57849e-06
7.65389e-06
1.40779e-05
1.91687e-05
1.77188e-05
1.96988e-06
-3.72172e-05
-0.000107371
-0.000209072
-0.000328014
-0.000424625
-0.000421967
-0.000193151
0.000449967
0.00176485
0.00408105
0.00779615
0.0133637
0.0212734
0.0320238
0.0460904
0.0638908
0.0857508
0.111874
0.142321
0.17699
0.215622
0.257801
0.302975
0.350485
0.399593
0.449521
0.499487
0.54874
0.596589
0.642429
0.685755
0.726176
0.763416
0.797311
0.827799
0.854911
0.878756
0.899503
0.917367
0.932592
0.945441
0.95618
0.965072
0.972368
0.9783
0.983083
0.986905
0.989935
0.992317
0.994176
0.995614
0.996719
0.997561
0.998199
0.998678
0.999036
0.999301
0.999496
0.999639
0.999743
0.999818
0.999872
0.99991
0.999937
0.999957
0.99997
0.99998
0.999986
0.999991
0.999994
0.999996
0.999997
0.999998
0.999999
0.999999
0.999999
1
1
1
1
1
1
1
1
1
1
1
1
1
1
1
1
1
1
0.999997
0.999992
0.999986
0.999981
0.999982
0.999998
1.00004
1.00011
1.00021
1.00033
1.00042
1.00042
1.00019
0.99955
0.998235
0.995919
0.992204
0.986636
0.978727
0.967976
0.95391
0.936109
0.914249
0.888126
0.857679
0.82301
0.784378
0.742199
0.697025
0.649515
0.600407
0.550479
0.500513
0.45126
0.403411
0.357571
0.314245
0.273824
0.236584
0.202689
0.172201
0.145089
0.121244
0.100497
0.0826333
0.067408
0.0545592
0.04382
0.0349278
0.0276321
0.0216995
0.0169172
0.0130948
0.0100649
0.00768263
0.00582435
0.00438602
0.00328115
0.00243872
0.00180103
0.00132176
0.000964044
0.000698877
0.000503624
0.000360791
0.000256974
0.000181991
0.000128166
8.97645e-05
6.25284e-05
4.33242e-05
2.98607e-05
2.0475e-05
1.3968e-05
9.4813e-06
6.4041e-06
4.30465e-06
2.87965e-06
1.91732e-06
1.27068e-06
8.38283e-07
5.50542e-07
3.59969e-07
2.34337e-07
1.51897e-07
9.80422e-08
6.30177e-08
4.03388e-08
2.5717e-08
1.63297e-08
1.03282e-08
6.50696e-09
4.08383e-09
2.55338e-09
1.59053e-09
9.87124e-10
6.10415e-10
3.76119e-10
2.30935e-10
1.413e-10
8.61596e-11
5.23589e-11
3.1712e-11
1.91436e-11
1.15187e-11
6.9086e-12
4.13043e-12
2.46171e-12
1.46263e-12
8.66371e-13
5.11637e-13
3.01248e-13
1.76851e-13
1.03521e-13
6.04225e-14
3.51671e-14
2.04107e-14
1.18134e-14
6.81869e-15
3.92512e-15
2.25343e-15
1.29029e-15
7.36876e-16
4.19741e-16
2.38484e-16
1.35158e-16
7.64081e-17
4.30891e-17
2.42401e-17
1.36036e-17
7.61622e-18
4.25402e-18
2.37053e-18
1.31792e-18
7.31044e-19
4.0459e-19
2.23417e-19
1.231e-19
6.76785e-20
3.71281e-20
2.03247e-20
1.11026e-20
6.05225e-21
3.29235e-21
1.78732e-21
9.68314e-22
5.23547e-22
2.82507e-22
1.52141e-22
8.17738e-23
4.38675e-23
2.34876e-23
1.2552e-23
6.69529e-24
3.56467e-24
1.89439e-24
1.00491e-24
5.32107e-25
2.81251e-25
1.48395e-25
7.81597e-26
4.10951e-26
2.15699e-26
1.13022e-26
5.91216e-27
3.08745e-27
1.60965e-27
8.37815e-28
4.35367e-28
2.25872e-28
1.16996e-28
6.05049e-29
3.12411e-29
1.61059e-29
8.2903e-30
4.26079e-30
2.1865e-30
1.12035e-30
5.73205e-31
2.92834e-31
1.49381e-31
7.60917e-32
3.87036e-32
1.96582e-32
9.97052e-33
5.04987e-33
2.55409e-33
1.29e-33
6.5065e-34
3.27727e-34
1.6485e-34
8.28103e-35
4.15433e-35
2.08135e-35
1.0414e-35
5.2039e-36
2.59704e-36
1.29442e-36
6.44343e-37
3.20342e-37
1.59062e-37
7.88829e-38
3.90718e-38
1.93292e-38
9.55075e-39
4.71345e-39
2.32339e-39
1.14391e-39
5.62534e-40
2.76312e-40
1.35565e-40
6.64347e-41
3.25197e-41
1.59004e-41
7.76565e-42
3.78847e-42
1.84616e-42
8.98658e-43
4.36964e-43
2.12239e-43
1.02976e-43
4.99096e-44
2.4164e-44
1.16868e-44
5.64635e-45
2.72513e-45
1.31389e-45
6.32826e-46
3.04485e-46
1.46356e-46
7.02773e-47
3.37122e-47
1.61558e-47
7.73467e-48
3.69939e-48
1.76765e-48
8.43806e-49
4.02413e-49
1.91729e-49
9.12625e-50
4.33999e-50
2.06195e-50
9.78735e-51
4.64142e-51
2.19907e-51
1.04095e-51
4.923e-52
2.32616e-52
1.09814e-52
5.17958e-53
2.44088e-53
1.14926e-53
5.40641e-54
2.54112e-54
1.19335e-54
5.59936e-55
2.62507e-55
1.22963e-55
5.755e-56
2.69124e-56
1.25748e-56
5.8707e-57
2.73856e-57
1.27645e-57
5.9447e-58
2.76636e-58
1.28629e-58
5.97618e-59
2.77437e-59
1.28696e-59
5.96521e-60
2.76279e-60
1.2786e-60
5.91275e-61
2.7322e-61
1.26155e-61
5.82061e-62
2.68353e-62
1.23629e-62
5.69132e-63
2.61809e-63
1.20347e-63
5.52806e-64
2.53742e-64
1.16386e-64
5.33452e-65
2.44332e-65
1.1183e-65
5.11479e-66
2.33773e-66
1.06772e-66
4.87323e-67
2.22268e-67
1.01307e-67
4.6143e-68
2.10027e-68
9.55329e-69
4.34248e-69
1.97257e-69
8.95443e-70
4.06215e-70
1.84157e-70
8.34328e-71
3.77748e-71
1.70917e-71
7.72839e-72
3.49232e-72
1.57711e-72
7.11762e-73
3.21021e-73
1.44697e-73
6.51797e-74
2.93424e-74
1.32011e-74
5.93553e-75
2.66711e-75
1.19773e-75
5.37542e-76
2.41104e-76
1.08077e-76
4.8418e-77
2.16781e-77
9.70012e-78
4.33788e-78
1.93876e-78
8.66001e-79
3.86598e-79
1.72485e-79
7.69117e-80
3.42756e-80
1.52662e-80
6.79567e-81
3.02335e-81
1.34431e-81
5.97406e-82
2.65337e-82
1.17784e-82
5.2256e-83
2.31712e-83
1.02689e-83
4.54844e-84
2.01357e-84
8.9092e-85
3.93983e-85
1.74135e-85
7.69242e-86
3.39634e-86
1.49876e-86
6.61036e-87
2.91402e-87
1.28391e-87
5.65397e-88
2.48857e-88
1.09465e-88
4.83094e-89
1.8552e-89
)
;

boundaryField
{
    sides
    {
        type            zeroGradient;
    }
    empty
    {
        type            empty;
    }
}


// ************************************************************************* //
