/*--------------------------------*- C++ -*----------------------------------*\
  =========                 |
  \\      /  F ield         | OpenFOAM: The Open Source CFD Toolbox
   \\    /   O peration     | Website:  https://openfoam.org
    \\  /    A nd           | Version:  7
     \\/     M anipulation  |
\*---------------------------------------------------------------------------*/
FoamFile
{
    version     2.0;
    format      ascii;
    class       volScalarField;
    location    "48";
    object      p;
}
// * * * * * * * * * * * * * * * * * * * * * * * * * * * * * * * * * * * * * //

dimensions      [0 2 -2 0 0 0 0];

internalField   nonuniform List<scalar> 
16000
(
8.0941058e-06
-0.0001323746
-0.00044390422
-0.00084627258
-0.0012644913
-0.0016531652
-0.0019814234
-0.0022304282
-0.0023895426
-0.0024530601
-0.0024180392
-0.0022830234
-0.0020474445
-0.0017115471
-0.0012766888
-0.00074587728
-0.00012442195
0.00057941078
0.0013538413
0.0021832117
0.0030478939
0.0039245335
0.0047866559
0.0056056727
0.0063522508
0.0069979962
0.0075173482
0.0078895277
0.0081003625
0.0081438198
0.0080231111
0.0077512989
0.0073513734
0.006855824
0.0063055641
0.0057480996
0.0052383892
0.0048326438
0.0045926181
0.0045537668
0.00015252214
7.5853758e-06
-0.00024250916
-0.0005513953
-0.00087359745
-0.0011748032
-0.0014307661
-0.0016253071
-0.0017480686
-0.0017926089
-0.0017549862
-0.0016328351
-0.0014249013
-0.0011309543
-0.00075198718
-0.00029060689
0.00024847821
0.00085796112
0.0015275108
0.0022434912
0.0029888942
0.0037436862
0.0044851642
0.0051889858
0.0058303101
0.0063852347
0.0068324124
0.0071547226
0.0073408389
0.0073865177
0.0072954558
0.0070796484
0.0067592535
0.0063620031
0.0059221563
0.0054788057
0.0050731342
0.0047484619
0.0045498496
0.0045142531
0.00047114514
0.00025326081
-2.5777372e-06
-0.00028162725
-0.0005618751
-0.00081881749
-0.0010346635
-0.0011973532
-0.0012986815
-0.0013331308
-0.0012969833
-0.0011877057
-0.0010036561
-0.00074407835
-0.00040931921
-1.1976442e-06
0.00047654625
0.0010177961
0.0016136644
0.0022522258
0.002918477
0.003594456
0.0042597915
0.0048924846
0.0054700095
0.0059706531
0.0063750089
0.0066675176
0.0068379264
0.0068825026
0.0068048242
0.0066160191
0.0063344303
0.0059847962
0.0055970524
0.0052046921
0.0048424278
0.0045445391
0.0043472247
0.0042798628
0.0008927565
0.00056149767
0.00026080312
-2.4982855e-05
-0.00029558593
-0.000534737
-0.00073087158
-0.00087677296
-0.00096736778
-0.00099896175
-0.00096874382
-0.00087442862
-0.00071414427
-0.00048655092
-0.00019113783
0.00017135428
0.00059844396
0.0010854171
0.001624896
0.0022065373
0.0028169199
0.0034395993
0.0040556062
0.0046441369
0.0051836216
0.0056530559
0.0060334955
0.0063095881
0.0064710075
0.0065136517
0.0064404461
0.0062615855
0.0059941156
0.0056608968
0.0052891287
0.0049086293
0.0045501181
0.0042436559
0.0040158061
0.0038802488
0.0013435507
0.00088388494
0.00052072898
0.00021041283
-6.7295629e-05
-0.00030335335
-0.00049208695
-0.00063123446
-0.00071913692
-0.00075422736
-0.00073484372
-0.00065908601
-0.00052487275
-0.0003301947
-7.3517482e-05
0.00024571025
0.0006264886
0.0010656933
0.0015575612
0.0020933009
0.0026608915
0.0032451136
0.0038278991
0.0043889984
0.0049070073
0.00536071
0.0057306413
0.0060007099
0.0061597039
0.006202518
0.0061309712
0.0059540824
0.0056876771
0.0053532682
0.004976314
0.0045842588
0.00420529
0.0038666518
0.0035839896
0.0033604094
0.0017703948
0.0011772705
0.00074260876
0.00039655937
9.9996514e-05
-0.00014429297
-0.00033600248
-0.00047758685
-0.00057073668
-0.00061602586
-0.0006129635
-0.00056002366
-0.00045485107
-0.00029464897
-7.6699725e-05
0.00020102138
0.00053917703
0.00093638874
0.0013886069
0.001888601
0.002425643
0.0029854595
0.0035504862
0.0041005005
0.0046136144
0.0050676299
0.0054416782
0.0057179935
0.0058835996
0.005931681
0.0058624666
0.0056835253
0.0054094115
0.0050605805
0.0046615306
0.0042386177
0.003819148
0.0034295764
0.003076985
0.0027496977
0.0021280853
0.001403111
0.00089352668
0.00050529686
0.00018202531
-7.8954648e-05
-0.00028215778
-0.0004343664
-0.00054036518
-0.00060269882
-0.00062191692
-0.00059674404
-0.00052441475
-0.00040118635
-0.00022298018
1.3887229e-05
0.00031191922
0.00067164058
0.0010908381
0.0015639088
0.0020813986
0.0026298352
0.0031918734
0.0037468913
0.0042719665
0.0047432538
0.0051376981
0.0054349565
0.0056193234
0.0056813778
0.0056190834
0.0054381809
0.0051518549
0.004779679
0.0043457503
0.0038764237
0.0033997386
0.0029432559
0.0025069923
0.0020654278
0.002378059
0.0015266548
0.00094258333
0.00050941144
0.00015482663
-0.00012873002
-0.00035012505
-0.00052004355
-0.00064601866
-0.00073228741
-0.00078020776
-0.00078855105
-0.00075395043
-0.00067152462
-0.00053563145
-0.00034071742
-8.2227741e-05
0.00024246491
0.00063316296
0.0010860409
0.0015930206
0.0021414545
0.0027141088
0.0032896914
0.0038437996
0.0043503408
0.0047833382
0.0051190024
0.0053378956
0.0054269219
0.0053808105
0.005202804
0.0049044508
0.004504553
0.0040272596
0.0034998043
0.0029523826
0.002415508
0.0018841052
0.0013215649
0.0024865075
0.0015162117
0.00086048018
0.00038202196
-6.279144e-06
-0.00031650173
-0.00056148416
-0.00075541172
-0.00090820128
-0.0010254617
-0.001109078
-0.0011576194
-0.0011668917
-0.0011306581
-0.0010414899
-0.00089172243
-0.00067448783
-0.00038478246
-2.0514595e-05
0.0004165283
0.00091987719
0.0014779031
0.0020735702
0.0026848497
0.0032855666
0.0038468444
0.0043390291
0.0047339547
0.0050073714
0.005141302
0.0051260036
0.0049611627
0.0046560582
0.0042286292
0.0037034663
0.0031094761
0.0024802687
0.0018510307
0.0012131277
0.00051964054
0.0024229563
0.0013427006
0.00061965514
9.7085758e-05
-0.00032594718
-0.00066579181
-0.00093895214
-0.0011627525
-0.0013491496
-0.0015048089
-0.0016318565
-0.0017283999
-0.0017891763
-0.0018063612
-0.0017704992
-0.0016715466
-0.0015000111
-0.001248153
-0.00091119456
-0.00048847633
1.553576e-05
0.00059063346
0.0012202349
0.0018817331
0.0025471052
0.0031842959
0.0037592309
0.004238318
0.0045912257
0.004793681
0.0048299778
0.0046948215
0.004394122
0.0039444518
0.0033710229
0.0027051589
0.0019851042
0.0012523474
0.00049585581
-0.00034127555
0.0021596285
0.0009794842
0.00019450882
-0.00037004615
-0.0008279917
-0.0011997661
-0.0015052861
-0.0017646963
-0.0019916867
-0.0021936975
-0.0023728376
-0.0025265134
-0.0026481631
-0.0027281398
-0.0027547072
-0.0027151492
-0.0025969926
-0.002389324
-0.0020841589
-0.0016778062
-0.0011721277
-0.00057524394
9.7154501e-05
0.00082228218
0.001570435
0.0023062042
0.0029904733
0.0035831231
0.0040462365
0.004347487
0.0044633452
0.0043817122
0.0041035496
0.0036430278
0.003025738
0.0022859858
0.0014678881
0.00062090136
-0.00026760822
-0.0012647756
0.0016713302
0.00040244405
-0.00043831395
-0.0010421495
-0.0015347331
-0.0019404437
-0.0022823943
-0.0025832689
-0.0028582291
-0.0031152553
-0.0033562287
-0.0035776604
-0.0037714963
-0.0039260526
-0.0040270575
-0.004058807
-0.0040054478
-0.0038523868
-0.003587801
-0.003204181
-0.0026998264
-0.0020803647
-0.0013593251
-0.00055910666
0.00028931244
0.0011472533
0.0019701519
0.0027103457
0.0033206874
0.003758657
0.0039905083
0.0039949459
0.003765831
0.0033132973
0.0026625052
0.0018509367
0.0009297647
-4.1784911e-05
-0.0010773985
-0.0022552462
0.00093566391
-0.00040975359
-0.001299546
-0.0019396135
-0.0024663504
-0.0029079238
-0.0032904473
-0.003638901
-0.003969706
-0.0042912058
-0.0046049033
-0.0049062812
-0.0051856569
-0.0054291437
-0.005619706
-0.0057383343
-0.0057653635
-0.0056819515
-0.0054717084
-0.0051224266
-0.0046278588
-0.0039896517
-0.0032183167
-0.0023347403
-0.001370357
-0.00036670219
0.00062609259
0.0015520069
0.002353035
0.0029740456
0.0033680957
0.0035015251
0.003358132
0.0029416152
0.0022751999
0.0013992097
0.00037286437
-0.00073289509
-0.0019323717
-0.003316002
-6.6548345e-05
-0.0014752635
-0.002406848
-0.0030798903
-0.0036402123
-0.0041195897
-0.0045469512
-0.0049493646
-0.005344355
-0.0057405199
-0.0061389059
-0.0065339062
-0.0069141458
-0.0072634365
-0.0075618083
-0.0077866622
-0.0079140889
-0.0079203875
-0.007783792
-0.0074863858
-0.0070161678
-0.0063692502
-0.0055516956
-0.0045813355
-0.0034887527
-0.0023174484
-0.0011228305
3.0225396e-05
0.0010713898
0.0019303958
0.0025436327
0.0028610363
0.0028522959
0.0025111961
0.0018565859
0.000930592
-0.00019886077
-0.0014470786
-0.0028285735
-0.0044475498
-0.0013507266
-0.0028086018
-0.0037743351
-0.0044769451
-0.0050702161
-0.0055893161
-0.0060658061
-0.0065286679
-0.0069964369
-0.0074779343
-0.0079737591
-0.0084772402
-0.0089753296
-0.0094495218
-0.0098768219
-0.010230829
-0.010483004
-0.01060419
-0.010566398
-0.010344889
-0.0099205094
-0.0092822515
-0.0084297866
-0.0073759186
-0.0061484861
-0.0047914072
-0.0033644458
-0.0019413099
-0.00060577036
0.00055432916
0.0014549243
0.0020246949
0.002213921
0.0020015426
0.0013982451
0.00044590153
-0.00077872212
-0.0021751283
-0.0037576135
-0.0056457866
-0.0029279652
-0.0044201865
-0.0054121321
-0.0061407545
-0.0067661806
-0.0073267187
-0.0078563867
-0.0083859462
-0.0089349158
-0.0095123973
-0.010118648
-0.01074606
-0.011380032
-0.011999821
-0.012579413
-0.013088489
-0.013493594
-0.013759588
-0.013851454
-0.013736496
-0.01338693
-0.01278283
-0.01191531
-0.010789749
-0.0094287398
-0.0078742945
-0.006188746
-0.0044537852
-0.0027670864
-0.0012361512
3.0645694e-05
0.00093522765
0.0014018875
0.0013880434
0.00089058305
-5.2458148e-05
-0.0013562137
-0.0029024695
-0.0047048437
-0.0068999964
-0.0048045185
-0.0063159479
-0.007326014
-0.0080769054
-0.0087333443
-0.0093365031
-0.0099227032
-0.010524407
-0.011162168
-0.011845518
-0.012574584
-0.013341061
-0.014129026
-0.014915693
-0.015672145
-0.016364148
-0.016953165
-0.017397686
-0.017654979
-0.017683346
-0.01744491
-0.01690894
-0.016055667
-0.014880302
-0.013397158
-0.011643227
-0.0096806058
-0.0075969741
-0.0055032915
-0.0035279918
-0.0018072926
-0.00047187816
0.00036881972
0.00064210668
0.00032310816
-0.00055974593
-0.001915691
-0.0036073513
-0.00564721
-0.0081905069
-0.0069814189
-0.0084970881
-0.0095172028
-0.010286354
-0.010972028
-0.011617974
-0.012262712
-0.012940409
-0.013672805
-0.01447012
-0.015332671
-0.016251805
-0.01721063
-0.018184631
-0.019142233
-0.020045422
-0.020850563
-0.021509557
-0.021971462
-0.022184724
-0.022100079
-0.021674194
-0.020874012
-0.019681679
-0.01809977
-0.016156445
-0.013909709
-0.011449882
-0.0088990759
-0.0064065363
-0.0041389058
-0.0022651443
-0.00093697714
-0.0002677119
-0.00031467892
-0.0010677363
-0.0024346975
-0.0042586351
-0.0065506456
-0.0094858514
-0.0094542965
-0.010960061
-0.011982396
-0.012765414
-0.013477523
-0.014164771
-0.014867851
-0.015622764
-0.016452725
-0.017369027
-0.018372618
-0.019454961
-0.02059865
-0.021777871
-0.022958759
-0.024099799
-0.025152406
-0.026061863
-0.026768762
-0.027211117
-0.02732728
-0.027059769
-0.026360047
-0.025194311
-0.023549727
-0.021441303
-0.018918171
-0.016068528
-0.013021691
-0.0099456009
-0.007038144
-0.0045111904
-0.0025674866
-0.0013730708
-0.0010313778
-0.0015628873
-0.0028817503
-0.0048130458
-0.0073668721
-0.010739282
-0.012213468
-0.013696843
-0.014714096
-0.015506053
-0.016240272
-0.016964878
-0.017722849
-0.018552326
-0.01947847
-0.0205142
-0.021661669
-0.022913026
-0.024250902
-0.025648698
-0.02707073
-0.028472383
-0.029800429
-0.03099371
-0.031984348
-0.032699675
-0.033065057
-0.033007737
-0.032461869
-0.031375374
-0.029716246
-0.02748184
-0.02470699
-0.021471764
-0.017906831
-0.014194266
-0.010561414
-0.0072655443
-0.0045681997
-0.0027011172
-0.0018303114
-0.0020234909
-0.0032133491
-0.0052117113
-0.0080294638
-0.011884495
-0.015244358
-0.016695566
-0.017701313
-0.018496542
-0.019246397
-0.020000973
-0.020805866
-0.021701927
-0.022716981
-0.023866336
-0.02515408
-0.026573724
-0.028108557
-0.029731762
-0.031406355
-0.033085097
-0.034710547
-0.036215461
-0.037523736
-0.038552106
-0.039212773
-0.039417126
-0.039080759
-0.0381319
-0.036515771
-0.034207906
-0.03122323
-0.027626827
-0.023543161
-0.01916129
-0.014732964
-0.010560007
-0.0069680889
-0.0042670937
-0.0027041862
-0.0024154459
-0.003369954
-0.0053757959
-0.0084490099
-0.012830413
-0.018528319
-0.019941573
-0.0209307
-0.021722534
-0.02247861
-0.023251122
-0.024088965
-0.025036662
-0.026125762
-0.027374977
-0.028791243
-0.030370215
-0.032096496
-0.03394362
-0.035873813
-0.03783769
-0.039774063
-0.041610071
-0.043261837
-0.044635876
-0.045631483
-0.046144414
-0.046072046
-0.04531861
-0.043807527
-0.041488268
-0.038350446
-0.034437083
-0.029857741
-0.024798986
-0.019528388
-0.014387163
-0.0097663284
-0.0060638998
-0.0036273159
-0.0026862693
-0.0032706691
-0.0052010329
-0.0085072119
-0.013454918
-0.022043911
-0.023419004
-0.024388196
-0.025168587
-0.025917516
-0.026689812
-0.027538902
-0.028514509
-0.029653428
-0.030979125
-0.032502487
-0.034222175
-0.036124765
-0.038184648
-0.040363678
-0.042610712
-0.044861228
-0.047037212
-0.049047549
-0.050789142
-0.052148998
-0.053007587
-0.053243647
-0.052740313
-0.051395199
-0.049130011
-0.045905076
-0.041734928
-0.03670532
-0.030989312
-0.02485851
-0.018683578
-0.012916518
-0.0080487041
-0.0045451339
-0.00275699
-0.0028063583
-0.0045509574
-0.0080497464
-0.013597375
-0.025768723
-0.027113009
-0.028061278
-0.028820188
-0.029543289
-0.030289261
-0.031118145
-0.032087195
-0.033240595
-0.034608313
-0.036206497
-0.038037717
-0.04009111
-0.042342285
-0.044752958
-0.04727043
-0.049827073
-0.052340062
-0.054711538
-0.056829458
-0.058569375
-0.059797417
-0.060374694
-0.06016338
-0.059036199
-0.056885911
-0.053641011
-0.049282613
-0.043864681
-0.037535486
-0.030556758
-0.023314231
-0.016310114
-0.010127429
-0.0053611288
-0.0025117374
-0.001830945
-0.0032486213
-0.0068777027
-0.013049858
-0.029681857
-0.0310128
-0.031941965
-0.032666331
-0.033337669
-0.034020894
-0.034785983
-0.035701171
-0.036820961
-0.03818403
-0.039813273
-0.041716047
-0.043884461
-0.046295449
-0.048910531
-0.051675338
-0.054519088
-0.057354229
-0.060076449
-0.062565311
-0.064685743
-0.066290646
-0.067224874
-0.067330916
-0.066457642
-0.064469733
-0.061263096
-0.056782615
-0.051044526
-0.044162315
-0.036373511
-0.028061492
-0.019761745
-0.012138816
-0.0059219674
-0.0017851309
-0.00015072701
-0.0010665496
-0.0047373217
-0.011546851
-0.033767359
-0.035115823
-0.036030791
-0.0367027
-0.03728624
-0.037856831
-0.038499549
-0.039298522
-0.040322445
-0.041621365
-0.0432265
-0.045150705
-0.047389158
-0.049919831
-0.052703559
-0.055683775
-0.058786089
-0.061917939
-0.064968534
-0.067809308
-0.070295201
-0.072266908
-0.073554506
-0.073982754
-0.073377439
-0.071577997
-0.068448598
-0.063897417
-0.057899842
-0.050527308
-0.041980486
-0.032622199
-0.022999781
-0.013840693
-0.0060023369
-0.00034803446
0.0024883245
0.0022853521
-0.0013076065
-0.0087530719
-0.038019077
-0.039433647
-0.040342127
-0.04093561
-0.041380887
-0.041771223
-0.042214542
-0.042817626
-0.043668227
-0.044830757
-0.046346204
-0.048233244
-0.050489699
-0.05309372
-0.056004414
-0.059161948
-0.062487383
-0.06588242
-0.069229336
-0.072391314
-0.075213588
-0.077525355
-0.079142984
-0.079874743
-0.079527157
-0.077915106
-0.074873786
-0.07027644
-0.064057481
-0.056242688
-0.046986768
-0.036615742
-0.025665745
-0.01490179
-0.0052918896
0.002107207
0.0064150874
0.0071743316
0.0038149556
-0.0042486267
-0.042448007
-0.044000576
-0.044911497
-0.045386862
-0.045622349
-0.045741197
-0.045885443
-0.046193405
-0.046777604
-0.047719775
-0.049071619
-0.050857208
-0.053075776
-0.055704025
-0.058697587
-0.061991689
-0.065501355
-0.069121322
-0.072726057
-0.076169909
-0.079288247
-0.081899016
-0.083805598
-0.084801056
-0.084674142
-0.083217956
-0.080241533
-0.075586189
-0.069147673
-0.060906219
-0.050966088
-0.039604617
-0.027325569
-0.014902812
-0.003387526
0.005980125
0.012049226
0.014062392
0.011135945
0.0024902225
-0.047094072
-0.048886781
-0.049805908
-0.050099832
-0.05002275
-0.049747219
-0.04946507
-0.049357122
-0.049566668
-0.050194999
-0.051304293
-0.052922351
-0.055047426
-0.057652141
-0.060686117
-0.064077286
-0.067732599
-0.071538116
-0.075359506
-0.079040768
-0.082407108
-0.085264916
-0.087404684
-0.088604882
-0.088637665
-0.087276038
-0.084305569
-0.079538966
-0.072836922
-0.06413698
-0.053492916
-0.041127097
-0.027494615
-0.013350404
0.00020489802
0.011771108
0.01991761
0.023527943
0.021289381
0.012118335
-0.05204627
-0.054219102
-0.055138834
-0.055147195
-0.054607947
-0.053772612
-0.052903359
-0.052235776
-0.051948977
-0.052164107
-0.052951476
-0.054339028
-0.056320073
-0.058859312
-0.061897129
-0.065350852
-0.069117013
-0.073070766
-0.077068884
-0.080941156
-0.084503202
-0.087548968
-0.089855531
-0.091186615
-0.091298777
-0.089944611
-0.086888205
-0.081916332
-0.074857972
-0.065611798
-0.054183872
-0.040740255
-0.025677233
-0.009707439
0.0060543439
0.020081317
0.030669144
0.036292798
0.035075367
0.025464734
-0.057478943
-0.060214945
-0.061092179
-0.060640578
-0.059419312
-0.05780187
-0.056145247
-0.054751151
-0.053836323
-0.053538284
-0.053929747
-0.055032555
-0.056829161
-0.059271048
-0.062286076
-0.065775908
-0.069625079
-0.073695879
-0.077830534
-0.081849672
-0.08555439
-0.088725671
-0.091126689
-0.092505891
-0.092601854
-0.091149429
-0.087890237
-0.082585515
-0.075034381
-0.065099293
-0.052741386
-0.038071337
-0.021421066
-0.0034429839
0.014767597
0.031596435
0.045083668
0.053255553
0.053515923
0.043606694
-0.063719776
-0.067238522
-0.067948138
-0.066741797
-0.064513784
-0.061816848
-0.059127102
-0.056818193
-0.055139294
-0.054234507
-0.054168342
-0.054946936
-0.056533914
-0.058861393
-0.061837278
-0.065347787
-0.069260135
-0.073421823
-0.077660655
-0.081784144
-0.085579394
-0.088813398
-0.091234461
-0.092574788
-0.092554735
-0.090889067
-0.087296075
-0.081510434
-0.073300245
-0.062490951
-0.048998498
-0.032876693
-0.014387271
0.0058939966
0.026923578
0.04704399
0.064066712
0.075530403
0.077938608
0.068004499
-0.071381951
-0.075894649
-0.07613352
-0.073673378
-0.069959273
-0.065788439
-0.061769857
-0.058341118
-0.055766096
-0.054176175
-0.053610642
-0.054046542
-0.05541775
-0.057629843
-0.060566349
-0.06409263
-0.068057021
-0.072290407
-0.076605314
-0.080794783
-0.084631674
-0.08786846
-0.090238007
-0.091455584
-0.091222505
-0.089231741
-0.085176056
-0.078760671
-0.069718433
-0.057832375
-0.042966297
-0.025108855
-0.0044398817
0.018569384
0.042964091
0.067104274
0.088610038
0.10448253
0.11010409
0.10075998
-0.081632566
-0.087182787
-0.086271312
-0.081717356
-0.075815669
-0.069655824
-0.063962237
-0.059201527
-0.055614601
-0.053287771
-0.052210429
-0.052311927
-0.05348521
-0.05560049
-0.058512089
-0.062061074
-0.066075329
-0.070368166
-0.07473648
-0.078958854
-0.082794115
-0.08598047
-0.088235582
-0.08925784
-0.088729237
-0.086319915
-0.081694724
-0.074525713
-0.064503845
-0.051359684
-0.034890376
-0.014998523
0.0082479771
0.034514659
0.063012801
0.092225315
0.1196593
0.14172189
0.15240384
0.14512406
-0.096760915
-0.10273923
-0.099199005
-0.091156318
-0.08206357
-0.073262522
-0.065508876
-0.05921806
-0.054541246
-0.051470456
-0.049911254
-0.049724054
-0.050746894
-0.052807064
-0.055725568
-0.059317357
-0.063389427
-0.06773789
-0.072144873
-0.076375662
-0.08017638
-0.083272385
-0.085367556
-0.086144721
-0.085267629
-0.082383819
-0.077129293
-0.069139572
-0.058056637
-0.043545744
-0.025316186
-0.0031517097
0.02304061
0.053141039
0.086633102
0.12228275
0.1577806
0.18895141
0.20809762
0.20632746
-0.12134047
-0.12518811
-0.11587388
-0.10208199
-0.088418101
-0.076199072
-0.066006531
-0.058053004
-0.052292096
-0.048551029
-0.046609188
-0.046233825
-0.047195608
-0.049273533
-0.052253856
-0.055926159
-0.060078387
-0.064491802
-0.068936353
-0.073166712
-0.076919081
-0.07990883
-0.081828994
-0.082349791
-0.081119725
-0.077765424
-0.071896833
-0.063111279
-0.050997093
-0.035142678
-0.015146263
0.009368715
0.038725161
0.073129435
0.11251954
0.15626235
0.20263063
0.24752289
0.2813007
0.2923563
-0.16445791
-0.15843364
-0.13714914
-0.11415822
-0.094108072
-0.077631969
-0.064738644
-0.05516256
-0.048490688
-0.044292355
-0.042173676
-0.041788262
-0.042833317
-0.045040572
-0.048165675
-0.051978006
-0.05625174
-0.060758295
-0.065260116
-0.069505665
-0.073225501
-0.076129294
-0.07790373
-0.078211482
-0.076691468
-0.072948727
-0.066578631
-0.057141535
-0.044173235
-0.027181218
-0.0056368788
0.02103448
0.053463822
0.09233133
0.13829598
0.19182663
0.25266774
0.31751115
0.3762683
0.41537047
-0.24629478
-0.20631882
-0.16213112
-0.12552976
-0.097144525
-0.075879042
-0.060488425
-0.049753219
-0.042661129
-0.038437096
-0.036491237
-0.036366288
-0.037698264
-0.040186078
-0.043568185
-0.047605172
-0.052066869
-0.056722665
-0.061334115
-0.065649268
-0.069398299
-0.072290235
-0.074010604
-0.074220823
-0.07255949
-0.06860651
-0.061962608
-0.052156783
-0.038683787
-0.020981972
0.001595407
0.029824994
0.064686188
0.10746473
0.15987098
0.22417776
0.30290542
0.39553215
0.49624338
0.60321227
-0.42543954
-0.26573092
-0.17722214
-0.12463675
-0.089117381
-0.065103512
-0.049324721
-0.039186199
-0.032984593
-0.029674986
-0.028571631
-0.02918768
-0.031157757
-0.034190838
-0.038038557
-0.04247428
-0.047279123
-0.052232154
-0.057103213
-0.061647517
-0.06560156
-0.068679937
-0.070572616
-0.070941498
-0.069408784
-0.065630656
-0.059133204
-0.049453651
-0.036075564
-0.018403982
0.0042711184
0.032847091
0.068542573
0.11314203
0.16943664
0.2420172
0.3380661
0.46591585
0.64305467
0.92086224
-0.7933135
-0.32444273
-0.14899798
-0.087725936
-0.055346338
-0.036000033
-0.025092066
-0.019201517
-0.016356048
-0.015619626
-0.016494864
-0.018654681
-0.021853804
-0.025889174
-0.030576193
-0.035734592
-0.041179813
-0.046717064
-0.052136774
-0.057210962
-0.061690286
-0.065301682
-0.067746684
-0.068701714
-0.067825308
-0.064708745
-0.058942557
-0.050073205
-0.03759413
-0.020927879
0.00060999322
0.02788071
0.062058427
0.10491305
0.15945101
0.23152769
0.33385115
0.49409191
0.79001607
1.383778
1.1390062e-05
-0.00013147295
-0.00044366473
-0.00084622428
-0.0012646297
-0.0016534314
-0.0019817743
-0.0022308385
-0.0023899944
-0.0024535392
-0.0024185343
-0.0022835243
-0.0020479405
-0.001712027
-0.001277141
-0.00074629026
-0.00012478491
0.00057910841
0.0013536106
0.0021830649
0.003047842
0.0039245834
0.004786808
0.0056059215
0.0063525893
0.0069984185
0.0075178463
0.0078900834
0.0081009434
0.0081443865
0.008023634
0.0077517664
0.0073517781
0.0068561388
0.0063057458
0.0057481369
0.0052382903
0.0048324374
0.0045923201
0.0045537329
0.00015332774
8.0592664e-06
-0.00024209375
-0.00055095151
-0.00087311096
-0.001174262
-0.0014301751
-0.0016246811
-0.0017474227
-0.0017919576
-0.0017543438
-0.0016322159
-0.0014243193
-0.0011304226
-0.00075151785
-0.00029021109
0.00024878948
0.00085817619
0.0015276173
0.0022434796
0.0029887606
0.0037434313
0.0044847933
0.0051885035
0.0058297204
0.0063845472
0.00683165
0.0071539205
0.007340032
0.007385726
0.0072946865
0.0070789172
0.0067586014
0.0063614798
0.0059217782
0.0054785422
0.005072956
0.0047483006
0.0045496691
0.0045143819
0.00047159628
0.00025349997
-2.2919528e-06
-0.00028138917
-0.00056170373
-0.00081868154
-0.0010345503
-0.0011972596
-0.0012986051
-0.0013330694
-0.0012969355
-0.001187671
-0.0010036347
-0.00074407151
-0.00040932802
-1.2220048e-06
0.00047650837
0.0010177475
0.0016136062
0.0022521569
0.0029183956
0.0035943637
0.004259695
0.0048923919
0.0054699225
0.0059705651
0.006374911
0.0066674111
0.006837826
0.0068824227
0.0068047585
0.00661594
0.0063343174
0.0059846652
0.0055969421
0.0052046179
0.00484236
0.0045444075
0.0043469997
0.0042798216
0.0008932197
0.00056153353
0.00026102814
-2.4779228e-05
-0.00029547234
-0.0005346688
-0.00073083243
-0.00087675985
-0.00096737686
-0.00099898943
-0.00096878697
-0.00087448425
-0.0007142096
-0.00048662385
-0.0001912174
0.00017126844
0.00059835354
0.0010853264
0.001624811
0.002206462
0.0028168538
0.0034395404
0.0040555544
0.0046440985
0.0051836057
0.005653065
0.0060335189
0.0063096081
0.0064710163
0.006513661
0.0064404721
0.0062616209
0.0059941235
0.0056608451
0.0052890295
0.0049085275
0.0045500304
0.0042435447
0.0040156426
0.0038800931
0.0013440729
0.00088371623
0.00052092545
0.00021064847
-6.7141808e-05
-0.00030322481
-0.0004919698
-0.00063113209
-0.00071904907
-0.00075415358
-0.00073478448
-0.00065904167
-0.00052484291
-0.00033017829
-7.351382e-05
0.00024570021
0.00062646267
0.0010656504
0.0015575038
0.0020932345
0.0026608202
0.0032450371
0.0038278126
0.0043888994
0.004906902
0.0053606119
0.0057305587
0.0060006345
0.0061596157
0.006202408
0.0061308567
0.0059539913
0.0056876109
0.0053531916
0.0049761949
0.0045841084
0.0042051383
0.0038665406
0.0035839788
0.0033601829
0.0017710118
0.0011769167
0.00074277279
0.0003967993
0.00010014365
-0.00014416537
-0.00033587942
-0.00047747603
-0.00057063855
-0.0006159396
-0.00061288986
-0.00055996415
-0.00045480705
-0.00029462062
-7.6685821e-05
0.00020102211
0.00053916384
0.00093635876
0.001388558
0.0018885351
0.0024255665
0.002985379
0.0035504023
0.0041004069
0.0046135054
0.0050675103
0.0054415644
0.0057178985
0.0058835158
0.005931584
0.0058623418
0.0056833906
0.0054092995
0.0050604973
0.0046614441
0.0042384915
0.0038189704
0.0034294433
0.0030770567
0.0027493872
0.0021288063
0.0014025937
0.00089366593
0.00050553859
0.0001821572
-7.8840063e-05
-0.00028204291
-0.0004342627
-0.00054027428
-0.00060261936
-0.00062184865
-0.00059668769
-0.00052437205
-0.00040115927
-0.00022296924
1.3883791e-05
0.0003119038
0.00067161335
0.0010907961
0.0015638489
0.002081322
0.002629749
0.003191787
0.0037468074
0.0042718774
0.0047431497
0.0051375811
0.0054348445
0.0056192338
0.0056813047
0.0056189982
0.0054380641
0.0051517228
0.0047795662
0.004345666
0.0038763258
0.0033995628
0.0029431136
0.0025071484
0.0020650427
0.0023788835
0.0015259915
0.00094270754
0.0005096627
0.000154951
-0.00012862111
-0.00035001002
-0.00051993674
-0.00064592353
-0.00073220359
-0.00078013513
-0.00078848943
-0.00075390029
-0.00067148802
-0.00053561122
-0.00034071475
-8.2240697e-05
0.00024243978
0.00063312704
0.0010859914
0.001592953
0.002141368
0.0027140112
0.0032895951
0.00384371
0.0043502499
0.0047832321
0.0051188796
0.0053377747
0.0054268243
0.0053807326
0.0052027159
0.0049043311
0.0045044194
0.0040271491
0.0034997045
0.0029522074
0.0024153742
0.0018843571
0.0013210834
0.0024874322
0.0015154164
0.00086059488
0.00038228702
-6.1573974e-06
-0.00031639548
-0.00056136748
-0.00075530018
-0.00090809903
-0.0010253694
-0.0011089971
-0.0011575505
-0.001166834
-0.0011306118
-0.0010414573
-0.00089170715
-0.00067449199
-0.00038480427
-2.0549486e-05
0.0004164835
0.00091982059
0.0014778278
0.0020734737
0.0026847396
0.003285458
0.0038467463
0.0043389342
0.0047338457
0.0050072431
0.0051411728
0.0051258968
0.0049610757
0.0046559614
0.0042285062
0.0037033422
0.0031093582
0.0024800766
0.0018509062
0.0012134872
0.00051906233
0.002423977
0.0013417867
0.00061976325
9.7366057e-05
-0.00032582494
-0.00066568551
-0.00093883302
-0.0011626371
-0.0013490413
-0.0015047082
-0.0016317657
-0.0017283214
-0.0017891107
-0.0018063076
-0.0017704572
-0.0016715183
-0.0015000009
-0.0012481642
-0.00091122584
-0.0004885217
1.548239e-05
0.00059056903
0.0012201524
0.0018816275
0.0025469832
0.0031841748
0.0037591236
0.0042382181
0.0045911141
0.0047935501
0.004829845
0.0046947091
0.0043940256
0.0039443476
0.0033709096
0.0027050321
0.0019848839
0.0012522224
0.00049633036
-0.00034195152
0.0021607397
0.00097846624
0.00019461315
-0.0003697505
-0.00082786658
-0.0011996566
-0.0015051617
-0.0017645753
-0.0019915723
-0.0021935889
-0.0023727363
-0.0025264225
-0.0026480857
-0.0027280768
-0.0027546572
-0.0027151111
-0.0025969682
-0.0023893183
-0.0020841764
-0.0016778459
-0.0011721813
-0.00057530846
9.7081207e-05
0.0008221924
0.0015703211
0.0023060715
0.0029903406
0.0035830059
0.0040461301
0.0043473719
0.0044632134
0.0043815793
0.004103433
0.0036429247
0.0030256412
0.0022858661
0.0014676428
0.00062076953
-0.0002670125
-0.0012655609
0.0016725239
0.00040133719
-0.00043820978
-0.0010418383
-0.0015346043
-0.0019403294
-0.002282262
-0.0025831395
-0.0028581067
-0.0031151387
-0.0033561178
-0.0035775571
-0.0037714039
-0.0039259748
-0.0040269958
-0.0040587599
-0.0040054133
-0.0038523659
-0.0035877988
-0.0032042041
-0.0026998768
-0.0020804324
-0.0013594018
-0.00055919002
0.00028921428
0.0011471312
0.0019700101
0.0027102034
0.0033205614
0.0037585437
0.0039903898
0.0039948149
0.0037656992
0.0033131802
0.0026624125
0.0018508274
0.00092950089
-4.1921175e-05
-0.0010766687
-0.0022561594
0.00093692973
-0.00041093476
-0.0012994386
-0.0019392861
-0.0024662167
-0.0029078042
-0.0032903065
-0.0036387613
-0.0039695728
-0.0042910789
-0.0046047827
-0.0049061669
-0.0051855504
-0.0054290486
-0.0056196267
-0.0057382728
-0.0057653186
-0.0056819204
-0.0054716908
-0.0051224282
-0.0046278885
-0.0039897083
-0.0032183949
-0.0023348292
-0.001370452
-0.00036681016
0.00062596218
0.0015518578
0.0023528859
0.002973913
0.003367977
0.0035014047
0.0033580025
0.0029414889
0.0022751024
0.0013991031
0.00037257984
-0.00073303169
-0.0019314858
-0.0033170646
-6.5222043e-05
-0.0014765048
-0.0024067354
-0.003079546
-0.0036400713
-0.0041194637
-0.0045468022
-0.0049492147
-0.0053442096
-0.0057403799
-0.006138773
-0.0065337809
-0.0069140276
-0.0072633263
-0.0075617098
-0.0077865803
-0.0079140269
-0.0079203444
-0.0077837642
-0.0074863723
-0.0070161737
-0.0063692827
-0.0055517593
-0.0045814243
-0.0034888543
-0.0023175562
-0.0011229496
3.0086655e-05
0.0010712354
0.0019302436
0.0025434975
0.0028609153
0.0028521748
0.0025110737
0.0018564886
0.00093048327
-0.00019917532
-0.0014472163
-0.0028275041
-0.0044487855
-0.0013493516
-0.0028098881
-0.0037742172
-0.004476585
-0.0050700656
-0.0055891813
-0.006065648
-0.0065285085
-0.0069962802
-0.0074777806
-0.0079736113
-0.0084771009
-0.0089751991
-0.0094493994
-0.009876708
-0.010230727
-0.010482919
-0.010604127
-0.010566356
-0.010344865
-0.0099205013
-0.0092822624
-0.0084298256
-0.0073759909
-0.0061485861
-0.0047915221
-0.0033645673
-0.0019414409
-0.00060591659
0.00055417278
0.0014547739
0.0020245617
0.0022137998
0.0020014282
0.0013981582
0.00044579516
-0.00077907418
-0.0021752711
-0.0037563315
-0.0056472237
-0.002926554
-0.0044215006
-0.0054120086
-0.0061403817
-0.0067660201
-0.0073265733
-0.0078562176
-0.0083857763
-0.0089347487