/*--------------------------------*- C++ -*----------------------------------*\
  =========                 |
  \\      /  F ield         | OpenFOAM: The Open Source CFD Toolbox
   \\    /   O peration     | Website:  https://openfoam.org
    \\  /    A nd           | Version:  7
     \\/     M anipulation  |
\*---------------------------------------------------------------------------*/
FoamFile
{
    version     2.0;
    format      ascii;
    class       surfaceScalarField;
    location    "48";
    object      phi;
}
// * * * * * * * * * * * * * * * * * * * * * * * * * * * * * * * * * * * * * //

dimensions      [0 3 -1 0 0 0 0];

internalField   nonuniform List<scalar> 
45600
(
2.7525037e-07
-2.8215818e-07
-7.7499908e-11
4.033743e-07
-1.2809959e-07
-2.4342752e-11
1.3258386e-07
2.7079701e-07
-6.4658194e-12
-5.6229461e-07
6.9487996e-07
-1.3039268e-12
-1.6393019e-06
1.077004e-06
3.7362175e-12
-3.0276155e-06
1.3883075e-06
7.1877569e-12
-4.6524596e-06
1.6248362e-06
9.4739581e-12
-6.4450927e-06
1.7926237e-06
1.1079095e-11
-8.3454197e-06
1.9003162e-06
1.2196657e-11
-1.030144e-05
1.956008e-06
1.2934714e-11
-1.2267399e-05
1.9659474e-06
1.3367309e-11
-1.4201579e-05
1.9341671e-06
1.352168e-11
-1.6064237e-05
1.8626447e-06
1.3390053e-11
-1.7816026e-05
1.7517754e-06
1.2955364e-11
-1.9417054e-05
1.6010143e-06
1.220718e-11
-2.082666e-05
1.4095926e-06
1.1149536e-11
-2.200391e-05
1.1772388e-06
9.7990191e-12
-2.2908773e-05
9.0485305e-07
8.163324e-12
-2.3503872e-05
5.9509139e-07
6.2274137e-12
-2.3756704e-05
2.5282689e-07
3.9646817e-12
-2.3642143e-05
-1.1456467e-07
1.399727e-12
-2.3145013e-05
-4.9713102e-07
-1.3492673e-12
-2.2262581e-05
-8.8242911e-07
-4.1062449e-12
-2.1006624e-05
-1.2559488e-06
-6.7178013e-12
-1.9404868e-05
-1.601745e-06
-9.1405246e-12
-1.7501556e-05
-1.9032989e-06
-1.1402046e-11
-1.5356968e-05
-2.1445771e-06
-1.3446695e-11
-1.3045754e-05
-2.3112029e-06
-1.5002826e-11
-1.0654101e-05
-2.3916397e-06
-1.5681479e-11
-8.2758167e-06
-2.3782658e-06
-1.5300049e-11
-6.0075653e-06
-2.2682323e-06
-1.4118676e-11
-3.9435264e-06
-2.0640263e-06
-1.2621088e-11
-2.1697803e-06
-1.7737435e-06
-1.092563e-11
-7.5854115e-07
-1.4112405e-06
-8.5006499e-12
2.3820286e-07
-9.9673917e-07
-4.9048707e-12
7.9653972e-07
-5.5832437e-07
-1.0068534e-12
9.2927926e-07
-1.3273293e-07
2.668502e-12
7.0558409e-07
2.2368044e-07
5.5719495e-12
2.9046069e-07
4.1509051e-07
8.0455712e-12
2.904434e-07
8.5628516e-13
1.3292996e-07
-4.150663e-07
-2.1749495e-11
-3.0164136e-07
3.0648573e-07
-1.3743999e-11
-1.6153683e-06
1.5845369e-06
-1.2047812e-11
-3.8746833e-06
2.9542093e-06
-1.2871059e-11
-7.0073241e-06
4.2096608e-06
-1.410927e-11
-1.0879738e-05
5.2607392e-06
-1.5698026e-11
-1.5335154e-05
6.0802721e-06
-1.7138196e-11
-2.0215994e-05
6.6734842e-06
-1.8156028e-11
-2.5374053e-05
7.058397e-06
-1.8732404e-11
-3.0673267e-05
7.255242e-06
-1.8889615e-11
-3.5988535e-05
7.2812345e-06
-1.8631191e-11
-4.1202824e-05
7.1484731e-06
-1.7957497e-11
-4.6203968e-05
6.8638047e-06
-1.6880321e-11
-5.0882098e-05
6.4299184e-06
-1.5421866e-11
-5.5128231e-05
5.8471589e-06
-1.3611943e-11
-5.883432e-05
5.1156891e-06
-1.1479162e-11
-6.1894805e-05
4.2377291e-06
-9.027603e-12
-6.4209613e-05
3.2196623e-06
-6.2376626e-12
-6.5688363e-05
2.0738418e-06
-3.0901891e-12
-6.6255473e-05
8.1993551e-07
3.357966e-13
-6.5855987e-05
-5.1405399e-07
3.8730229e-12
-6.4460811e-05
-1.8923145e-06
7.3918044e-12
-6.2072479e-05
-3.2707743e-06
1.0756322e-11
-5.872909e-05
-4.599355e-06
1.3987298e-11
-5.4507077e-05
-5.8237763e-06
1.7103679e-11
-4.9521905e-05
-6.8884876e-06
1.994008e-11
-4.3926395e-05
-7.7401046e-06
2.2112242e-11
-3.7906446e-05
-8.3311745e-06
2.3261441e-11
-3.1674139e-05
-8.6239778e-06
2.340243e-11
-2.5458398e-05
-8.5940402e-06
2.29631e-11
-1.9493612e-05
-8.2330444e-06
2.2313417e-11
-1.400672e-05
-7.5509313e-06
2.1207939e-11
-9.2032869e-06
-6.5771857e-06
1.891315e-11
-5.252899e-06
-5.3616473e-06
1.5176165e-11
-2.2739831e-06
-3.9756851e-06
1.0965687e-11
-3.1728274e-07
-2.5150472e-06
7.6432211e-12
6.5704577e-07
-1.1070538e-06
5.1676668e-12
8.0366766e-07
7.7091281e-08
4.6789706e-12
4.1785554e-07
8.0093295e-07
5.2359197e-12
7.0829016e-07
-3.4797139e-12
-2.735656e-07
-1.4148845e-07
-1.2179901e-11
-1.6274524e-06
1.6603794e-06
-6.9362477e-12
-4.2893735e-06
4.2464667e-06
-8.2884534e-12
-8.2746503e-06
6.9394941e-06
-6.9046796e-12
-1.3474395e-05
9.4094119e-06
-4.9699354e-12
-1.9708702e-05
1.1495052e-05
-3.9426924e-12
-2.6765735e-05
1.313731e-05
-3.2838431e-12
-3.4426604e-05
1.4334357e-05
-2.7146099e-12
-4.247862e-05
1.5110417e-05
-2.2143115e-12
-5.0720441e-05
1.5497066e-05
-1.7786261e-12
-5.8962287e-05
1.5523083e-05
-1.3861423e-12
-6.7023684e-05
1.5209871e-05
-1.0089557e-12
-7.4730527e-05
1.4570647e-05
-6.1990534e-13
-8.1912716e-05
1.3612106e-05
-1.9828532e-13
-8.8403147e-05
1.2337587e-05
2.555228e-13
-9.4038476e-05
1.0751017e-05
7.0651918e-13
-9.8661797e-05
8.8610473e-06
1.098484e-12
-0.0001021271
6.6849588e-06
1.4093979e-12
-0.00010430523
4.2519696e-06
1.6854317e-12
-0.00010509101
1.60571e-06
1.9974594e-12
-0.00010441065
-1.1944184e-06
2.3619115e-12
-0.00010222946
-4.0735e-06
2.6771649e-12
-9.8558521e-05
-6.9417135e-06
2.7975888e-12
-9.3460003e-05
-9.6978751e-06
2.6907167e-12
-8.7050394e-05
-1.2233391e-05
2.5249442e-12
-7.9501001e-05
-1.4437886e-05
2.5542735e-12
-7.1035285e-05
-1.6205821e-05
2.8384841e-12
-6.1922726e-05
-1.7443731e-05
3.0884211e-12
-5.2469143e-05
-1.8077559e-05
2.9116076e-12
-4.3003674e-05
-1.8059517e-05
2.3182355e-12
-3.3862824e-05
-1.7373908e-05
1.9063653e-12
-2.5372236e-05
-1.6041528e-05
2.2959228e-12
-1.7826892e-05
-1.4122525e-05
3.2737659e-12
-1.1470405e-05
-1.1718124e-05
3.7972448e-12
-6.4738554e-06
-8.972235e-06
3.200516e-12
-2.9140411e-06
-6.0748832e-06
2.1496705e-12
-7.5124131e-07
-3.2698816e-06
1.966753e-12
1.9434125e-07
-8.6850136e-07
3.8172457e-12
2.6550597e-07
7.2978434e-07
6.5254353e-12
9.7379353e-07
1.1117459e-12
-7.4583735e-07
6.0436155e-07
-1.2505248e-11
-3.1796189e-06
4.0941621e-06
-1.0399744e-12
-7.3460863e-06
8.4129407e-06
-6.5263028e-12
-1.3163041e-05
1.2756455e-05
-5.9056944e-12
-2.0455807e-05
1.6702183e-05
-3.2944225e-12
-2.8992628e-05
2.0031877e-05
-1.9780843e-12
-3.8513873e-05
2.2658558e-05
-1.1354573e-12
-4.8752676e-05
2.4573161e-05
-3.8040936e-13
-5.9446984e-05
2.5804726e-05
2.6340088e-13
-7.0344837e-05
2.639492e-05
8.026329e-13
-8.1205133e-05
2.6383378e-05
1.2516159e-12
-9.1795987e-05
2.5800724e-05
1.613684e-12
-0.00010189242
2.4667077e-05
1.8948489e-12
-0.00011127464
2.2994322e-05
2.1151486e-12
-0.00011972779
2.0790736e-05
2.3076922e-12
-0.00012704362
1.8066841e-05
2.4894309e-12
-0.00013302417
1.4841596e-05
2.6223436e-12
-0.00013748743
1.1148214e-05
2.629206e-12
-0.00014027452
7.039065e-06
2.4646015e-12
-0.00014125806
2.5892456e-06
2.1826823e-12
-0.00014035078
-2.1017003e-06
1.9165337e-12
-0.00013751439
-6.9098895e-06
1.7100773e-12
-0.00013276703
-1.1689074e-05
1.5004205e-12
-0.00012618931
-1.627559e-05
1.1128961e-12
-0.00011792789
-2.0494814e-05
4.6102535e-13
-0.00010819591
-2.4169864e-05
-2.6508479e-13
-9.7269878e-05
-2.713186e-05
-6.7898073e-13
-8.5482418e-05
-2.923119e-05
-5.7774991e-13
-7.3210952e-05
-3.0349017e-05
-2.5362126e-13
-6.0862266e-05
-3.0408195e-05
-2.6892724e-13
-4.885345e-05
-2.9382725e-05
-7.5446023e-13
-3.7589906e-05
-2.7305084e-05
-1.0269517e-12
-2.7441322e-05
-2.4271118e-05
-2.3030928e-13
-1.8716697e-05
-2.0442742e-05
1.4989824e-12
-1.1639455e-05
-1.6049459e-05
2.8764294e-12
-6.323567e-06
-1.1390763e-05
2.9512452e-12
-2.7515404e-06
-6.8419222e-06
2.5423948e-12
-7.5716261e-07
-2.8628998e-06
3.2250467e-12
-9.5237998e-09
-1.7852658e-08
4.7418894e-12
9.6426984e-07
4.2018364e-12
-1.2279636e-06
1.8323393e-06
-1.4099536e-11
-4.788102e-06
7.6542961e-06
4.8932515e-12
-1.0521532e-05
1.4146377e-05
-5.6980433e-12
-1.8214323e-05
2.0449253e-05
-6.8340611e-12
-2.7603927e-05
2.6091792e-05
-4.461181e-12
-3.8396288e-05
3.0824242e-05
-3.7279248e-12
-5.0283047e-05
3.4545321e-05
-3.3976805e-12
-6.2954777e-05
3.7244894e-05
-2.9689427e-12
-7.6109033e-05
3.8958985e-05
-2.547788e-12
-8.945377e-05
3.9739659e-05
-2.1399686e-12
-0.00010270747
3.963708e-05
-1.7180102e-12
-0.00011559753
3.8690785e-05
-1.2858784e-12
-0.00012785834
3.6927892e-05
-8.6554347e-13
-0.0001392302
3.4366178e-05
-4.759249e-13
-0.00014945975
3.1020286e-05
-1.0619322e-13
-0.00015830248
2.6909569e-05
2.9099162e-13
-0.00016552724
2.206636e-05
7.5203696e-13
-0.00017092275
1.6543723e-05
1.2432916e-12
-0.00017430559
1.0421912e-05
1.6620903e-12
-0.00017552936
3.8130075e-06
1.9256712e-12
-0.00017449413
-3.1369283e-06
2.0667534e-12
-0.00017115589
-1.0248134e-05
2.2185557e-12
-0.00016553481
-1.7310156e-05
2.5072696e-12
-0.00015772191
-2.4088488e-05
2.8713876e-12
-0.0001478832
-3.0333519e-05
3.052993e-12
-0.0001362606
-3.5792465e-05
2.8446279e-12
-0.00012316896
-4.0223502e-05
2.3943921e-12
-0.00010898872
-4.3411437e-05
2.1866873e-12
-9.4153807e-05
-4.5183934e-05
2.5561956e-12
-7.9134858e-05
-4.5427139e-05
3.1886921e-12
-6.4418062e-05
-4.4099513e-05
3.3187865e-12
-5.0480363e-05
-4.1242785e-05
2.64266e-12
-3.776214e-05
-3.6989356e-05
1.9198462e-12
-2.663883e-05
-3.1566067e-05
2.2234785e-12
-1.7393177e-05
-2.529511e-05
3.4547142e-12
-1.0189914e-05
-1.8594012e-05
4.3601185e-12
-5.054733e-06
-1.1977098e-05
4.3999913e-12
-1.8598395e-06
-6.0578053e-06
3.226244e-12
-3.2223767e-07
-1.555459e-06
3.1593777e-13
6.4203025e-07
6.1144994e-12
-1.6931674e-06
3.5255231e-06
-1.6655987e-11
-6.371406e-06
1.2332525e-05
1.0258865e-11
-1.3671446e-05
2.1446422e-05
-4.7572463e-12
-2.3234051e-05
3.0011864e-05
-6.9586389e-12
-3.4695233e-05
3.7552979e-05
-4.2672843e-12
-4.7689812e-05
4.3818824e-05
-3.7008549e-12
-6.1857515e-05
4.8713027e-05
-3.5688645e-12
-7.684806e-05
5.2235442e-05
-3.214117e-12
-9.2323864e-05
5.4434792e-05
-2.8460588e-12
-0.00010796027
5.5376065e-05
-2.501903e-12
-0.00012344397
5.5120779e-05
-2.1359405e-12
-0.00013847069
5.3717515e-05
-1.7260107e-12
-0.00015274323
5.1200427e-05
-1.2767036e-12
-0.00016597054
4.7593495e-05
-8.2197127e-13
-0.00017786874
4.291849e-05
-4.0323455e-13
-0.00018816405
3.7204883e-05
-2.1151305e-14
-0.00019659789
3.0500201e-05
3.8263595e-13
-0.00020293384
2.2879671e-05
8.695654e-13
-0.00020696614
1.4454218e-05
1.4192222e-12
-0.0002085293
5.3761638e-06
1.9116029e-12
-0.00020750812
-4.1581039e-06
2.216667e-12
-0.00020384768
-1.3908575e-05
2.3343269e-12
-0.00019756247
-2.3595369e-05
2.432249e-12
-0.00018874397
-3.290699e-05
2.7132108e-12
-0.00017756589
-4.1511596e-05
3.1629519e-12
-0.00016428626
-4.9072094e-05
3.4684054e-12
-0.00014924551
-5.526425e-05
3.300872e-12
-0.0001328599
-5.9797051e-05
2.7573852e-12
-0.00011560968
-6.2434169e-05
2.4287723e-12
-9.8021766e-05
-6.3015055e-05
2.8146599e-12
-8.064723e-05
-6.1474043e-05
3.6188802e-12
-6.4034176e-05
-5.7855828e-05
3.9092357e-12
-4.8697442e-05
-5.2326088e-05
3.2476553e-12
-3.5086902e-05
-4.517662e-05
2.4134524e-12
-2.3556681e-05
-3.6825347e-05
2.5080507e-12
-1.433787e-05
-2.7812822e-05
3.661021e-12
-7.5174811e-06
-1.8797478e-05
5.14895e-12
-3.0267226e-06
-1.0548564e-05
3.8608559e-12
-6.4249635e-07
-3.9396872e-06
-2.0783594e-12
-4.7383133e-10
8.3837436e-12
-2.1329368e-06
5.6584792e-06
-1.946527e-11
-7.8910739e-06
1.8090648e-05
1.5001165e-11
-1.6717401e-05
3.0272753e-05
-4.0387705e-12
-2.8105735e-05
4.1400206e-05
-7.0108379e-12
-4.1585083e-05
5.103233e-05
-3.8249621e-12
-5.671413e-05
5.8947874e-05
-3.3232443e-12
-7.3078276e-05
6.5077174e-05
-3.3314849e-12
-9.0287087e-05
6.9444256e-05
-3.007677e-12
-0.00010797132
7.211903e-05
-2.6364045e-12
-0.00012577927
7.3184014e-05
-2.3044765e-12
-0.00014337274
7.2714254e-05
-1.980056e-12
-0.00016042342
7.0768193e-05
-1.6342632e-12
-0.00017661019
6.7387201e-05
-1.2384088e-12
-0.00019161814
6.2601447e-05
-7.8538665e-13
-0.00020513951
5.6439868e-05
-3.172613e-13
-0.00021687684
4.8942213e-05
9.9696219e-14
-0.00022654814
4.0171511e-05
4.4722202e-13
-0.00023389406
3.0225593e-05
7.8957758e-13
-0.0002386865
1.9246655e-05
1.2168199e-12
-0.00024073842
7.428085e-06
1.7370803e-12
-0.00023991437
-4.9821557e-06
2.2221794e-12
-0.00023614102
-1.7681918e-05
2.4981485e-12
-0.00022941747
-3.0318921e-05
2.5049913e-12
-0.00021982416
-4.2500306e-05
2.4337067e-12
-0.00020752992
-5.3805835e-05
2.5829287e-12
-0.0001927961
-6.3805915e-05
3.018574e-12
-0.0001759767
-7.2083644e-05
3.3930652e-12
-0.00015751363
-7.8260113e-05
3.2472897e-12
-0.00013792612
-8.2021684e-05
2.5989474e-12
-0.00011779373
-8.3147462e-05
2.1216252e-12
-9.7732959e-05
-8.1534818e-05
2.4707606e-12
-7.836813e-05
-7.7220653e-05
3.3849141e-12
-6.0297862e-05
-7.0396344e-05
3.8317196e-12
-4.4059517e-05
-6.1414961e-05
3.2736442e-12
-3.0094428e-05
-5.0790446e-05
2.4468278e-12
-1.8717267e-05
-3.9189993e-05
2.8385323e-12
-1.009305e-05
-2.7421694e-05
5.0976888e-12
-4.2253068e-06
-1.6416304e-05
4.126958e-12
-9.5848401e-07
-7.2065044e-06
-4.5275301e-12
-9.5896961e-07
1.0397914e-11
-2.5450539e-06
8.2035555e-06
-2.2258872e-11
-9.3288438e-06
2.4874419e-05
1.923759e-11
-1.9615359e-05
4.0559272e-05
-3.6025191e-12
-3.2756843e-05
5.4541698e-05
-7.2870361e-12
-4.817588e-05
6.645137e-05
-3.6068227e-12
-6.5354086e-05
7.6126081e-05
-3.1587106e-12
-8.3822137e-05
8.3545226e-05
-3.336364e-12
-0.00010315062
8.8772743e-05
-3.097853e-12
-0.00012294162
9.1910032e-05
-2.7589707e-12
-0.00014282096
9.3063351e-05
-2.4311565e-12
-0.00016243135
9.2324646e-05
-2.1063704e-12
-0.00018142688
8.976373e-05
-1.7870373e-12
-0.00019946925
8.5429574e-05
-1.4542611e-12
-0.00021622604
7.9358246e-05
-1.0615978e-12
-0.0002313713
7.1585131e-05
-5.8661715e-13
-0.00024458832
6.2159236e-05
-7.7408145e-14
-0.00025557459
5.1157788e-05
3.7578244e-13
-0.00026404867
3.8699677e-05
7.2881596e-13
-0.00026975868
2.4956657e-05
1.0419004e-12
-0.0002724921
1.0161506e-05
1.4354606e-12
-0.00027208668
-5.3875697e-06
1.9600064e-12
-0.00026844173
-2.1326874e-05
2.5082875e-12
-0.00026152975
-3.7230895e-05
2.8283455e-12
-0.00025140739
-5.2622666e-05
2.7943735e-12
-0.00023822498
-6.6988252e-05
2.5983846e-12
-0.00022223364
-7.9797262e-05
2.6358401e-12
-0.00020378864
-9.0528646e-05
3.0765685e-12
-0.00018334763
-9.8701122e-05
3.5611881e-12
-0.00016146241
-0.0001039069
3.5046239e-12
-0.00013876326
-0.0001058466
2.8309726e-12
-0.00011593535
-0.00010436275
2.2611888e-12
-9.3687552e-05
-9.9468457e-05
2.5568637e-12
-7.2715438e-05
-9.1368455e-05
3.4716541e-12
-5.3660742e-05
-8.0469647e-05
3.8768864e-12
-3.707108e-05
-6.7380108e-05
3.2047749e-12
-2.3363948e-05
-5.2897135e-05
2.8963934e-12
-1.2799319e-05
-3.7986331e-05
5.0807801e-12
-5.4648777e-06
-2.3750744e-05
3.8815127e-12
-1.2772528e-06
-1.1394117e-05
-7.306383e-12
-2.2362359e-06
1.2998729e-11
-2.9284811e-06
1.1132062e-05
-2.4964654e-11
-1.0673669e-05
3.2619585e-05
2.3065799e-11
-2.2336169e-05
5.2221776e-05
-3.3266437e-12
-3.7135969e-05
6.9341505e-05
-7.6874293e-12
-5.4394103e-05
8.3709507e-05
-3.5309537e-12
-7.3517621e-05
9.5249601e-05
-3.0814906e-12
-9.3984295e-05
0.0001040119
-3.3841577e-12
-0.00011532796
0.0001101164
-3.2349661e-12
-0.00013712517
0.00011370725
-2.9655895e-12
-0.00015898353
0.00011492171
-2.6750575e-12
-0.00018053178
0.0001138729
-2.3448609e-12
-0.00020141215
0.0001106441
-2.0006761e-12
-0.00022127503
0.00010529246
-1.6729428e-12
-0.00023977618
9.7859401e-05
-1.3425857e-12
-0.00025657638
8.838533e-05
-9.4616318e-13
-0.00027134346
7.6926325e-05
-4.430101e-13
-0.00028375659
6.3570918e-05
1.2056157e-13
-0.00029351243
4.8455526e-05
6.3234914e-13
-0.00030033322
3.1777447e-05
1.0119363e-12
-0.00030397636
1.3804643e-05
1.2991162e-12
-0.00030424557
-5.1183572e-06
1.641707e-12
-0.00030100298
-2.4569474e-05
2.1821287e-12
-0.00029418252
-4.4051351e-05
2.7982401e-12
-0.00028380326
-6.3001932e-05
3.1930633e-12
-0.00026998221
-8.0809297e-05
3.1517555e-12
-0.00025294549
-9.6833988e-05
2.8434467e-12
-0.000233036
-0.00011043815
2.7523547e-12
-0.00021071601
-0.00012102112
3.1612003e-12
-0.00018656268
-0.00012806022
3.7196838e-12
-0.00016125483
-0.00013115444
3.7462697e-12
-0.00013554997
-0.00013006761
3.0962427e-12
-0.00011025148
-0.00012476696
2.5216464e-12
-8.6167391e-05
-0.00011545255
2.8074053e-12
-6.4063738e-05
-0.0001025733
3.5679729e-12
-4.4616667e-05
-8.6827171e-05
3.5978037e-12
-2.8368528e-05
-6.9145276e-05
3.4187863e-12
-1.5693155e-05
-5.0661715e-05
5.5704771e-12
-6.7752228e-06
-3.2668681e-05
3.6087223e-12
-1.6070329e-06
-1.6562294e-05
-1.0425384e-11
-3.8432833e-06
1.5610473e-11
-3.281699e-06
1.441379e-05
-2.7557769e-11
-1.1915867e-05
4.1253728e-05
2.650462e-11
-2.4855506e-05
6.516142e-05
-3.135587e-12
-4.1199912e-05
8.5685919e-05
-8.1293579e-12
-6.0176303e-05
0.0001026859
-3.5452493e-12
-8.1122243e-05
0.00011619554
-3.0830191e-12
-0.0001034663
0.00012635596
-3.4549989e-12
-0.00012670888
0.00013335899
-3.3494138e-12
-0.00015040465
0.00013740302
-3.1415819e-12
-0.00017414714
0.0001386642
-2.9220156e-12
-0.00019755594
0.00013728171
-2.6341261e-12
-0.00022026669
0.00013335485
-2.2771695e-12
-0.00024192389
0.00012694967
-1.9015413e-12
-0.00026217668
0.0001181122
-1.5540034e-12
-0.00028067717
0.00010688582
-1.2196911e-12
-0.0002970813
9.3330461e-05
-8.2140244e-13
-0.00031105196
7.7541574e-05
-2.9588255e-13
-0.00032226414
5.9667716e-05
3.241501e-13
-0.0003304122
3.9925508e-05
9.0740644e-13
-0.00033521897
1.8611413e-05
1.3157341e-12
-0.00033644713
-3.8902034e-06
1.5478608e-12
-0.00033391173
-2.7104876e-05
1.8685275e-12
-0.00032749597
-5.046712e-05
2.3912059e-12
-0.00031716689
-7.3331019e-05
3.0616263e-12
-0.00030299231
-9.4983877e-05
3.5386512e-12
-0.00028515683
-0.00011466947
3.5119404e-12
-0.00026397518
-0.0001316198
3.114288e-12
-0.00023990062
-0.00014509568
2.8968718e-12
-0.00021352584
-0.00015443501
3.2362084e-12
-0.00018557379
-0.00015910649
3.7967174e-12
-0.00015687658
-0.00015876481
3.8516535e-12
-0.00012834163
-0.00015330191
3.2603582e-12
-0.00010090607
-0.00014288813
2.7943014e-12
-7.548248e-05
-0.00012799689
3.0215288e-12
-5.2901149e-05
-0.0001094085
3.2856977e-12
-3.3855113e-05
-8.8191309e-05
3.6768328e-12
-1.8854784e-05
-6.5662051e-05
6.388888e-12
-8.198265e-06
-4.3325207e-05
3.6262723e-12
-1.9611641e-06
-2.2799382e-05
-1.3763239e-11
-5.8044647e-06
1.8249813e-11
-3.6023022e-06
1.8016123e-05
-3.0001477e-11
-1.3044868e-05
5.0696268e-05
2.9523133e-11
-2.7149283e-05
7.9265839e-05
-3.0258684e-12
-4.4907162e-05
0.00010344381
-8.5746637e-12
-6.5461498e-05
0.00012324024
-3.62861e-12
-8.8087226e-05
0.00013882127
-3.1766656e-12
-0.0001121688
0.00015043753
-3.6091554e-12
-0.00013717742
0.00015836761
-3.5085307e-12
-0.00016264988
0.00016287548
-3.3162416e-12
-0.00018816993
0.00016418426
-3.1497225e-12
-0.00021335264
0.00016246442
-2.9385185e-12
-0.00023783203
0.00015783424
-2.6357484e-12
-0.00026125191
0.00015036955
-2.2462274e-12
-0.00028325983
0.00014012012
-1.8295469e-12
-0.00030350382
0.00012712982
-1.4503489e-12
-0.00032163166
0.0001114583
-1.1050169e-12
-0.00033729244
9.3202358e-05
-7.07777e-13
-0.00035014038
7.2515653e-05
-1.6714681e-13
-0.00035984079
4.9625918e-05
5.0755582e-13
-0.00036607842
2.4849049e-05
1.1538559e-12
-0.00036856896
-1.3996663e-06
1.555972e-12
-0.00036707134
-2.8602503e-05
1.8710625e-12
-0.00036140637
-5.6132102e-05
2.1257129e-12
-0.00035147458
-8.3262814e-05
2.6040031e-12
-0.00033727783
-0.00010918063
3.3041023e-12
-0.00031894091
-0.00013300638
3.8478906e-12
-0.00029673175
-0.00015382896
3.8475031e-12
-0.00027107726
-0.00017075017
3.3978421e-12
-0.00024257163
-0.00018294066
3.0862363e-12
-0.00021197328
-0.00018970485
3.3369239e-12
-0.0001801876
-0.00019055048
3.8225433e-12
-0.00014823331
-0.00018525619
3.8551576e-12
-0.00011719276
-0.00017392869
3.3824758e-12
-8.8148953e-05
-0.00015704071
2.9927389e-12
-6.2115387e-05
-0.00013544207
2.8100123e-12
-3.9966491e-05
-0.00011034021
3.4719187e-12
-2.237761e-05
-8.3250936e-05
7.1140167e-12
-9.7826905e-06
-5.5920131e-05
3.8232436e-12
-2.3546971e-06
-3.022736e-05
-1.7277333e-11
-8.1591834e-06
2.1199759e-11
-3.8870493e-06
2.1903205e-05
-3.2229165e-11
-1.4048656e-05
6.0857846e-05
3.2101802e-11
-2.9192047e-05
9.4409236e-05
-3.0210874e-12
-4.8215257e-05
0.00012246703
-9.0235155e-12
-7.0187835e-05
0.00014521282
-3.7358637e-12
-9.4330054e-05
0.00016296349
-3.3167503e-12
-0.00011998821
0.00017609569
-3.8365277e-12
-0.00014660908
0.00018498848
-3.7525464e-12
-0.00017371588
0.00018998229
-3.549196e-12
-0.00020088685
0.00019135524
-3.3832698e-12
-0.00022773708
0.00018931465
-3.2155479e-12
-0.0002539038
0.00018400096
-2.9980812e-12
-0.00027903519
0.00017550095
-2.6803635e-12
-0.00030278231
0.00016386725
-2.2562197e-12
-0.00032479396
0.00014914147
-1.7907103e-12
-0.00034471403
0.00013137838
-1.3671385e-12
-0.00036218125
0.00011066958
-1.0009643e-12
-0.00037683113
8.716553e-05
-6.0647751e-13
-0.00038830041
6.1095198e-05
-6.2217107e-14
-0.00039623427
3.2782904e-05
6.6908373e-13
-0.00040029638
2.6624419e-06
1.4590646e-12
-0.00040018388
-2.871501e-05
1.9642123e-12
-0.00039564405
-6.0671932e-05
2.2227709e-12
-0.00038649736
-9.2409517e-05
2.4177492e-12
-0.00037266263
-0.00012301537
2.8467925e-12
-0.00035418497
-0.00015148404
3.5407454e-12
-0.0003312638
-0.00017675014
4.1120983e-12
-0.00030427783
-0.00019773614
4.1270808e-12
-0.00027380299
-0.00021341551
3.6558642e-12
-0.0002406183
-0.00022288954
3.2877343e-12
-0.00020569519
-0.0002254736
3.4361506e-12
-0.00017016638
-0.000220785
3.7987766e-12
-0.00013527317
-0.0002088219
3.8229963e-12
-0.00010229332
-0.00019002057
3.3965612e-12
-7.2455934e-05
-0.00016527947
2.689014e-12
-4.6853295e-05
-0.00013594285
3.169674e-12
-2.6361364e-05
-0.00010374287
7.6511247e-12
-1.1580442e-05
-7.0701056e-05
3.9519798e-12
-2.8033147e-06
-3.9004467e-05
-2.1164652e-11
-1.0962524e-05
2.4655771e-11
-4.1321155e-06
2.6035357e-05
-3.4174604e-11
-1.4914093e-05
7.1639792e-05
3.4256992e-11
-3.0957125e-05
0.00011045227
-3.1159286e-12
-5.1080648e-05
0.00014259056
-9.4964275e-12
-7.4292266e-05
0.00016842444
-3.878814e-12
-9.9766119e-05
0.00018843735
-3.4698842e-12
-0.00012681669
0.00020314626
-4.0829211e-12
-0.0001548713
0.00021304309
-4.0519631e-12
-0.00018344394
0.00021855492
-3.8646225e-12
-0.0002121115
0.0002200228
-3.6822701e-12
-0.00024049344
0.0002176966
-3.4973223e-12
-0.00026823493
0.00021174246
-3.3127111e-12
-0.00029499351
0.00020225954
-3.088869e-12
-0.00032042905
0.00018930278
-2.7585208e-12
-0.0003441964
0.00017290883
-2.3019482e-12
-0.00036594073
0.00015312272
-1.7826614e-12
-0.00038529504
0.00013002389
-1.301932e-12
-0.00040188
0.00010375049
-9.0398372e-13
-0.00041530643
7.4521623e-05
-5.109067e-13
-0.00042518077
4.2657232e-05
4.6553755e-14
-0.00043111397
8.5956336e-06
8.6116634e-13
-0.00043273622
-2.7092758e-05
1.6434607e-12
-0.00042971416
-6.3693993e-05
2.267092e-12
-0.00042177618
-0.0001003475
2.5779635e-12
-0.00040874172
-0.00013604984
2.7532272e-12
-0.00039055538
-0.00016967038
3.1316074e-12
-0.0003673235
-0.00019998202
3.7819913e-12
-0.0003393498
-0.00022570984
4.3256726e-12
-0.00030716536
-0.00024559994
4.3242739e-12
-0.00027154683
-0.00025850809
3.8444574e-12
-0.00023351601
-0.00026350443
3.4419745e-12
-0.00019431498
-0.00025998603
3.490395e-12
-0.00015535291
-0.00024778397
3.7551934e-12
-0.00011812526
-0.00022724821
3.6624717e-12
-8.4111829e-05
-0.00019929291
2.8277303e-12
-5.4665481e-05
-0.00016538921
3.0926917e-12
-3.0907342e-05
-0.00012750102
8.2521551e-12
-1.3644698e-05
-8.7963704e-05
3.9617828e-12
-3.3229917e-06
-4.9326147e-05
-2.5694523e-11
-1.4285545e-05
2.8689727e-11
-4.3334529e-06
3.0368848e-05
-3.5807453e-11
-1.562779e-05
8.2934097e-05
3.6001481e-11
-3.2417906e-05
0.00012724239
-3.2642468e-12
-5.3460302e-05
0.00016363297
-9.986054e-12
-7.7712454e-05
0.0001926766
-4.0895055e-12
-0.000104311
0.0002150359
-3.6557716e-12
-0.00013254491
0.00023138017
-4.322618e-12
-0.00016182693
0.00024232512
-4.3478736e-12
-0.00019166588
0.00024839387
-4.2176618e-12
-0.00022164124
0.00024999817
-4.0617131e-12
-0.00025138097
0.00024743633
-3.8542262e-12
-0.00028054264
0.00024090414
-3.6344074e-12
-0.00030879821
0.00023051511
-3.4295672e-12
-0.00033582178
0.00021632635
-3.1971739e-12
-0.00036128017
0.00019836723
-2.8582861e-12
-0.00038482595
0.00017666849
-2.374714e-12
-0.00040609255
0.00015129049
-1.7996463e-12
-0.00042469178
0.00012234972
-1.2512141e-12
-0.00044021385
9.0043687e-05
-8.0618858e-13
-0.00045223065
5.4674029e-05
-3.9350108e-13
-0.00046030304
1.6668014e-05
1.7103138e-13
-0.00046399358
-2.3402223e-05
9.4428449e-13
-0.00046288449
-6.4803084e-05
1.8479049e-12
-0.00045660341
-0.00010662858
2.5762011e-12
-0.00044485609
-0.00014779716
2.9469252e-12
-0.00042746613
-0.00018706035
3.1253207e-12
-0.00040442022
-0.00022302794
3.4556349e-12
-0.00037591561
-0.00025421445
4.0238312e-12
-0.00034240458
-0.00027911098
4.4766534e-12
-0.00030462862
-0.00029628405
4.414595e-12
-0.00026363337
-0.00030449968
3.9198875e-12
-0.00022075513
-0.00030286429
3.5075131e-12
-0.00017757163
-0.00029096747
3.5134618e-12
-0.00013581501
-0.00026900484
3.5508223e-12
-9.7251931e-05
-0.00023785599
2.8213366e-12
-6.3544839e-05
-0.0001990963
3.1532848e-12
-3.6114691e-05
-0.00015493118
9.1227577e-12
-1.6028559e-05
-0.00010804984
3.9937155e-12
-3.929836e-06
-6.1424839e-05
-3.101553e-11
-1.8215414e-05
3.3362297e-11
-4.4872228e-06
3.485611e-05
-3.7122592e-11
-1.6177321e-05
9.4624162e-05
3.7305403e-11
-3.3549896e-05
0.00014461497
-3.4203345e-12
-5.5314551e-05
0.00018539763
-1.0441622e-11
-8.0390365e-05
0.00021775242
-4.3652274e-12
-0.0001078848
0.00024253033
-3.9077034e-12
-0.00013706725
0.00026056262
-4.5839847e-12
-0.00016734027
0.00027259814
-4.6241321e-12
-0.0001982112
0.0002792648
-4.5448012e-12
-0.00022926561
0.00028105259
-4.4588891e-12
-0.00026014368
0.00027831439
-4.2880227e-12
-0.00029051966
0.00027128014
-4.0416839e-12
-0.00032008482
0.00026008028
-3.7837392e-12
-0.00034853317
0.0002447747
-3.5499336e-12
-0.00037554993
0.00022538399
-3.3039335e-12
-0.00040080218
0.00020192074
-2.9593086e-12
-0.0004239316
0.00017441991
-2.4539476e-12
-0.0004445493
0.00014296742
-1.8234984e-12
-0.00046223322
0.0001077276
-1.1969798e-12
-0.00047652863
6.8969437e-05
-6.8220663e-13
-0.00048695288
2.7092265e-05
-2.3539364e-13
-0.00049300565
-1.7349464e-05
3.1840523e-13
-0.00049418564
-6.3623091e-05
1.1321273e-12
-0.00049001583
-0.0001107984
2.0981506e-12
-0.00048007775
-0.00015773524
2.9015318e-12
-0.00046405566
-0.00020308243
3.3321163e-12
-0.00044178975
-0.00024529385
3.5244767e-12
-0.00041333575
-0.00028266846
3.8001253e-12
-0.00037902596
-0.00031342077
4.2411057e-12
-0.00033952333
-0.00033578667
4.535235e-12
-0.00029585751
-0.0003481655
4.3623533e-12
-0.00024942979
-0.00034929202
3.8613674e-12
-0.00020197497
-0.0003384223
3.5127254e-12
-0.00015547284
-0.00031550697
3.3176761e-12
-0.00011201159
-0.00028131724
2.5216569e-12
-7.3617496e-05
-0.0002374904
3.08518e-12
-4.2077003e-05
-0.00018647169
1.0210641e-11
-1.8784003e-05
-0.00013134285
4.1417732e-12
-4.640011e-06
-7.5568795e-05
-3.718249e-11
-2.2855463e-05
3.8799543e-11
-4.5902826e-06
3.9446433e-05
-3.81011e-11
-1.6552687e-05
0.00010658653
3.8112742e-11
-3.4333346e-05
0.00016239564
-3.5834367e-12
-5.6610885e-05
0.00020767518
-1.0814251e-11
-8.2277184e-05
0.00024341872
-4.6535465e-12
-0.00011041819
0.00027067134
-4.2175636e-12
-0.00014028892
0.00029043336
-4.9034273e-12
-0.00017128552
0.00030359475
-4.9265685e-12
-0.00020291689
0.00031089618
-4.8471129e-12
-0.00023477769
0.0003129134
-4.8099351e-12
-0.00026652359
0.00031006029
-4.7162115e-12
-0.00029784946
0.00030260601
-4.5147864e-12
-0.00032847061
0.00029070143
-4.2286348e-12
-0.00035810672
0.00027441082
-3.9237066e-12
-0.00038646825
0.00025374552
-3.6480368e-12
-0.00041324485
0.00022869735
-3.3791649e-12
-0.00043809568
0.00019927073
-3.0259303e-12
-0.00046064153
0.00016551327
-2.5001362e-12
-0.00048045932
0.0001275454
-1.8146426e-12
-0.00049707946
8.5589579e-05
-1.1032221e-12
-0.0005099872
4.0000001e-05
-5.0569311e-13
-0.00051862939
-8.7072747e-06
-6.8954155e-15
-0.00052242834
-5.9824137e-05
5.7847395e-13
-0.00052080463
-0.00011242211
1.4189815e-12
-0.0005132109
-0.00016532897
2.4205139e-12
-0.00049917822
-0.00021711511
3.2687188e-12
-0.00047837549
-0.00026609658
3.739449e-12
-0.00045068059
-0.00031036337
3.9350638e-12
-0.00041625891
-0.00034784246
4.129634e-12
-0.00037564086
-0.00037640472
4.3838273e-12
-0.00032978532
-0.00039402104
4.4490989e-12
-0.0002801119
-0.00039896544
4.1544541e-12
-0.00022848373
-0.00039005048
3.7253986e-12
-0.00017712616
-0.00036686454
3.2350737e-12
-0.00012847766
-0.00032996575
2.1070096e-12
-8.4985585e-05
-0.00028098247
2.8115601e-12
-4.887864e-05
-0.00022257864
1.1380793e-11
-2.1960824e-05
-0.00015826067
4.3565083e-12
-5.4696781e-06
-9.2059897e-05
-4.4286934e-11
-2.8325186e-05
4.51618e-11
-4.6407187e-06
4.4087192e-05
-3.8700366e-11
-1.6747986e-05
0.00011869376
3.8397494e-11
-3.4756311e-05
0.00018040397
-3.7866105e-12
-5.7328463e-05
0.00023024735
-1.1105943e-11
-8.3339266e-05
0.00026942953
-4.9168425e-12
-0.00011185972
0.0002991918
-4.5407474e-12
-0.00014213476
0.0003207084
-5.2812975e-12
-0.00017355703
0.00033501703
-5.2988862e-12
-0.00020563945
0.0003429786
-5.1827309e-12
-0.00023798811
0.00034526206
-5.1274109e-12
-0.00027027702
0.00034234921
-5.0711744e-12
-0.0003022252
0.0003345542
-4.9468966e-12
-0.00033357653
0.00032205277
-4.7121533e-12
-0.00036408207
0.00030491636
-4.3805564e-12
-0.00039348459
0.00028314805
-4.0169709e-12
-0.00042150501
0.00025671777
-3.6839625e-12
-0.00044783032
0.00022559604
-3.3770627e-12
-0.00047210323
0.00018978618
-3.0037796e-12
-0.00049391354
0.00014935571
-2.4522652e-12
-0.00051279209
0.00010446813
-1.7112731e-12
-0.00052820809
5.5416004e-05
-9.1445863e-13
-0.0005395714
2.6560459e-06
-2.2053957e-13
-0.00054624184
-5.3153699e-05
3.4527217e-13
-0.00054754741
-0.00011111653
9.8117558e-13
-0.000542815
-0.00017006139
1.8465983e-12
-0.00053141581
-0.00022851431
2.8531022e-12
-0.00051282804
-0.00028468434
3.7004048e-12
-0.00048671737
-0.00033647404
4.1693515e-12
-0.00045303246
-0.00038152738
4.3281753e-12
-0.00041210824
-0.00041732895
4.3820777e-12
-0.00036476275
-0.00044136654
4.3719895e-12
-0.00031236681
-0.00045136137
4.1899956e-12
-0.00025686081
-0.0004455565
3.8637056e-12
-0.0002006938
-0.00042303154
3.2500768e-12
-0.00014667113
-0.00038398842
1.7259727e-12
-9.7717408e-05
-0.0003299362
2.4432197e-12
-5.6590333e-05
-0.00026370573
1.2624435e-11
-2.5605327e-05
-0.00018924568
4.5624784e-12
-6.4348941e-06