/*--------------------------------*- C++ -*----------------------------------*\
  =========                 |
  \\      /  F ield         | OpenFOAM: The Open Source CFD Toolbox
   \\    /   O peration     | Website:  https://openfoam.org
    \\  /    A nd           | Version:  7
     \\/     M anipulation  |
\*---------------------------------------------------------------------------*/
FoamFile
{
    version     2.0;
    format      ascii;
    class       surfaceScalarField;
    location    "48";
    object      phi_0;
}
// * * * * * * * * * * * * * * * * * * * * * * * * * * * * * * * * * * * * * //

dimensions      [0 3 -1 0 0 0 0];

internalField   nonuniform List<scalar> 
45600
(
2.7525003e-07
-2.8215817e-07
-7.7475345e-11
4.0337397e-07
-1.2809949e-07
-2.4320545e-11
1.3258294e-07
2.7079744e-07
-6.4478799e-12
-5.6229563e-07
6.9488077e-07
-1.2852942e-12
-1.6393022e-06
1.0770045e-06
3.7559343e-12
-3.0276153e-06
1.388307e-06
7.1863034e-12
-4.6524597e-06
1.6248354e-06
9.4401383e-12
-6.4450931e-06
1.7926237e-06
1.1035759e-11
-8.3454197e-06
1.9003172e-06
1.2173929e-11
-1.0301438e-05
1.9560087e-06
1.2931163e-11
-1.2267397e-05
1.9659468e-06
1.3355967e-11
-1.4201577e-05
1.9341656e-06
1.3483996e-11
-1.6064236e-05
1.8626434e-06
1.3335474e-11
-1.7816026e-05
1.7517753e-06
1.2912375e-11
-1.9417054e-05
1.6010154e-06
1.2201332e-11
-2.0826659e-05
1.4095936e-06
1.118036e-11
-2.2003909e-05
1.1772379e-06
9.8291922e-12
-2.2908772e-05
9.048498e-07
8.1450611e-12
-2.3503873e-05
5.9508801e-07
6.149512e-12
-2.3756707e-05
2.5282686e-07
3.886608e-12
-2.3642146e-05
-1.145605e-07
1.4128245e-12
-2.3145013e-05
-4.9712658e-07
-1.2263685e-12
-2.2262577e-05
-8.8243038e-07
-3.9810874e-12
-2.100662e-05
-1.2559574e-06
-6.7508307e-12
-1.9404868e-05
-1.6017543e-06
-9.364506e-12
-1.7501563e-05
-1.9032985e-06
-1.1633271e-11
-1.5356975e-05
-2.1445642e-06
-1.3412217e-11
-1.3045752e-05
-2.3111896e-06
-1.4649418e-11
-1.0654088e-05
-2.3916433e-06
-1.5342105e-11
-8.2758048e-06
-2.3782888e-06
-1.5426702e-11
-6.0075701e-06
-2.2682528e-06
-1.4734468e-11
-3.9435478e-06
-2.0640175e-06
-1.3114644e-11
-2.1697954e-06
-1.7737081e-06
-1.0632079e-11
-7.5852725e-07
-1.4112184e-06
-7.5957599e-12
2.3823598e-07
-9.9676486e-07
-4.4620875e-12
7.9655224e-07
-5.5837691e-07
-1.7941438e-12
9.2924087e-07
-1.327428e-07
1.3750302e-12
7.0552363e-07
2.2375465e-07
5.5861908e-12
2.9042774e-07
4.1520636e-07
1.0180058e-11
2.9050034e-07
3.8561078e-12
1.3292977e-07
-4.1506627e-07
-2.1705936e-11
-3.0164125e-07
3.0648531e-07
-1.371088e-11
-1.6153687e-06
1.5845363e-06
-1.2036447e-11
-3.8746845e-06
2.9542092e-06
-1.2873952e-11
-7.0073253e-06
4.2096614e-06
-1.4099141e-11
-1.0879738e-05
5.2607396e-06
-1.5678196e-11
-1.5335154e-05
6.0802716e-06
-1.7143672e-11
-2.0215994e-05
6.6734833e-06
-1.820362e-11
-2.5374054e-05
7.0583969e-06
-1.8795468e-11
-3.0673267e-05
7.2552431e-06
-1.8928475e-11
-3.5988535e-05
7.2812359e-06
-1.8633955e-11
-4.1202822e-05
7.1484738e-06
-1.7946097e-11
-4.6203967e-05
6.8638042e-06
-1.6886509e-11
-5.0882097e-05
6.4299172e-06
-1.5461964e-11
-5.5128232e-05
5.8471584e-06
-1.3669797e-11
-5.8834321e-05
5.1156904e-06
-1.1507514e-11
-6.1894807e-05
4.2377316e-06
-8.9884293e-12
-6.4209612e-05
3.2196635e-06
-6.1461467e-12
-6.5688361e-05
2.0738396e-06
-3.044269e-12
-6.6255472e-05
8.1993085e-07
2.5653106e-13
-6.585599e-05
-5.1405681e-07
3.7112613e-12
-6.4460817e-05
-1.8923116e-06
7.3063131e-12
-6.2072482e-05
-3.2707672e-06
1.0880624e-11
-5.8729086e-05
-4.5993511e-06
1.4252902e-11
-5.4507068e-05
-5.8237822e-06
1.7236938e-11
-4.95219e-05
-6.8885005e-06
1.971267e-11
-4.3926401e-05
-7.7401115e-06
2.1655536e-11
-3.7906461e-05
-8.3311644e-06
2.3056601e-11
-3.1674146e-05
-8.6239573e-06
2.380162e-11
-2.5458385e-05
-8.5940319e-06
2.3666401e-11
-1.9493588e-05
-8.2330635e-06
2.2502479e-11
-1.4006715e-05
-7.5509619e-06
2.045377e-11
-9.2033139e-06
-6.5771907e-06
1.7916798e-11
-5.2529318e-06
-5.3616122e-06
1.5200813e-11
-2.2739777e-06
-3.9756465e-06
1.2243221e-11
-3.1722929e-07
-2.5150608e-06
8.7032174e-12
6.5709312e-07
-1.1071267e-06
4.2941656e-12
8.0364849e-07
7.7019757e-08
2.1824198e-12
4.1776405e-07
8.0092861e-07
3.5462358e-12
7.0833296e-07
-2.3509846e-12
-2.7356615e-07
-1.4148824e-07
-1.2144835e-11
-1.6274525e-06
1.6603795e-06
-6.8938386e-12
-4.2893733e-06
4.2464661e-06
-8.2606008e-12
-8.2746507e-06
6.9394934e-06
-6.9102658e-12
-1.3474396e-05
9.409412e-06
-4.9885089e-12
-1.9708703e-05
1.1495053e-05
-3.9442309e-12
-2.6765735e-05
1.3137311e-05
-3.2751827e-12
-3.4426603e-05
1.4334357e-05
-2.723201e-12
-4.2478619e-05
1.5110416e-05
-2.2617161e-12
-5.0720441e-05
1.5497066e-05
-1.8441305e-12
-5.8962287e-05
1.5523083e-05
-1.4315794e-12
-6.7023684e-05
1.5209872e-05
-1.0124732e-12
-7.4730526e-05
1.4570648e-05
-5.9001735e-13
-8.1912715e-05
1.3612105e-05
-1.7128843e-13
-8.8403145e-05
1.2337585e-05
2.3739975e-13
-9.4038477e-05
1.0751015e-05
6.382598e-13
-9.8661799e-05
8.8610474e-06
1.0404703e-12
-0.0001021271
6.6849615e-06
1.4397417e-12
-0.00010430523
4.251972e-06
1.8053409e-12
-0.000105091
1.6057083e-06
2.0974212e-12
-0.00010441064
-1.1944245e-06
2.311035e-12
-0.00010222946
-4.0735057e-06
2.4710507e-12
-9.8558527e-05
-6.9417122e-06
2.6180597e-12
-9.346001e-05
-9.6978662e-06
2.7664422e-12
-8.7050392e-05
-1.2233383e-05
2.8652911e-12
-7.9500989e-05
-1.443789e-05
2.837113e-12
-7.1035275e-05
-1.6205838e-05
2.6772881e-12
-6.192273e-05
-1.7443745e-05
2.5089962e-12
-5.2469162e-05
-1.8077552e-05
2.495468e-12
-4.3003688e-05
-1.8059491e-05
2.6581334e-12
-3.3862812e-05
-1.7373892e-05
2.8052532e-12
-2.5372205e-05
-1.6041546e-05
2.728955e-12
-1.7826879e-05
-1.4122566e-05
2.510516e-12
-1.1470434e-05
-1.1718138e-05
2.528397e-12
-6.4739023e-06
-8.9721948e-06
3.0331667e-12
-2.914048e-06
-6.074821e-06
3.6782877e-12
-7.5118969e-07
-3.2698628e-06
3.6686351e-12
1.9438812e-07
-8.6854115e-07
3.700252e-12
2.6546094e-07
7.2974273e-07
4.98997e-12
9.7380466e-07
8.7780321e-13
-7.4583788e-07
6.0436122e-07
-1.2489605e-11
-3.1796197e-06
4.0941625e-06
-1.0105253e-12
-7.3460862e-06
8.4129408e-06
-6.4832874e-12
-1.3163041e-05
1.2756455e-05
-5.8853302e-12
-2.0455807e-05
1.6702182e-05
-3.3130865e-12
-2.8992629e-05
2.0031877e-05
-2.0104683e-12
-3.8513874e-05
2.2658559e-05
-1.1455372e-12
-4.8752676e-05
2.4573162e-05
-3.6746285e-13
-5.9446983e-05
2.5804726e-05
2.6670264e-13
-7.0344837e-05
2.6394919e-05
7.7389943e-13
-8.1205133e-05
2.6383377e-05
1.2008578e-12
-9.1795988e-05
2.5800724e-05
1.5730905e-12
-0.00010189242
2.4667078e-05
1.898703e-12
-0.00011127464
2.2994324e-05
2.173095e-12
-0.00011972779
2.0790736e-05
2.3801598e-12
-0.00012704362
1.8066838e-05
2.5048137e-12
-0.00013302417
1.4841592e-05
2.5500464e-12
-0.00013748743
1.1148213e-05
2.5326501e-12
-0.00014027453
7.0390681e-06
2.4601933e-12
-0.00014125806
2.5892499e-06
2.318398e-12
-0.00014035078
-2.1017003e-06
2.0866156e-12
-0.00013751439
-6.909896e-06
1.7198568e-12
-0.00013276703
-1.1689082e-05
1.2664293e-12
-0.00012618932
-1.6275591e-05
8.19628e-13
-0.0001179279
-2.0494804e-05
4.4992662e-13
-0.00010819592
-2.4169851e-05
1.3742839e-13
-9.7269865e-05
-2.7131861e-05
-2.0717604e-13
-8.5482401e-05
-2.9231209e-05
-6.1234854e-13
-7.3210952e-05
-3.0349038e-05
-9.3298969e-13
-6.0862288e-05
-3.0408193e-05
-9.283294e-13
-4.8853473e-05
-2.9382695e-05
-5.1833346e-13
-3.7589897e-05
-2.7305058e-05
6.5190686e-14
-2.7441284e-05
-2.4271133e-05
4.9807407e-13
-1.8716672e-05
-2.0442792e-05
7.7655083e-13
-1.163948e-05
-1.6049493e-05
1.2792612e-12
-6.323617e-06
-1.1390742e-05
2.3019262e-12
-2.7515471e-06
-6.841875e-06
3.5968347e-12
-7.571175e-07
-2.8628853e-06
4.4111551e-12
-9.5159863e-09
-1.7875082e-08
4.5403109e-12
9.6425914e-07
3.7340707e-12
-1.2279634e-06
1.8323383e-06
-1.409042e-11
-4.788103e-06
7.6542958e-06
4.8930492e-12
-1.0521533e-05
1.4146377e-05
-5.6725959e-12
-1.8214322e-05
2.0449253e-05
-6.7952961e-12
-2.7603927e-05
2.6091792e-05
-4.4476609e-12
-3.8396288e-05
3.0824241e-05
-3.7546986e-12
-5.0283048e-05
3.4545321e-05
-3.4393499e-12
-6.2954777e-05
3.7244895e-05
-2.9835183e-12
-7.6109033e-05
3.8958986e-05
-2.5306328e-12
-8.945377e-05
3.973966e-05
-2.1168121e-12
-0.00010270747
3.9637079e-05
-1.7165649e-12
-0.00011559753
3.8690784e-05
-1.3147107e-12
-0.00012785834
3.6927892e-05
-9.0178426e-13
-0.0001392302
3.4366179e-05
-4.7037437e-13
-0.00014945975
3.1020288e-05
-2.698866e-14
-0.00015830247
2.6909569e-05
4.049495e-13
-0.00016552724
2.2066357e-05
8.0247636e-13
-0.00017092275
1.6543718e-05
1.1642617e-12
-0.0001743056
1.042191e-05
1.5122054e-12
-0.00017552936
3.8130109e-06
1.8652932e-12
-0.00017449413
-3.1369216e-06
2.2074315e-12
-0.00017115588
-1.0248131e-05
2.4711404e-12
-0.0001655348
-1.7310163e-05
2.6054896e-12
-0.0001577219
-2.4088499e-05
2.627846e-12
-0.00014788321
-3.0333524e-05
2.6334645e-12
-0.00013626061
-3.5792454e-05
2.7124713e-12
-0.00012316897
-4.0223483e-05
2.8373572e-12
-0.00010898871
-4.3411432e-05
2.8602397e-12
-9.4153784e-05
-4.5183954e-05
2.6815323e-12
-7.9134853e-05
-4.5427168e-05
2.4325999e-12
-6.4418089e-05
-4.4099517e-05
2.4097364e-12
-5.0480396e-05
-4.1242751e-05
2.7463879e-12
-3.7762137e-05
-3.6989317e-05
3.1847023e-12
-2.6638788e-05
-3.1566069e-05
3.3029296e-12
-1.7393147e-05
-2.5295153e-05
3.0381867e-12
-1.0189938e-05
-1.8594046e-05
3.0012406e-12
-5.0547729e-06
-1.1977087e-05
3.8989636e-12
-1.8598301e-06
-6.0577785e-06
3.9473492e-12
-3.2221756e-07
-1.5554572e-06
7.8754958e-13
6.4202003e-07
6.0201205e-12
-1.6931663e-06
3.5255222e-06
-1.6632227e-11
-6.3714062e-06
1.2332524e-05
1.0248484e-11
-1.3671447e-05
2.1446422e-05
-4.7692086e-12
-2.3234051e-05
3.0011865e-05
-6.9445797e-12
-3.4695233e-05
3.755298e-05
-4.2385608e-12
-4.7689811e-05
4.3818824e-05
-3.70013e-12
-6.1857515e-05
4.8713026e-05
-3.6036217e-12
-7.684806e-05
5.2235442e-05
-3.2583201e-12
-9.2323865e-05
5.4434793e-05
-2.8615325e-12
-0.00010796027
5.5376067e-05
-2.475151e-12
-0.00012344396
5.5120779e-05
-2.0834597e-12
-0.00013847069
5.3717514e-05
-1.684858e-12
-0.00015274323
5.1200426e-05
-1.2802297e-12
-0.00016597054
4.7593493e-05
-8.6030982e-13
-0.00017786874
4.2918491e-05
-4.1214944e-13
-0.00018816405
3.7204886e-05
5.9737887e-14
-0.00019659789
3.0500203e-05
5.2705522e-13
-0.00020293384
2.2879668e-05
9.5649857e-13
-0.00020696614
1.4454213e-05
1.3400103e-12
-0.0002085293
5.37616e-06
1.7035002e-12
-0.00020750813
-4.1581009e-06
2.0778332e-12
-0.00020384768
-1.3908566e-05
2.4572031e-12
-0.00019756247
-2.3595362e-05
2.7694336e-12
-0.00018874396
-3.2906994e-05
2.9335657e-12
-0.00017756589
-4.1511611e-05
2.9488426e-12
-0.00016428627
-4.9072104e-05
2.9304732e-12
-0.00014924553
-5.526424e-05
3.0141228e-12
-0.00013285991
-5.9797027e-05
3.1943468e-12
-0.00011560966
-6.2434155e-05
3.2875112e-12
-9.8021736e-05
-6.3015074e-05
3.1321906e-12
-8.0647219e-05
-6.1474079e-05
2.8462041e-12
-6.4034203e-05
-5.7855842e-05
2.7821135e-12
-4.869748e-05
-5.2326059e-05
3.1237068e-12
-3.5086902e-05
-4.517658e-05
3.5588901e-12
-2.3556641e-05
-3.6825342e-05
3.5521245e-12
-1.4337849e-05
-2.7812853e-05
3.387177e-12
-7.5175062e-06
-1.8797499e-05
4.2712633e-12
-3.0267384e-06
-1.0548554e-05
3.7377709e-12
-6.4248762e-07
-3.9396744e-06
-1.7048895e-12
-4.7535743e-10
8.5645043e-12
-2.132936e-06
5.658479e-06
-1.9432451e-11
-7.891073e-06
1.8090647e-05
1.5013738e-11
-1.67174e-05
3.0272752e-05
-4.0609512e-12
-2.8105736e-05
4.1400206e-05
-7.0410551e-12
-4.1585083e-05
5.1032331e-05
-3.8276478e-12
-5.671413e-05
5.8947875e-05
-3.30392e-12
-7.3078275e-05
6.5077174e-05
-3.3262672e-12
-9.0287087e-05
6.9444255e-05
-3.0332911e-12
-0.00010797132
7.211903e-05
-2.6729118e-12
-0.00012577927
7.3184014e-05
-2.3164654e-12
-0.00014337274
7.2714256e-05
-1.9416157e-12
-0.00016042342
7.0768194e-05
-1.5501302e-12
-0.00017661019
6.73872e-05
-1.1562048e-12
-0.00019161814
6.2601445e-05
-7.663555e-13
-0.00020513951
5.6439865e-05
-3.6863346e-13
-0.00021687684
4.8942213e-05
5.5149271e-14
-0.00022654815
4.0171514e-05
5.0537248e-13
-0.00023389406
3.0225597e-05
9.5130283e-13
-0.0002386865
1.9246654e-05
1.3489464e-12
-0.00024073842
7.428079e-06
1.6777811e-12
-0.00023991437
-4.9821617e-06
1.9624927e-12
-0.00023614103
-1.7681916e-05
2.2613226e-12
-0.00022941748
-3.031891e-05
2.5796562e-12
-0.00021982416
-4.2500295e-05
2.8473869e-12
-0.00020752991
-5.3805837e-05
2.9567461e-12
-0.00019279609
-6.3805933e-05
2.8831691e-12
-0.0001759767
-7.208366e-05
2.7594445e-12
-0.00015751366
-7.8260107e-05
2.7752405e-12
-0.00013792614
-8.2021656e-05
2.9619448e-12
-0.00011779372
-8.314744e-05
3.1106984e-12
-9.7732926e-05
-8.153483e-05
3.0007029e-12
-7.8368114e-05
-7.7220689e-05
2.7354415e-12
-6.0297887e-05
-7.0396363e-05
2.7084522e-12
-4.4059552e-05
-6.141494e-05
3.066156e-12
-3.0094424e-05
-5.0790414e-05
3.3627465e-12
-1.8717235e-05
-3.9189991e-05
3.5752061e-12
-1.0093044e-05
-2.7421715e-05
4.8649822e-12
-4.2253209e-06
-1.6416313e-05
3.6991215e-12
-9.5849024e-07
-7.2064975e-06
-4.5547671e-12
-9.5896352e-07
1.0579846e-11
-2.5450541e-06
8.2035556e-06
-2.2247045e-11
-9.3288431e-06
2.4874419e-05
1.9269468e-11
-1.9615357e-05
4.0559271e-05
-3.5974476e-12
-3.2756843e-05
5.4541697e-05
-7.3265866e-12
-4.8175881e-05
6.645137e-05
-3.6535115e-12
-6.5354086e-05
7.6126082e-05
-3.168483e-12
-8.3822136e-05
8.3545227e-05
-3.315961e-12
-0.00010315062
8.8772743e-05
-3.0796792e-12
-0.00012294162
9.1910031e-05
-2.7642457e-12
-0.00014282096
9.306335e-05
-2.454618e-12
-0.00016243135
9.2324646e-05
-2.1176103e-12
-0.00018142688
8.9763731e-05
-1.7448513e-12
-0.00019946925
8.5429575e-05
-1.3477229e-12
-0.00021622604
7.9358246e-05
-9.4610462e-13
-0.0002313713
7.1585129e-05
-5.5140741e-13
-0.00024458832
6.2159232e-05
-1.5281824e-13
-0.0002555746
5.1157787e-05
2.7395615e-13
-0.00026404868
3.8699681e-05
7.3745615e-13
-0.00026975868
2.4956663e-05
1.2079785e-12
-0.00027249209
1.0161507e-05
1.6270966e-12
-0.00027208668
-5.3875759e-06
1.9517641e-12
-0.00026844172
-2.1326883e-05
2.2166071e-12
-0.00026152976
-3.7230897e-05
2.4800841e-12
-0.0002514074
-5.2622654e-05
2.7832686e-12
-0.00023822498
-6.6988236e-05
3.061835e-12
-0.00022223363
-7.9797259e-05
3.1768726e-12
-0.00020378862
-9.0528664e-05
3.0693155e-12
-0.00018334762
-9.8701145e-05
2.8791073e-12
-0.00016146243
-0.0001039069
2.8457578e-12
-0.00013876329
-0.00010584658
3.0384246e-12
-0.00011593534
-0.00010436272
3.2306144e-12
-9.368752e-05
-9.9468464e-05
3.1661248e-12
-7.2715423e-05
-9.1368487e-05
2.9538271e-12
-5.3660766e-05
-8.0469664e-05
2.9280218e-12
-3.7071106e-05
-6.7380091e-05
3.0597255e-12
-2.3363939e-05
-5.2897112e-05
3.5438179e-12
-1.27993e-05
-3.7986331e-05
5.473984e-12
-5.464876e-06
-2.3750756e-05
3.7392517e-12
-1.2772606e-06
-1.1394122e-05
-7.5256708e-12
-2.2362324e-06
1.2985154e-11
-2.9284815e-06
1.1132062e-05
-2.4986322e-11
-1.0673669e-05
3.2619585e-05
2.3076432e-11
-2.2336168e-05
5.2221777e-05
-3.2969644e-12
-3.7135967e-05
6.9341504e-05
-7.6929656e-12
-5.4394103e-05
8.3709506e-05
-3.5763707e-12
-7.3517622e-05
9.5249601e-05
-3.1326552e-12
-9.3984295e-05
0.0001040119
-3.4000923e-12
-0.00011532796
0.00011011641
-3.2117444e-12
-0.00013712517
0.00011370725
-2.927083e-12
-0.00015898353
0.00011492171
-2.6532187e-12
-0.00018053178
0.0001138729
-2.3567348e-12
-0.00020141215
0.0001106441
-2.0219062e-12
-0.00022127503
0.00010529246
-1.6438043e-12
-0.00023977618
9.7859404e-05
-1.2311351e-12
-0.00025657637
8.8385331e-05
-8.0846699e-13
-0.00027134346
7.6926323e-05
-3.9461259e-13
-0.00028375658
6.3570914e-05
1.7619478e-14
-0.00029351243
4.8455524e-05
4.5846514e-13
-0.00030033322
3.1777451e-05
9.4810748e-13
-0.00030397636
1.3804651e-05
1.4569502e-12
-0.00030424557
-5.118353e-06
1.9065513e-12
-0.00030100297
-2.456948e-05
2.2603111e-12
-0.00029418252
-4.4051363e-05
2.5051663e-12
-0.00028380326
-6.3001937e-05
2.732373e-12
-0.00026998223
-8.0809286e-05
3.0181806e-12
-0.0002529455
-9.6833967e-05
3.3090575e-12
-0.00023303599
-0.00011043814
3.4393091e-12
-0.00021071599
-0.00012102113
3.3131281e-12
-0.00018656267
-0.00012806025
3.0706829e-12
-0.00016125485
-0.00013115445
2.9895128e-12
-0.00013555
-0.00013006758
3.1641071e-12
-0.00011025147
-0.00012476694
3.3649461e-12
-8.6167361e-05
-0.00011545256
3.3443079e-12
-6.4063727e-05
-0.00010257332
3.1439635e-12
-4.4616688e-05
-8.6827183e-05
2.9020319e-12
-2.8368543e-05
-6.9145263e-05
3.3531324e-12
-1.5693148e-05
-5.0661702e-05
5.9405894e-12
-6.7752134e-06
-3.2668682e-05
3.8140151e-12
-1.6070329e-06
-1.6562301e-05
-1.0494603e-11
-3.8432851e-06
1.5517023e-11
-3.2816984e-06
1.4413788e-05
-2.758505e-11
-1.1915868e-05
4.1253728e-05
2.647217e-11
-2.4855506e-05
6.5161421e-05
-3.1260321e-12
-4.119991e-05
8.5685919e-05
-8.1088596e-12
-6.0176301e-05
0.0001026859
-3.5593203e-12
-8.1122243e-05
0.00011619554
-3.1333157e-12
-0.0001034663
0.00012635596
-3.5102914e-12
-0.00012670888
0.00013335899
-3.3700042e-12
-0.00015040465
0.00013740302
-3.1110943e-12
-0.00017414714
0.00013866421
-2.8579441e-12
-0.00019755594
0.0001372817
-2.5847252e-12
-0.00022026669
0.00013335485
-2.2846078e-12
-0.00024192389
0.00012694967
-1.9474689e-12
-0.00026217668
0.0001181122
-1.5588798e-12
-0.00028067717
0.00010688583
-1.124125e-12
-0.0002970813
9.3330463e-05
-6.7155405e-13
-0.00031105195
7.7541573e-05
-2.2942968e-13
-0.00032226414
5.9667711e-05
2.0339834e-13
-0.0003304122
3.9925505e-05
6.6085611e-13
-0.00033521898
1.8611417e-05
1.1648048e-12
-0.00033644714
-3.8901935e-06
1.6816047e-12
-0.00033391173
-2.7104869e-05
2.2087842e-12
-0.00032749596
-5.0467125e-05
2.5831973e-12
-0.00031716688
-7.3331034e-05
2.8060546e-12
-0.00030299231
-9.4983887e-05
2.9881088e-12
-0.00028515685
-0.00011466946
3.2376643e-12
-0.00026397519
-0.00013161978
3.5196991e-12
-0.00023990061
-0.00014509567
3.6512173e-12
-0.00021352581
-0.00015443502
3.5080439e-12
-0.00018557378
-0.00015910652
3.2292562e-12
-0.0001568766
-0.00015876481
3.1113806e-12
-0.00012834165
-0.00015330189
3.2615167e-12
-0.00010090606
-0.00014288811
3.4654397e-12
-7.5482456e-05
-0.0001279969
3.4069573e-12
-5.2901145e-05
-0.00010940852
2.9579178e-12
-3.3855127e-05
-8.8191317e-05
3.2314175e-12
-1.8854792e-05
-6.5662043e-05
6.3363852e-12
-8.1982614e-06
-4.33252e-05
3.8137713e-12
-1.9611595e-06
-2.2799383e-05
-1.3661235e-11
-5.8044675e-06
1.8223438e-11
-3.6023004e-06
1.8016122e-05
-2.9999561e-11
-1.3044869e-05
5.0696267e-05
2.9478535e-11
-2.7149284e-05
7.926584e-05
-3.0590038e-12
-4.4907162e-05
0.00010344381
-8.5728805e-12
-6.5461496e-05
0.00012324024
-3.6104422e-12
-8.8087225e-05
0.00013882127
-3.1851779e-12
-0.0001121688
0.00015043753
-3.6534386e-12
-0.00013717742
0.00015836761
-3.5633826e-12
-0.00016264988
0.00016287548
-3.3404365e-12
-0.00018816993
0.00016418426
-3.1122129e-12
-0.00021335264
0.00016246442
-2.8511215e-12
-0.00023783203
0.00015783424
-2.5638162e-12
-0.00026125191
0.00015036955
-2.2567058e-12
-0.00028325983
0.00014012012
-1.9123858e-12
-0.00030350382
0.00012712982
-1.5083957e-12
-0.00032163166
0.0001114583
-1.0452544e-12
-0.00033729244
9.3202362e-05
-5.5287673e-13
-0.00035014037
7.2515653e-05
-6.9487458e-14
-0.00035984078
4.9625912e-05
3.9363002e-13
-0.00036607842
2.4849044e-05
8.5216552e-13
-0.00036856897
-1.3996645e-06
1.3148173e-12
-0.00036707135
-2.8602493e-05
1.9604256e-12
-0.00036140637
-5.6132092e-05
2.523612e-12
-0.00035147457
-8.3262816e-05
2.9160628e-12
-0.00033727782
-0.00010918065
3.1239521e-12
-0.00031894091
-0.0001330064
3.2588949e-12
-0.00029673176
-0.00015382896
3.4582713e-12
-0.00027107728
-0.00017075015
3.706725e-12
-0.00024257162
-0.00018294064
3.8150759e-12
-0.00021197326
-0.00018970486
3.6477067e-12
-0.00018018759
-0.00019055051
3.3465963e-12
-0.00014823333
-0.0001852562
3.2181756e-12
-0.00011719277
-0.00017392867
3.3700049e-12
-8.8148946e-05
-0.00015704069
3.4728538e-12
-6.2115372e-05
-0.00013544208
3.0481282e-12
-3.996649e-05
-0.00011034022
3.2593781e-12
-2.2377618e-05
-8.3250941e-05
6.8414286e-12
-9.7826945e-06
-5.5920126e-05
3.7747632e-12
-2.3546953e-06
-3.0227356e-05
-1.719951e-11
-8.1591833e-06
2.1240778e-11
-3.8870479e-06
2.1903206e-05
-3.2200512e-11
-1.4048655e-05
6.0857845e-05
3.2093541e-11
-2.9192047e-05
9.4409235e-05
-3.0629852e-12
-4.8215257e-05
0.00012246703
-9.06137e-12
-7.0187834e-05
0.00014521282
-3.7402357e-12
-9.4330053e-05
0.00016296349
-3.3033714e-12
-0.00011998821
0.00017609569
-3.8372655e-12
-0.00014660908
0.00018498847
-3.7851682e-12
-0.00017371588
0.00018998229
-3.6021657e-12
-0.00020088685
0.00019135524
-3.4142359e-12
-0.00022773708
0.00018931465
-3.1776945e-12
-0.0002539038
0.00018400097
-2.8958162e-12
-0.00027903519
0.00017550095
-2.5919611e-12
-0.00030278231
0.00016386725
-2.2716103e-12
-0.00032479396
0.00014914147
-1.9139874e-12
-0.00034471403
0.00013137838
-1.4902163e-12
-0.00036218125
0.00011066958
-9.9276549e-13
-0.00037683113
8.7165536e-05
-4.5139836e-13
-0.00038830041
6.1095198e-05
8.3704341e-14
-0.00039623426
3.2782898e-05
5.9712195e-13
-0.00040029638
2.6624334e-06
1.1369385e-12
-0.00040018388
-2.8715011e-05
1.645549e-12
-0.00039564406
-6.0671922e-05
2.2496966e-12
-0.00038649736
-9.2409504e-05
2.83568e-12
-0.00037266262
-0.00012301537
3.2526212e-12
-0.00035418496
-0.00015148406
3.4499905e-12
-0.0003312638
-0.00017675015
3.5399968e-12
-0.00030427785
-0.00019773614
3.6793587e-12
-0.000273803
-0.00021341549
3.867394e-12
-0.00024061829
-0.00022288953
3.9199515e-12
-0.00020569517
-0.00022547361
3.7129122e-12
-0.00017016638
-0.00022078502
3.4142098e-12
-0.00013527319
-0.0002088219
3.3305035e-12
-0.00010229333
-0.00019002056
3.3760859e-12
-7.2455929e-05
-0.00016527946
2.9850903e-12
-4.6853286e-05
-0.00013594285
3.3078504e-12
-2.6361363e-05
-0.00010374288
7.5246656e-12
-1.1580446e-05
-7.0701058e-05
3.7921899e-12
-2.8033169e-06
-3.9004465e-05
-2.1212646e-11
-1.0962522e-05
2.4675658e-11
-4.1321155e-06
2.6035358e-05
-3.4154703e-11
-1.4914092e-05
7.1639793e-05
3.4288557e-11
-3.0957124e-05
0.00011045227
-3.1193982e-12
-5.1080647e-05
0.00014259056
-9.5411039e-12
-7.4292267e-05
0.00016842444
-3.9255889e-12
-9.976612e-05
0.00018843735
-3.4855439e-12
-0.00012681668
0.00020314626
-4.0699616e-12
-0.0001548713
0.00021304309
-4.0379036e-12
-0.00018344394
0.00021855492
-3.881237e-12
-0.0002121115
0.0002200228
-3.7351036e-12
-0.00024049344
0.0002176966
-3.5422433e-12
-0.00026823493
0.00021174246
-3.2863854e-12
-0.00029499351
0.00020225954
-2.9836474e-12
-0.00032042904
0.00018930278
-2.6572013e-12
-0.00034419639
0.00017290883
-2.3150982e-12
-0.00036594073
0.00015312271
-1.9376357e-12
-0.00038529504
0.00013002388
-1.490381e-12
-0.00040188001
0.0001037505
-9.5617272e-13
-0.00041530644
7.4521629e-05
-3.6071438e-13
-0.00042518076
4.2657234e-05
2.5304661e-13
-0.00043111396
8.5956273e-06
8.6465561e-13
-0.00043273622
-2.7092769e-05
1.3436103e-12
-0.00042971417
-6.3693998e-05
1.9002571e-12
-0.00042177619
-0.0001003475
2.5373233e-12
-0.00040874172
-0.00013604983
3.1507893e-12
-0.00039055537
-0.00016967038
3.5832417e-12
-0.00036732349
-0.00019998203
3.7673137e-12
-0.0003393498
-0.00022570986
3.811576e-12
-0.00030716538
-0.00024559994
3.8792798e-12
-0.00027154684
-0.00025850807
3.9761736e-12
-0.000233516
-0.00026350442
3.9373638e-12
-0.00019431496
-0.00025998604
3.6971477e-12
-0.00015535291
-0.00024778398
3.4670553e-12
-0.00011812527
-0.00022724822
3.3128775e-12
-8.4111836e-05
-0.0001992929
2.7890697e-12
-5.4665478e-05
-0.0001653892
3.2521713e-12
-3.0907337e-05
-0.00012750102
8.3272976e-12
-1.3644697e-05
-8.7963708e-05
3.8930622e-12
-3.3229941e-06
-4.9326148e-05
-2.5785766e-11
-1.4285544e-05
2.865592e-11
-4.3334537e-06
3.0368849e-05
-3.5815179e-11
-1.5627791e-05
8.2934099e-05
3.6029883e-11
-3.2417904e-05
0.00012724239
-3.2274706e-12
-5.34603e-05
0.00016363297
-9.9904898e-12
-7.7712454e-05
0.0001926766
-4.1386059e-12
-0.000104311
0.0002150359
-3.7108124e-12
-0.00013254491
0.00023138017
-4.3479746e-12
-0.00016182693
0.00024232512
-4.3320357e-12
-0.00019166588
0.00024839387
-4.1856123e-12
-0.00022164124
0.00024999817
-4.062543e-12
-0.00025138097
0.00024743632
-3.9103945e-12
-0.00028054265
0.00024090414
-3.7015404e-12
-0.00030879822
0.00023051511
-3.4282326e-12
-0.00033582178
0.00021632635
-3.1009494e-12
-0.00036128017
0.00019836723
-2.743606e-12
-0.00038482594
0.00017666849
-2.3701858e-12
-0.00040609255
0.00015129048
-1.9657189e-12
-0.00042469178
0.00012234972
-1.4919711e-12
-0.00044021385
9.004369e-05
-9.1816981e-13
-0.00045223065
5.4674036e-05
-2.5449492e-13
-0.00046030303
1.6668018e-05
4.3758514e-13
-0.00046399357
-2.3402228e-05
1.0398405e-12
-0.00046288448
-6.4803096e-05
1.6055317e-12
-0.00045660342
-0.00010662859
2.1992086e-12
-0.0004448561
-0.00014779716
2.8518278e-12
-0.00042746613
-0.00018706034
3.4748688e-12
-0.00040442021
-0.00022302793
3.9028476e-12
-0.00037591559
-0.00025421446
4.0588955e-12
-0.00034240458
-0.00027911099
4.0465188e-12
-0.00030462863
-0.00029628405
4.0211008e-12
-0.00026363338
-0.00030449967
3.9907431e-12
-0.00022075512
-0.00030286428
3.857285e-12
-0.00017757162
-0.00029096747
3.6542533e-12
-0.00013581501
-0.00026900485
3.3606738e-12
-9.7251938e-05
-0.00023785599
2.5886943e-12
-6.3544843e-05
-0.0001990963
3.1076781e-12
-3.611469e-05
-0.00015493118
9.1996274e-12
-1.6028557e-05
-0.00010804984
4.0332484e-12
-3.9298359e-06
-6.142484e-05
-3.1046227e-11
-1.8215415e-05
3.3321888e-11
-4.4872226e-06
3.485611e-05
-3.7132988e-11
-1.6177322e-05
9.4624163e-05
3.7299722e-11
-3.3549896e-05
0.00014461498
-3.3882388e-12
-5.531455e-05
0.00018539763
-1.0406088e-11
-8.0390363e-05
0.00021775242
-4.3665095e-12
-0.0001078848
0.00024253033
-3.9565286e-12
-0.00013706725
0.00026056262
-4.6501472e-12
-0.00016734027
0.00027259815
-4.6613806e-12
-0.0001982112
0.0002792648
-4.5265361e-12
-0.00022926561
0.00028105259
-4.409306e-12
-0.00026014367
0.00027831439
-4.2726717e-12
-0.00029051966
0.00027128013
-4.101016e-12
-0.00032008482
0.00026008028
-3.8767927e-12
-0.00034853317
0.00024477471
-3.5833329e-12
-0.00037554993
0.00022538399
-3.2256406e-12
-0.00040080218
0.00020192075
-2.8285167e-12
-0.00042393159
0.0001744199
-2.4137166e-12
-0.0004445493
0.00014296742
-1.9739232e-12
-0.00046223322
0.0001077276
-1.4661301e-12
-0.00047652863
6.8969439e-05
-8.4367567e-13
-0.00048695289
2.7092273e-05
-1.1506788e-13
-0.00049300564
-1.7349458e-05
6.2747731e-13
-0.00049418564
-6.3623094e-05
1.3109681e-12
-0.00049001582
-0.00011079841
1.9290259e-12
-0.00048007775
-0.00015773525
2.5480554e-12
-0.00046405568
-0.00020308243
3.2050622e-12
-0.00044178975
-0.00024529384
3.8113157e-12
-0.00041333574
-0.00028266846
4.2015287e-12
-0.00037902594
-0.00031342078
4.3007743e-12
-0.00033952333
-0.00033578668
4.2038805e-12
-0.00029585752
-0.0003481655
4.0491128e-12
-0.0002494298
-0.00034929201
3.8881794e-12
-0.00020197496
-0.0003384223
3.738992e-12
-0.00015547283
-0.00031550697
3.4187277e-12
-0.00011201159
-0.00028131725
2.4183125e-12
-7.3617499e-05
-0.0002374904
2.9493387e-12
-4.2077006e-05
-0.00018647168
1.0177944e-11
-1.8784003e-05
-0.00013134284
4.180288e-12
-4.6400098e-06
-7.5568794e-05
-3.7154903e-11
-2.2855464e-05
3.8796118e-11
-4.5902813e-06
3.9446433e-05
-3.8077982e-11
-1.6552687e-05
0.00010658653
3.8095234e-11
-3.4333347e-05
0.00016239564
-3.5889609e-12
-5.6610885e-05
0.00020767519
-1.0787385e-11
-8.2277183e-05
0.00024341872
-4.618521e-12
-0.00011041819
0.00027067134
-4.217406e-12
-0.00014028892
0.00029043336
-4.9555453e-12
-0.00017128552
0.00030359474
-4.9993515e-12
-0.00020291689
0.00031089618
-4.8908467e-12
-0.00023477769
0.0003129134
-4.7844721e-12
-0.00026652359
0.00031006029
-4.6458523e-12
-0.00029784946
0.00030260601
-4.4796064e-12
-0.0003284706
0.00029070143
-4.2851074e-12
-0.00035810672
0.00027441082
-4.0391951e-12
-0.00038646825
0.00025374552
-3.7190927e-12
-0.00041324485
0.00022869736
-3.3238121e-12
-0.00043809567
0.00019927073
-2.8778236e-12
-0.00046064152
0.00016551327
-2.4112135e-12
-0.00048045932
0.00012754539
-1.9244979e-12
-0.00049707946
8.5589573e-05
-1.3710391e-12
-0.00050998721
4.0000001e-05
-6.9682049e-13
-0.00051862939
-8.7072679e-06
9.0776653e-14
-0.00052242834
-5.982413e-05
9.0341393e-13
-0.00052080462
-0.00011242211
1.6535388e-12
-0.00051321089
-0.00016532898
2.3207801e-12
-0.00049917823
-0.00021711512
2.9607455e-12
-0.0004783755
-0.00026609658
3.6011766e-12
-0.00045068059
-0.00031036336
4.1514713e-12
-0.0004162589
-0.00034784246
4.4566752e-12
-0.00037564085
-0.00037640473
4.4508619e-12
-0.00032978532
-0.00039402105
4.2196302e-12
-0.00028011191
-0.00039896544
3.9288809e-12
-0.00022848373
-0.00039005048
3.7262525e-12
-0.00017712616
-0.00036686454
3.3776265e-12
-0.00012847765
-0.00032996575
2.1899347e-12
-8.4985584e-05
-0.00028098248
2.7781535e-12
-4.8878642e-05
-0.00022257864
1.1322431e-11
-2.1960825e-05
-0.00015826067
4.3491181e-12
-5.4696777e-06
-9.2059895e-05
-4.4257097e-11
-2.8325186e-05
4.5188547e-11
-4.6407175e-06
4.4087193e-05
-3.8645293e-11
-1.6747985e-05
0.00011869376
3.8413381e-11
-3.4756311e-05
0.00018040397
-3.8083702e-12
-5.7328463e-05
0.00023024735
-1.1121118e-11
-8.3339267e-05
0.00026942953
-4.8988817e-12
-0.00011185972
0.0002991918
-4.5027138e-12
-0.00014213476
0.0003207084
-5.2569629e-12
-0.00017355703
0.00033501702
-5.3268741e-12
-0.00020563945
0.0003429786
-5.2525324e-12
-0.00023798811
0.00034526206
-5.1726657e-12
-0.00027027702
0.00034234921
-5.0390472e-12
-0.0003022252
0.0003345542
-4.8595615e-12
-0.00033357653
0.00032205277
-4.6557259e-12
-0.00036408206
0.00030491636
-4.4254524e-12
-0.00039348459
0.00028314805
-4.1453594e-12
-0.00042150501
0.00025671777
-3.7883731e-12
-0.00044783033
0.00022559605
-3.3461528e-12
-0.00047210323
0.00018978618
-2.8417258e-12
-0.00049391354
0.00014935571
-2.3123935e-12
-0.00051279208
0.00010446812
-1.7651601e-12
-0.00052820809
5.5415997e-05
-1.1537877e-12
-0.00053957141
2.6560445e-06
-4.1824317e-13
-0.00054624184
-5.3153693e-05
4.1882606e-13
-0.00054754741
-0.00011111653
1.2922393e-12
-0.00054281499
-0.00017006139
2.0995462e-12
-0.0005314158
-0.00022851432
2.805924e-12
-0.00051282804
-0.00028468435
3.4472675e-12
-0.00048671738
-0.00033647404
4.0332243e-12
-0.00045303246
-0.00038152737
4.4711224e-12
-0.00041210823
-0.00041732895
4.62215e-12
-0.00036476274
-0.00044136654
4.4375892e-12
-0.00031236681
-0.00045136138
4.0523823e-12
-0.00025686081
-0.0004455565
3.7183117e-12
-0.00020069381
-0.00042303154
3.2447805e-12
-0.00014667113
-0.00038398842
1.8202091e-12
-9.7717405e-05
-0.0003299362
2.5185326e-12
-5.6590332e-05
-0.00026370573
1.2639633e-11
-2.5605327e-05
-0.00018924568
4.5605766e-12