/*--------------------------------*- C++ -*----------------------------------*\
  =========                 |
  \\      /  F ield         | OpenFOAM: The Open Source CFD Toolbox
   \\    /   O peration     | Website:  https://openfoam.org
    \\  /    A nd           | Version:  7
     \\/     M anipulation  |
\*---------------------------------------------------------------------------*/
FoamFile
{
    version     2.0;
    format      ascii;
    class       volVectorField;
    location    "48";
    object      U;
}
// * * * * * * * * * * * * * * * * * * * * * * * * * * * * * * * * * * * * * //

dimensions      [0 1 -1 0 0 0 0];

internalField   nonuniform List<vector> 
16000
(
(6.6072422e-05 -6.7304688e-05 -3.9441644e-07)
(0.00016279684 -5.6338588e-05 5.710986e-06)
(0.00014194501 4.7099702e-07 1.9211449e-05)
(-5.0606141e-05 6.1894961e-05 3.6634131e-05)
(-0.00040996357 0.00011563309 5.4742877e-05)
(-0.00090902012 0.00015774481 7.1571354e-05)
(-0.0015177075 0.00018850531 8.57835e-05)
(-0.0022068832 0.00020960943 9.6564215e-05)
(-0.002950599 0.00022287703 0.00010345318)
(-0.0037264627 0.0002298113 0.00010620345)
(-0.0045150486 0.00023147726 0.00010468774)
(-0.0052990115 0.00022850404 9.8843024e-05)
(-0.0060621916 0.00022114742 8.8644696e-05)
(-0.0067888628 0.000209383 7.4103335e-05)
(-0.0074632151 0.0001930136 5.5277701e-05)
(-0.0080691168 0.00017178044 3.2297999e-05)
(-0.0085901701 0.00014547146 5.394088e-06)
(-0.0090100509 0.00011402165 -2.5076173e-05)
(-0.0093131038 7.7601119e-05 -5.8602854e-05)
(-0.0094851498 3.6687164e-05 -9.4508152e-05)
(-0.0095144495 -7.8865366e-06 -0.00013194234)
(-0.0093927309 -5.4924123e-05 -0.00016989431)
(-0.0091162251 -0.00010284362 -0.00020721783)
(-0.0086866034 -0.00014974975 -0.0002426752)
(-0.0081116926 -0.00019351255 -0.00027499654)
(-0.0074058956 -0.00023188645 -0.0003029527)
(-0.0065902199 -0.00026266054 -0.00032543711)
(-0.0056918532 -0.00028382654 -0.00034155002)
(-0.00474326 -0.00029374806 -0.00035067762)
(-0.0037808181 -0.00029131255 -0.00035255858)
(-0.0028430641 -0.00027604778 -0.00034733215)
(-0.0019686526 -0.00024818901 -0.00033556418)
(-0.0011941442 -0.00020869656 -0.00031825003)
(-0.0005516665 -0.00015926027 -0.00029679573)
(-6.6507244e-05 -0.00010240717 -0.00027297208)
(0.00024491979 -4.1756696e-05 -0.00024883629)
(0.00037894007 1.7847776e-05 -0.00022676795)
(0.00034978391 6.7073369e-05 -0.00020920089)
(0.00020618546 8.9858193e-05 -0.00019880819)
(5.7464381e-05 5.7411602e-05 -0.00018436234)
(5.8019914e-05 -0.00016698587 -6.6201274e-06)
(4.0915404e-05 -3.9924361e-05 -3.6382889e-07)
(-0.00029494815 0.00024858564 1.1269835e-05)
(-0.001011006 0.0005621365 2.5635972e-05)
(-0.0020992161 0.00084750451 4.0621126e-05)
(-0.0035140804 0.0010831259 5.4629423e-05)
(-0.0051946818 0.0012643051 6.6533516e-05)
(-0.0070766273 0.0013940707 7.558112e-05)
(-0.0090981493 0.0014779629 8.1290494e-05)
(-0.011202306 0.0015215288 8.3362012e-05)
(-0.013337035 0.0015292123 8.1612325e-05)
(-0.015454179 0.0015039765 7.593142e-05)
(-0.017508151 0.0014473579 6.6260944e-05)
(-0.019454718 0.0013597784 5.259016e-05)
(-0.021250158 0.0012410021 3.4965233e-05)
(-0.022850978 0.0010906585 1.3507395e-05)
(-0.024214229 0.00090877467 -1.1564365e-05)
(-0.025298436 0.00069627518 -3.991017e-05)
(-0.026065059 0.00045541381 -7.1049491e-05)
(-0.026480401 0.0001901063 -0.00010434816)
(-0.026517817 -9.386566e-05 -0.00013901523)
(-0.026159989 -0.00038877595 -0.00017411901)
(-0.02540117 -0.00068509113 -0.00020860366)
(-0.02424917 -0.00097175974 -0.00024133696)
(-0.022726751 -0.0012366947 -0.0002711635)
(-0.020872349 -0.001467429 -0.00029697167)
(-0.018739913 -0.0016519061 -0.0003177689)
(-0.016397717 -0.0017793509 -0.00033275914)
(-0.013926126 -0.0018411463 -0.0003414156)
(-0.011414316 -0.0018316365 -0.00034354055)
(-0.0089560968 -0.0017487783 -0.00033930563)
(-0.0066450041 -0.0015945883 -0.00032926897)
(-0.0045688973 -0.0013753897 -0.00031436872)
(-0.0028042255 -0.0011019659 -0.00029589495)
(-0.0014100217 -0.00078992265 -0.00027544034)
(-0.00042163444 -0.00046058998 -0.00025482204)
(0.00015577095 -0.0001425581 -0.00023595559)
(0.00035672871 0.00012231937 -0.00022085494)
(0.00027526229 0.00027113549 -0.00021161672)
(9.0120668e-05 0.00020509603 -0.000195425)
(1.9260085e-06 -0.00014893638 -2.0405658e-05)
(-0.00025603049 0.00029705035 -1.1785134e-05)
(-0.001050432 0.001023648 1.1324861e-07)
(-0.0023878098 0.0017975564 1.3093405e-05)
(-0.0042394303 0.0025099156 2.612974e-05)
(-0.0065455527 0.0031100658 3.8081373e-05)
(-0.0092251174 0.0035809321 4.812125e-05)
(-0.012189995 0.0039234383 5.568867e-05)
(-0.015352986 0.0041461895 6.0402014e-05)
(-0.018631054 0.0042595943 6.2004656e-05)
(-0.021946078 0.0042728175 6.0323695e-05)
(-0.025224256 0.0041924771 5.5241318e-05)
(-0.028394923 0.0040224707 4.6681181e-05)
(-0.031389392 0.0037645243 3.4608136e-05)
(-0.034140222 0.0034191702 1.9038308e-05)
(-0.036581145 0.0029869391 5.6270906e-08)
(-0.038647754 0.0024696047 -2.2164061e-05)
(-0.040278948 0.0018713577 -4.7338221e-05)
(-0.041419059 0.001199807 -7.5052804e-05)
(-0.042020508 0.00046672886 -0.00010475308)
(-0.042046773 -0.00031150098 -0.00013574122)
(-0.041475478 -0.0011138129 -0.00016718186)
(-0.040301323 -0.0019148777 -0.00019812759)
(-0.038538561 -0.0026858637 -0.00022755527)
(-0.036222758 -0.0033956796 -0.00025441702)
(-0.033411587 -0.004012609 -0.00027770275)
(-0.030184433 -0.0045062504 -0.00029650976)
(-0.026640648 -0.0048496389 -0.00031011462)
(-0.022896384 -0.0050213904 -0.00031804075)
(-0.019080021 -0.0050076895 -0.00032011454)
(-0.01532633 -0.0048039549 -0.00031650192)
(-0.011769574 -0.0044160692 -0.00030771998)
(-0.0085358391 -0.0038611619 -0.00029462204)
(-0.0057348844 -0.0031681036 -0.00027835957)
(-0.0034517056 -0.0023781161 -0.00026032545)
(-0.0017379799 -0.0015461901 -0.00024207698)
(-0.00060368405 -0.00074418935 -0.00022522762)
(-8.0369901e-06 -6.6360422e-05 -0.00021137085)
(0.00015540629 0.0003603978 -0.00020219127)
(7.3551691e-05 0.00035437488 -0.00018527455)
(-6.4680746e-05 5.0437546e-05 -3.8657494e-05)
(-0.00060837161 0.001045782 -2.6117004e-05)
(-0.0019305267 0.0023817579 -1.2135611e-05)
(-0.003946427 0.0037565366 1.1572577e-06)
(-0.0065890067 0.0050153278 1.3745541e-05)
(-0.0097791955 0.0060800738 2.4869902e-05)
(-0.013417126 0.0069205297 3.3993117e-05)
(-0.017395533 0.0075341193 4.0779833e-05)
(-0.021607745 0.0079314009 4.4994061e-05)
(-0.025950708 0.0081270436 4.6463981e-05)
(-0.030325866 0.0081347706 4.5058856e-05)
(-0.034638817 0.0079650029 4.0672392e-05)
(-0.038798385 0.0076243752 3.3217532e-05)
(-0.042715707 0.0071165075 2.2631971e-05)
(-0.046303776 0.0064435526 8.8919821e-06)
(-0.049477694 0.0056081428 -7.9679702e-06)
(-0.052155752 0.0046154474 -2.78325e-05)
(-0.054261315 0.0034751098 -5.0482406e-05)
(-0.055725443 0.0022028875 -7.5574582e-05)
(-0.056490045 0.00082185031 -0.00010262789)
(-0.056511345 -0.00063697041 -0.00013101799)
(-0.055763448 -0.0021345972 -0.00015997999)
(-0.054241671 -0.0036248159 -0.00018863164)
(-0.05196532 -0.0050556222 -0.00021600548)
(-0.048979666 -0.0063713951 -0.00024109831)
(-0.045356811 -0.0075157205 -0.00026293304)
(-0.041195194 -0.0084347295 -0.00028062824)
(-0.036617537 -0.0090807517 -0.00029346968)
(-0.031767145 -0.0094160291 -0.0003009773)
(-0.026802519 -0.0094162042 -0.00030296076)
(-0.021890418 -0.009073308 -0.00029955624)
(-0.01719757 -0.0083980436 -0.00029123736)
(-0.012881386 -0.0074212977 -0.00027879626)
(-0.0090800555 -0.0061950237 -0.00026329632)
(-0.0059024831 -0.0047929336 -0.00024600368)
(-0.003418498 -0.0033118204 -0.00022830597)
(-0.0016495319 -0.0018745353 -0.00021163136)
(-0.00055980099 -0.00063470869 -0.00019737676)
(-5.0115569e-05 0.00021500226 -0.00018677788)
(3.8094353e-05 0.00041383243 -0.00016797277)
(-0.00013086398 0.00044557057 -5.8173671e-05)
(-0.00097094561 0.0022427029 -4.1107004e-05)
(-0.0028462054 0.0043591993 -2.4224522e-05)
(-0.0055648055 0.0064572269 -9.7921233e-06)
(-0.0090094341 0.0083534868 3.126452e-06)
(-0.013075454 0.0099514613 1.4106469e-05)
(-0.017642273 0.011211756 2.2885041e-05)
(-0.022584675 0.01212959 2.9357362e-05)
(-0.027779628 0.01271753 3.3446186e-05)
(-0.033108109 0.012994151 3.5078626e-05)
(-0.038455492 0.012977369 3.41774e-05)
(-0.043711125 0.012681217 3.0654132e-05)
(-0.048767517 0.01211513 2.4411992e-05)
(-0.05351963 0.011284988 1.5357511e-05)
(-0.057864698 0.01019526 3.4193326e-06)
(-0.061702792 0.0088517408 -1.142815e-05)
(-0.064938227 0.0072644393 -2.9138401e-05)
(-0.067481793 0.005450291 -4.9566133e-05)
(-0.069253702 0.0034354345 -7.2443372e-05)
(-0.070187074 0.0012568423 -9.736129e-05)
(-0.070231725 -0.0010368524 -0.00012376074)
(-0.069358017 -0.0033854763 -0.00015093374)
(-0.067560464 -0.0057183965 -0.00017803981)
(-0.0648608 -0.0079566871 -0.00020413716)
(-0.061310202 -0.010016305 -0.00022823045)
(-0.056990366 -0.011812193 -0.00024933307)
(-0.052013153 -0.013263143 -0.00026653953)
(-0.046518561 -0.014297147 -0.00027910103)
(-0.040670852 -0.014856891 -0.0002864958)
(-0.034652768 -0.014904999 -0.00028848665)
(-0.028657899 -0.014428612 -0.00028515879)
(-0.022881406 -0.013442971 -0.00027693195)
(-0.017509481 -0.011993827 -0.00026454158)
(-0.012708058 -0.010158717 -0.00024898744)
(-0.0086114683 -0.0080474998 -0.0002314537)
(-0.0053117553 -0.0058029611 -0.00021321784)
(-0.0028485196 -0.0036024776 -0.00019559136)
(-0.0012000349 -0.0016605456 -0.00017984168)
(-0.0002888102 -0.00023377941 -0.00016669694)
(-2.4710796e-06 0.00035046641 -0.00014546736)
(-0.00019286434 0.0010313094 -7.6653822e-05)
(-0.0013239843 0.0038925407 -5.474854e-05)
(-0.0037518531 0.0069680086 -3.4543757e-05)
(-0.0071732949 0.0099108288 -1.8450202e-05)
(-0.011414803 0.012527407 -4.6544224e-06)
(-0.016341479 0.014714513 6.7083334e-06)
(-0.021809616 0.01643051 1.562516e-05)
(-0.027675875 0.017672026 2.2210765e-05)
(-0.033802395 0.018455254 2.654361e-05)
(-0.040056847 0.018803218 2.8650359e-05)
(-0.046311837 0.018738082 2.8508218e-05)
(-0.05244406 0.01827741 2.6046228e-05)
(-0.058333356 0.017433438 2.115484e-05)
(-0.063862062 0.016214496 1.3703944e-05)
(-0.068914992 0.014627824 3.5671057e-06)
(-0.073380202 0.012683108 -9.3498485e-06)
(-0.077150614 0.01039621 -2.5077695e-05)
(-0.080126454 0.007792637 -4.3552267e-05)
(-0.082218394 0.004910445 -6.458523e-05)
(-0.083351221 0.0018022812 -8.7840375e-05)
(-0.083467824 -0.0014636094 -0.00011281883)
(-0.082533264 -0.0048035801 -0.00013885671)
(-0.080538654 -0.0081200481 -0.00016513694)
(-0.077504588 -0.011304336 -0.00019071878)
(-0.073483765 -0.014240832 -0.00021458418)
(-0.068562536 -0.016812392 -0.00023570093)
(-0.062861006 -0.018906784 -0.00025309866)
(-0.0565314 -0.020423862 -0.00026595098)
(-0.049754415 -0.021283052 -0.00027365385)
(-0.042733401 -0.021430612 -0.00027588988)
(-0.035686358 -0.020846123 -0.00027266996)
(-0.028835914 -0.019547676 -0.00026434688)
(-0.022397705 -0.017595395 -0.00025159793)
(-0.016567759 -0.01509317 -0.0002353739)
(-0.011509867 -0.012188858 -0.00021681336)
(-0.0073439005 -0.0090736713 -0.00019714207)
(-0.0041345364 -0.005981674 -0.00017763066)
(-0.0018815978 -0.0031890395 -0.00015951209)
(-0.00053619221 -0.0010143223 -0.00014311725)
(-4.1245453e-05 0.0001589498 -0.00011902781)
(-0.00025011634 0.0017985723 -9.2140511e-05)
(-0.0016597715 0.005984146 -6.5248947e-05)
(-0.0046244537 0.010198624 -4.1562619e-05)
(-0.008732166 0.014107029 -2.3507801e-05)
(-0.013751601 0.017522345 -8.4693608e-06)
(-0.019515076 0.020347126 3.6696444e-06)
(-0.025854142 0.022545932 1.3120946e-05)
(-0.032607007 0.02412201 2.0200677e-05)
(-0.03962188 0.025098115 2.513115e-05)
(-0.04675501 0.025503183 2.8030655e-05)
(-0.053868799 0.025364233 2.8924781e-05)
(-0.060830246 0.024702541 2.7754226e-05)
(-0.06750964 0.023533176 2.4390391e-05)
(-0.073779767 0.021866981 1.8659201e-05)
(-0.079515878 0.019714125 1.0370917e-05)
(-0.084596502 0.017088491 -6.4583768e-07)
(-0.088905128 0.014012234 -1.4507512e-05)
(-0.092332704 0.010520009 -3.1238463e-05)
(-0.094780824 0.0066624822 -5.073568e-05)
(-0.09616547 0.0025088072 -7.273855e-05)
(-0.096421124 -0.0018521448 -9.6807456e-05)
(-0.095505033 -0.0063119942 -0.00012231591)
(-0.093401435 -0.010744591 -0.00014845722)
(-0.090125482 -0.015009424 -0.00017427206)
(-0.085726506 -0.018956669 -0.00019869404)
(-0.080290345 -0.022433825 -0.00022061404)
(-0.073940286 -0.02529375 -0.00023895998)
(-0.066836243 -0.027403773 -0.00025278607)
(-0.059171754 -0.028655379 -0.0002613618)
(-0.051168505 -0.028973824 -0.00026424843)
(-0.043068247 -0.028326927 -0.00026135073)
(-0.035122197 -0.026732284 -0.00025293593)
(-0.027578339 -0.024262247 -0.00023961809)
(-0.020667345 -0.021046308 -0.00022230803)
(-0.014588349 -0.017270901 -0.00020212596)
(-0.0094958199 -0.013177224 -0.0001802965)
(-0.0054864903 -0.0090579289 -0.00015812329)
(-0.0025879524 -0.0052522178 -0.00013689231)
(-0.00078446846 -0.0021405349 -0.00011660792)
(-7.6873417e-05 -0.00016053798 -8.9404124e-05)
(-0.00030295604 0.0027365303 -0.00010296412)
(-0.0019754981 0.0084981083 -7.0991775e-05)
(-0.0054521398 0.014028586 -4.3843974e-05)
(-0.010217971 0.019021402 -2.3699399e-05)
(-0.015985179 0.023311109 -7.204131e-06)
(-0.022552797 0.026818211 5.9849099e-06)
(-0.029727184 0.029522446 1.6282211e-05)
(-0.037328208 0.031439792 2.4185588e-05)
(-0.045190986 0.032603417 3.0045167e-05)
(-0.053161894 0.033050386 3.405793e-05)
(-0.061095251 0.032813704 3.6287044e-05)
(-0.068850862 0.031918834 3.667536e-05)
(-0.076292143 0.030383793 3.5066296e-05)
(-0.083284992 0.028221867 3.1232852e-05)
(-0.089697553 0.025446025 2.491262e-05)
(-0.095400893 0.022074175 1.584726e-05)
(-0.10027057 0.018134572 3.8248474e-06)
(-0.10418904 0.013670804 -1.1276853e-05)
(-0.10704872 0.0087459307 -2.9448605e-05)
(-0.10875573 0.0034454484 -5.0512379e-05)
(-0.10923405 -0.0021211626 -7.409241e-05)
(-0.10842999 -0.0078205188 -9.9600525e-05)
(-0.10631684 -0.01349715 -0.00012623535)
(-0.10289945 -0.018977287 -0.00015300666)
(-0.098218428 -0.024074607 -0.00017877929)
(-0.09235356 -0.028597964 -0.00020233932)
(-0.085426039 -0.032360984 -0.00022247838)
(-0.077598904 -0.035193196 -0.00023809028)
(-0.069075169 -0.036952164 -0.0002482714)
(-0.06009312 -0.037535855 -0.0002524127)
(-0.050918474 -0.036894262 -0.00025026844)
(-0.041833361 -0.035039218 -0.00024198883)
(-0.033122487 -0.032051384 -0.00022811121)
(-0.025057302 -0.028083649 -0.00020951099)
(-0.017879649 -0.023360681 -0.00018731183)
(-0.01178648 -0.018174998 -0.00016277927)
(-0.006914069 -0.012880396 -0.00013731605)
(-0.0033238382 -0.0078822617 -0.0001123461)
(-0.0010368623 -0.0036261487 -8.763866e-05)
(-0.0001109348 -0.00060701972 -5.720018e-05)
(-0.0003516931 0.0038338224 -0.00010766103)
(-0.0022696851 0.011410365 -7.050298e-05)
(-0.0062274773 0.018427308 -4.0025002e-05)
(-0.011614746 0.024619966 -1.7774627e-05)
(-0.018090314 0.029857571 2.8922189e-07)
(-0.025421019 0.034089888 1.471854e-05)
(-0.033388714 0.037320723 2.6112829e-05)
(-0.041795671 0.039585257 3.5132835e-05)
(-0.050464968 0.04093145 4.2239542e-05)
(-0.059234591 0.041407244 4.7693747e-05)
(-0.067952675 0.041053189 5.1583141e-05)
(-0.07647404 0.03989967 5.3841161e-05)
(-0.084657597 0.037967843 5.4272692e-05)
(-0.092364713 0.035273273 5.2587674e-05)
(-0.09945859 0.031831292 4.8440634e-05)
(-0.10580462 0.027663186 4.1475107e-05)
(-0.11127169 0.022802466 3.1371624e-05)
(-0.11573423 0.017300632 1.7897366e-05)
(-0.11907517 0.011231988 9.5497864e-07)
(-0.12118942 0.0046971961 -1.9372367e-05)
(-0.12198809 -0.0021747087 -4.2783669e-05)
(-0.12140313 -0.0092260661 -6.8737929e-05)
(-0.11939248 -0.016272193 -9.6442881e-05)
(-0.11594549 -0.023105289 -0.00012487417)
(-0.11108823 -0.029500582 -0.00015281453)
(-0.10488841 -0.035224942 -0.00017892071)
(-0.097459313 -0.040047912 -0.0002018131)
(-0.088962032 -0.043754921 -0.0002201814)
(-0.079605258 -0.046162116 -0.00023289801)
(-0.06964189 -0.047131962 -0.00023912732)
(-0.059361864 -0.046588363 -0.00023841629)
(-0.049080952 -0.044529875 -0.00023074973)
(-0.039125754 -0.041039497 -0.0002165586)
(-0.029815744 -0.036289759 -0.00019667757)
(-0.021444142 -0.030542382 -0.00017225136)
(-0.014259508 -0.024142639 -0.00014462405)
(-0.0084461218 -0.017509198 -0.00011535687)
(-0.0041057558 -0.011119102 -8.6091556e-05)
(-0.0013000795 -0.0054896928 -5.6432905e-05)
(-0.00014466054 -0.0011817403 -2.2482746e-05)
(-0.0003963924 0.0050786761 -0.00010491198)
(-0.0025408043 0.014693492 -6.2429938e-05)
(-0.0069442121 0.023357987 -2.8823683e-05)
(-0.012909246 0.03086082 -4.5221352e-06)
(-0.020045656 0.037117361 1.5157491e-05)
(-0.02809031 0.042116919 3.0964589e-05)
(-0.036802155 0.045895798 4.3669422e-05)
(-0.045967206 0.048514828 5.4078828e-05)
(-0.055397846 0.050041372 6.2748627e-05)
(-0.064925216 0.050537314 6.998877e-05)
(-0.074393077 0.050052604 7.5898192e-05)
(-0.083653298 0.048623493 8.0388868e-05)
(-0.092562458 0.046274541 8.3215977e-05)
(-0.10097956 0.043023322 8.4015553e-05)
(-0.10876487 0.038886829 8.2347823e-05)
(-0.11577978 0.033888628 7.7745696e-05)
(-0.12188764 0.028066017 6.9767723e-05)
(-0.1269554 0.021476604 5.805389e-05)
(-0.13085612 0.014203882 4.238187e-05)
(-0.13347227 0.0063614911 2.2720884e-05)
(-0.13469977 -0.0019040838 -7.2135231e-07)
(-0.13445283 -0.010412652 -2.7469825e-05)
(-0.1326696 -0.018951376 -5.6753192e-05)
(-0.12931856 -0.027278403 -8.7520014e-05)
(-0.12440509 -0.035129036 -0.00011846717)
(-0.11797826 -0.042224891 -0.00014810397)
(-0.11013685 -0.048286166 -0.00017484545)
(-0.10103395 -0.053046899 -0.00019712875)
(-0.090879083 -0.056272748 -0.00021354279)
(-0.07993677 -0.057780335 -0.00022295886)
(-0.068520636 -0.057456696 -0.00022464704)
(-0.056982432 -0.055276925 -0.00021836118)
(-0.045695957 -0.051317904 -0.00020437553)
(-0.03503666 -0.045766097 -0.00018346045)
(-0.025358976 -0.038918054 -0.00015678913)
(-0.016973702 -0.03117332 -0.0001258184)
(-0.010123128 -0.023020492 -9.2325303e-05)
(-0.0049573033 -0.015016289 -5.8245808e-05)
(-0.0015839113 -0.0077601702 -2.3074097e-05)
(-0.00018000455 -0.0018919981 1.4788465e-05)
(-0.00043687316 0.0064585706 -9.3514463e-05)
(-0.0027868514 0.018316908 -4.5533731e-05)
(-0.0075958984 0.028778333 -9.0493482e-06)
(-0.014088638 0.037694921 1.7204573e-05)
(-0.021830805 0.045038226 3.8508332e-05)
(-0.030532267 0.05084629 5.5800526e-05)
(-0.039931317 0.055195709 7.0010415e-05)
(-0.04979951 0.058179135 8.2076084e-05)
(-0.059940136 0.059887939 9.263393e-05)
(-0.070179119 0.060401164 0.00010202992)
(-0.080357623 0.059780209 0.00011036218)
(-0.09032651 0.058068293 0.00011751014)
(-0.099942082 0.0552937 0.00012316858)
(-0.10906306 0.051475682 0.00012688876)
(-0.11754872 0.046631962 0.00012812476)
(-0.12525817 0.040786897 0.00012628512)
(-0.13205051 0.033979551 0.00012078978)
(-0.1377859 0.02627113 0.00011113122)
(-0.14232754 0.017751402 9.6938031e-05)
(-0.14554452 0.0085438173 7.8038421e-05)
(-0.14731572 -0.0011908559 5.4518813e-05)
(-0.14753462 -0.011252633 2.6757033e-05)
(-0.14611544 -0.021402753 -4.5171095e-06)
(-0.14300051 -0.031366231 -3.8243595e-05)
(-0.13816826 -0.040837688 -7.304084e-05)
(-0.13164197 -0.0494906 -0.00010726222)
(-0.12349841 -0.056990436 -0.0001390887)
(-0.11387531 -0.063011812 -0.00016665416)
(-0.10297655 -0.067259347 -0.00018819457)
(-0.091073523 -0.069491285 -0.00020220602)
(-0.078501392 -0.069544189 -0.00020759439)
(-0.065648987 -0.067356342 -0.00020379748)
(-0.052942011 -0.062986921 -0.00019086006)
(-0.040820057 -0.056628018 -0.00016944076)
(-0.029709666 -0.048607164 -0.00014072975)
(-0.019996221 -0.039379406 -0.00010632214)
(-0.011992171 -0.029509504 -6.8268161e-05)
(-0.0059060246 -0.019644351 -2.8876067e-05)
(-0.0018995942 -0.010479296 1.243304e-05)
(-0.00021911061 -0.0027504896 5.4769188e-05)
(-0.0004727606 0.0079598543 -7.2377795e-05)
(-0.0030053061 0.022246669 -1.8692587e-05)
(-0.0081754804 0.034640717 2.0384273e-05)
(-0.015139636 0.045066396 4.8464832e-05)
(-0.023425071 0.053560173 7.1379938e-05)
(-0.032718087 0.060216912 9.0250538e-05)
(-0.042738978 0.065160524 0.0001061548)
(-0.053246924 0.068521236 0.00012014903)
(-0.064037882 0.070418886 0.00013293804)
(-0.074934242 0.070952924 0.00014489288)
(-0.085776313 0.070198363 0.00015610108)
(-0.096415828 0.068206617 0.00016640041)
(-0.10671081 0.065010091 0.00017541628)
(-0.11652174 0.060629355 0.00018260529)
(-0.12570895 0.055081786 0.00018730357)
(-0.1341311 0.048390756 0.00018878063)
(-0.14164462 0.040594631 0.00018629909)
(-0.14810402 0.031755112 0.00017918029)
(-0.15336319 0.021964581 0.00016687441)
(-0.15727766 0.011352263 0.00014903221)
(-0.15970803 8.9014953e-05 0.00012557449)
(-0.16052492 -0.011609441 9.6762722e-05)
(-0.15961529 -0.023481694 6.3226207e-05)
(-0.15689041 -0.035221787 2.60069e-05)
(-0.15229557 -0.046484022 -1.345411e-05)
(-0.14582083 -0.056891693 -5.3357778e-05)
(-0.13751249 -0.066050538 -9.1631674e-05)
(-0.12748404 -0.073567431 -0.00012605928)
(-0.11592513 -0.079074261 -0.00015444765)
(-0.10310686 -0.082256242 -0.00017481862)
(-0.08938123 -0.08288284 -0.00018560228)
(-0.075173049 -0.08083845 -0.00018580839)
(-0.060963177 -0.076149012 -0.00017515186)
(-0.047263089 -0.069000365 -0.00015410413)
(-0.034583091 -0.059744613 -0.0001238353)
(-0.023397398 -0.048892505 -8.6087536e-05)
(-0.014103447 -0.037091896 -4.3238734e-05)
(-0.0069814336 -0.025092621 1.9466532e-06)
(-0.0022590062 -0.013702948 5.0094586e-05)
(-0.00026414603 -0.0037760394 9.7649473e-05)
(-0.00050355085 0.0095674429 -4.053233e-05)
(-0.0031932751 0.026445193 1.9085776e-05)
(-0.0086754035 0.040892106 6.0441501e-05)
(-0.016048493 0.052912594 9.0206967e-05)
(-0.024807363 0.062615426 0.00011471086)
(-0.034618417 0.070159231 0.00013524949)
(-0.045186793 0.075721414 0.00015304079)
(-0.056261503 0.079475014 0.00016924796)
(-0.067632973 0.081572555 0.00018463439)
(-0.079121715 0.0821371 0.00019958802)
(-0.090568874 0.081259523 0.00021417874)
(-0.10182886 0.079000778 0.00022819647)
(-0.11276336 0.075397896 0.00024119087)
(-0.1232367 0.070472453 0.0002525161)
(-0.13311239 0.064240363 0.00026137983)
(-0.14225078 0.056722076 0.00026689784)
(-0.1505076 0.047952515 0.0002681554)
(-0.15773347 0.03799034 0.00026427609)
(-0.16377429 0.026926308 0.00025449766)
(-0.16847278 0.014890608 0.00023825244)
(-0.17167133 0.002059034 0.00021524994)
(-0.17321661 -0.011342255 0.00018556651)
(-0.17296594 -0.025033766 0.00014969097)
(-0.17079572 -0.038682248 0.00010859464)
(-0.16661244 -0.05190362 6.3739744e-05)
(-0.16036551 -0.064270379 1.7058427e-05)
(-0.15206157 -0.075324606 -2.9117553e-05)
(-0.1417794 -0.084597522 -7.21829e-05)
(-0.12968348 -0.091636044 -0.00010944002)
(-0.11603435 -0.096035948 -0.00013832462)
(-0.10119274 -0.097479896 -0.00015665285)
(-0.085615083 -0.095777104 -0.00016285883)
(-0.06983805 -0.090899835 -0.00015618917)
(-0.054451423 -0.083010929 -0.00013681638)
(-0.040061184 -0.072476746 -0.00010582098)
(-0.027246486 -0.059861713 -6.5077043e-05)
(-0.016507706 -0.045903615 -1.7335912e-05)
(-0.0082137719 -0.031469866 3.4091321e-05)
(-0.0026743205 -0.017501843 8.985715e-05)
(-0.00031729588 -0.0049938556 0.00014357287)
(-0.00052868051 0.011264648 2.8521729e-06)
(-0.0033477379 0.030871107 6.8645773e-05)
(-0.009088051 0.047474056 0.0001119438)
(-0.016801584 0.061164151 0.0001432427)
(-0.025956886 0.072128403 0.00016930892)
(-0.036204179 0.080594916 0.00019160589)
(-0.047236293 0.086799867 0.00021148264)
(-0.058794244 0.090963772 0.00023019952)
(-0.070664657 0.093275772 0.00024857127)
(-0.082667723 0.093885675 0.00026699767)
(-0.094646998 0.092902531 0.00028552742)
(-0.10646128 0.090398326 0.0003038997)
(-0.11797782 0.086415383 0.00032158543)
(-0.12906689 0.080976109 0.00033783169)
(-0.13959748 0.074093919 0.00035170972)
(-0.14943401 0.065784418 0.00036216843)
(-0.15843404 0.056076248 0.00036809572)
(-0.1664467 0.045021277 0.00036838911)
(-0.17331223 0.032704008 0.00036203619)
(-0.17886253 0.019250185 0.00034820368)
(-0.18292318 0.0048345352 0.00032633352)
(-0.18531738 -0.010312571 0.00029624495)
(-0.185872 -0.025899808 0.00025821988)
(-0.18442619 -0.041572076 0.00021308744)
(-0.18084315 -0.056910856 0.00016226993)
(-0.17502466 -0.071439353 0.00010779081)
(-0.16692828 -0.084633989 5.2227444e-05)
(-0.15658627 -0.09594379 -1.4026058e-06)
(-0.14412461 -0.10481883 -4.9828492e-05)
(-0.12977948 -0.11074796 -8.9782312e-05)
(-0.113908 -0.11330453 -0.00011830535)
(-0.096989367 -0.11219671 -0.00013306864)
(-0.079612827 -0.10731675 -0.00013266211)
(-0.062450285 -0.098781329 -0.00011679697)
(-0.046214681 -0.086954995 -8.635057e-05)
(-0.031607746 -0.07244991 -4.328082e-05)
(-0.019254153 -0.056099263 9.2566532e-06)
(-0.0096331391 -0.038903927 6.7309184e-05)
(-0.00315783 -0.021961654 0.00013153669)
(-0.00038078524 -0.0064355932 0.00019256137)
(-0.00054759902 0.013033169 5.8443253e-05)
(-0.0034658569 0.035479376 0.00013066256)
(-0.0094063955 0.054322974 0.00017554773)
(-0.017386394 0.069745293 0.00020822163)
(-0.026854433 0.082015898 0.00023582051)
(-0.037448151 0.091436759 0.00025996506)
(-0.048850774 0.098307153 0.00028212684)
(-0.060797324 0.10289913 0.00030365527)
(-0.07307218 0.10544208 0.00032541202)
(-0.085496594 0.10611562 0.00034780732)
(-0.09791795 0.10504936 0.00037086908)
(-0.11020101 0.10232799 0.000394287)
(-0.12222042 0.098000036 0.00041745415)
(-0.13385451 0.092088792 0.00043950979)
(-0.14498015 0.084604374 0.00045938442)
(-0.15546858 0.075555811 0.00047585012)
(-0.16518214 0.064962757 0.00048757962)
(-0.17397175 0.052866571 0.00049321666)
(-0.1816753 0.03934076 0.0004914594)
(-0.18811716 0.02450089 0.00048115706)
(-0.19310912 0.008514006 0.00046141885)
(-0.19645328 -0.0083925693 0.00043173288)
(-0.1979473 -0.025923369 0.000392084)
(-0.19739266 -0.04370887 0.00034306766)
(-0.1946065 -0.061302526 0.00028597842)
(-0.18943731 -0.078182574 0.00022285882)
(-0.18178454 -0.093760685 0.00015648868)
(-0.17162149 -0.10739972 9.0296531e-05)
(-0.15902009 -0.11844267 2.8178766e-05)
(-0.14417482 -0.12625405 -2.5779115e-05)
(-0.12742191 -0.13027328 -6.7667401e-05)
(-0.1092488 -0.13007711 -9.4168758e-05)
(-0.090288549 -0.12544458 -0.00010297025)
(-0.071294716 -0.11641496 -9.3092344e-05)
(-0.05309644 -0.10332684 -6.5032634e-05)
(-0.036536437 -0.086827873 -2.0737132e-05)
(-0.022388441 -0.067848919 3.6227821e-05)
(-0.011268763 -0.047540431 0.00010117208)
(-0.0037218438 -0.027182722 0.00017474291)
(-0.00045691175 -0.0081393823 0.00024443745)
(-0.00055984445 0.014853264 0.00012672119)
(-0.003545337 0.040221778 0.00020562063)
(-0.0096248072 0.061370782 0.0002517242)
(-0.017792802 0.078574533 0.00028560782)
(-0.027484126 0.092187648 0.00031470234)
(-0.038327158 0.10258896 0.00034077423)
(-0.049997929 0.11014418 0.0003654094)
(-0.062227203 0.11518037 0.00039004006)
(-0.07479841 0.11797049 0.00041557359)
(-0.087535023 0.11872695 0.00044243323)
(-0.10028947 0.11760247 0.00047063102)
(-0.11293389 0.11469633 0.00049981315)
(-0.12535206 0.11006442 0.00052930043)
(-0.13743243 0.10373139 0.00055812808)
(-0.14906227 0.095703602 0.00058508606)
(-0.16012262 0.085982169 0.00060876424)
(-0.17048407 0.074575417 0.00062760661)
(-0.18000324 0.061510788 0.00063997882)
(-0.18852004 0.046846253 0.00064425221)
(-0.19585597 0.030681468 0.00063890592)
(-0.20181373 0.013168863 0.00062264752)
(-0.20617875 -0.0054753503 0.00059455021)
(-0.2087231 -0.024960527 0.00055420095)
(-0.20921263 -0.044912162 0.00050184991)
(-0.20741816 -0.064864857 0.00043854798)
(-0.20313139 -0.084259656 0.00036624888)
(-0.19618605 -0.1024483 0.00028785165)
(-0.18648428 -0.11870744 0.00020715595)
(-0.17402711 -0.13226603 0.000128705)
(-0.15894668 -0.14234853 5.7498918e-05)
(-0.14153585 -0.14823509 -1.4218136e-06)
(-0.12226912 -0.14933666 -4.3495629e-05)
(-0.10180729 -0.1452787 -6.5201081e-05)
(-0.080978726 -0.13598182 -6.4557564e-05)
(-0.060733908 -0.12172372 -4.1420778e-05)
(-0.042074317 -0.1031659 2.4421683e-06)
(-0.025950479 -0.081333244 6.3088831e-05)
(-0.013148242 -0.05754054 0.00013500208)
(-0.0043785976 -0.033279406 0.00021879443)
(-0.00054808342 -0.010149843 0.00029873735)
(-0.00056512248 0.016704138 0.00020795679)
(-0.0035848212 0.045047817 0.00029379581)
(-0.0097399812 0.068546106 0.0003407418)
(-0.018014595 0.087565907 0.00037566112)
(-0.027835514 0.10254743 0.00040619812)
(-0.038824727 0.1139479 0.00043425232)
(-0.050653065 0.12220188 0.00046151684)
(-0.063048418 0.12769431 0.00048950305)
(-0.075794276 0.1307448 0.00051916644)
(-0.088717243 0.13160156 0.00055095021)
(-0.1016758 0.13044303 0.00058486032)
(-0.11455071 0.12738527 0.00062051052)
(-0.12723646 0.12249313 0.00065716023)
(-0.13963366 0.11579342 0.00069374963)
(-0.15164252 0.10728888 0.00072893373)
(-0.16315701 0.096971901 0.0007611202)
(-0.17405977 0.084837731 0.00078851659)
(-0.18421763 0.070897084 0.00080919228)
(-0.19347778 0.055188373 0.00082115987)
(-0.20166471 0.03778998 0.00082247984)
(-0.20857842 0.018832871 0.00081139042)
(-0.21399414 -0.0014862921 0.00078646216)
(-0.21766446 -0.022891666 0.0007467755)
(-0.2193246 -0.045015036 0.00069210784)
(-0.21870195 -0.067384155 0.00062312509)
(-0.21553096 -0.089414511 0.00054154772)
(-0.20957472 -0.11040753 0.0004502637)
(-0.20065358 -0.12955896 0.00035335098)
(-0.1886808 -0.14598189 0.00025597052)
(-0.17370326 -0.15874899 0.00016409616)
(-0.15594313 -0.16695712 8.4063628e-05)
(-0.13583341 -0.1698146 2.1951181e-05)
(-0.11403768 -0.16674579 -1.7151308e-05)
(-0.091443308 -0.15750014 -2.9862821e-05)
(-0.069120481 -0.14224565 -1.5026903e-05)
(-0.04824434 -0.1216226 2.6036653e-05)
(-0.029971804 -0.096736576 8.9112031e-05)
(-0.015296622 -0.069077573 0.00016778744)
(-0.0051401274 -0.040378991 0.00026261884)
(-0.00065685504 -0.012518071 0.00035460956)
(-0.00056338796 0.018564537 0.00030219475)
(-0.0035843175 0.049906103 0.00039524402)
(-0.009751958 0.075776055 0.00044265735)
(-0.018051162 0.096630837 0.00047842595)
(-0.027905937 0.11299475 0.00051032273)
(-0.038934098 0.12540358 0.00054036702)
(-0.050802753 0.13436221 0.00057035419)
(-0.063237895 0.14031587 0.00060187492)
(-0.076023794 0.14363374 0.00063593996)
(-0.088990875 0.14460281 0.00067302446)
(-0.10200451 0.14343009 0.00071314317)
(-0.11495519 0.14025091 0.0007558937)
(-0.12774955 0.13514103 0.00080049034)
(-0.14030233 0.12813082 0.00084579292)
(-0.15252914 0.11922005 0.00089033284)
(-0.16434008 0.10839231 0.00093234198)
(-0.17563382 0.095628831 0.00096979075)