/*--------------------------------*- C++ -*----------------------------------*\
  =========                 |
  \\      /  F ield         | OpenFOAM: The Open Source CFD Toolbox
   \\    /   O peration     | Website:  https://openfoam.org
    \\  /    A nd           | Version:  7
     \\/     M anipulation  |
\*---------------------------------------------------------------------------*/
FoamFile
{
    version     2.0;
    format      ascii;
    class       volVectorField;
    location    "48";
    object      U_0;
}
// * * * * * * * * * * * * * * * * * * * * * * * * * * * * * * * * * * * * * //

dimensions      [0 1 -1 0 0 0 0];

internalField   nonuniform List<vector> 
16000
(
(6.6072356e-05 -6.7304684e-05 -3.9440069e-07)
(0.0001627967 -5.6338568e-05 5.7109585e-06)
(0.00014194476 4.7107567e-07 1.9211374e-05)
(-5.0606523e-05 6.1895113e-05 3.6633945e-05)
(-0.00040996383 0.00011563317 5.4742568e-05)
(-0.00090902015 0.00015774473 7.1570986e-05)
(-0.0015177075 0.00018850518 8.5783128e-05)
(-0.0022068833 0.00020960945 9.6563835e-05)
(-0.002950599 0.00022287719 0.00010345279)
(-0.0037264625 0.00022981141 0.00010620311)
(-0.004515048 0.00023147714 0.00010468756)
(-0.0052990108 0.00022850375 9.8843068e-05)
(-0.0060621911 0.00022114716 8.8644947e-05)
(-0.0067888626 0.00020938296 7.4103722e-05)
(-0.0074632152 0.00019301379 5.5278151e-05)
(-0.0080691168 0.00017178062 3.2298475e-05)
(-0.0085901698 0.00014547131 5.3946097e-06)
(-0.0090100504 0.00011402108 -2.5075564e-05)
(-0.0093131037 7.7600511e-05 -5.8602196e-05)
(-0.0094851506 3.6687142e-05 -9.4507611e-05)
(-0.0095144507 -7.8858019e-06 -0.0001319421)
(-0.0093927315 -5.492332e-05 -0.00016989437)
(-0.0091162243 -0.00010284381 -0.00020721794)
(-0.0086866017 -0.00014975126 -0.00024267503)
(-0.0081116918 -0.00019351422 -0.00027499602)
(-0.007405897 -0.00023188643 -0.0003029522)
(-0.0065902227 -0.0002626583 -0.00032543712)
(-0.0056918542 -0.00028382414 -0.00034155058)
(-0.004743257 -0.00029374863 -0.00035067799)
(-0.0037808132 -0.00029131662 -0.0003525579)
(-0.0028430627 -0.00027605149 -0.00034733048)
(-0.0019686579 -0.00024818754 -0.00033556288)
(-0.0011941514 -0.00020869029 -0.00031825047)
(-0.00055166661 -0.00015925623 -0.00029679745)
(-6.6497901e-05 -0.00010241163 -0.00027297274)
(0.00024492864 -4.1766093e-05 -0.00024883432)
(0.00037893466 1.7845699e-05 -0.00022676491)
(0.00034976416 6.7086611e-05 -0.00020920099)
(0.00020616712 8.98789e-05 -0.0001988135)
(5.7458523e-05 5.7421711e-05 -0.00018437034)
(5.8019879e-05 -0.00016698586 -6.6200897e-06)
(4.0915384e-05 -3.9924421e-05 -3.6383216e-07)
(-0.0002949482 0.00024858559 1.1269806e-05)
(-0.0010110063 0.00056213664 2.563586e-05)
(-0.0020992166 0.00084750472 4.0620856e-05)
(-0.0035140806 0.0010831259 5.4629015e-05)
(-0.0051946816 0.0012643048 6.6533079e-05)
(-0.0070766272 0.0013940705 7.5580743e-05)
(-0.0090981494 0.0014779631 8.1290173e-05)
(-0.011202306 0.0015215291 8.3361717e-05)
(-0.013337035 0.0015292124 8.1612086e-05)
(-0.015454178 0.0015039764 7.5931328e-05)
(-0.017508151 0.0014473575 6.6261073e-05)
(-0.019454718 0.0013597781 5.259052e-05)
(-0.021250158 0.0012410022 3.4965749e-05)
(-0.022850978 0.0010906589 1.3507921e-05)
(-0.02421423 0.000908775 -1.1563954e-05)
(-0.025298436 0.00069627482 -3.9909862e-05)
(-0.026065059 0.00045541273 -7.1049148e-05)
(-0.0264804 0.00019010536 -0.00010434767)
(-0.026517817 -9.3865417e-05 -0.00013901471)
(-0.026159991 -0.00038877451 -0.00017411878)
(-0.025401172 -0.00068508994 -0.00020860393)
(-0.02424917 -0.00097176059 -0.00024133753)
(-0.022726748 -0.0012366977 -0.00027116377)
(-0.020872347 -0.0014674315 -0.00029697117)
(-0.018739913 -0.0016519051 -0.00031776792)
(-0.016397721 -0.0017793463 -0.00033275866)
(-0.01392613 -0.0018411429 -0.00034141629)
(-0.011414315 -0.0018316392 -0.00034354175)
(-0.0089560895 -0.001748786 -0.00033930565)
(-0.0066449983 -0.0015945928 -0.00032926698)
(-0.0045689016 -0.0013753839 -0.00031436631)
(-0.0028042372 -0.0011019546 -0.00029589488)
(-0.001410027 -0.00078991984 -0.0002754431)
(-0.0004216229 -0.00046060275 -0.00025482443)
(0.00015579055 -0.00014257467 -0.00023595347)
(0.00035673419 0.00012232019 -0.0002208488)
(0.00027524063 0.00027115723 -0.00021161233)
(9.0104208e-05 0.00020511558 -0.00019542859)
(1.9259109e-06 -0.00014893634 -2.0405614e-05)
(-0.00025603062 0.00029705028 -1.1785153e-05)
(-0.001050432 0.0010236477 1.1318777e-07)
(-0.0023878099 0.0017975562 1.3093318e-05)
(-0.0042394306 0.0025099157 2.6129565e-05)
(-0.0065455531 0.0031100661 3.8081051e-05)
(-0.0092251176 0.0035809321 4.8120826e-05)
(-0.012189995 0.0039234381 5.5688276e-05)
(-0.015352986 0.0041461893 6.0401737e-05)
(-0.018631054 0.0042595944 6.2004488e-05)
(-0.021946078 0.0042728179 6.0323589e-05)
(-0.025224256 0.0041924775 5.5241264e-05)
(-0.028394923 0.0040224708 4.6681215e-05)
(-0.031389391 0.003764524 3.4608316e-05)
(-0.034140221 0.0034191697 1.9038674e-05)
(-0.036581145 0.0029869389 5.6774674e-08)
(-0.038647755 0.0024696053 -2.2163585e-05)
(-0.040278949 0.0018713585 -4.7337963e-05)
(-0.041419059 0.0011998071 -7.5052794e-05)
(-0.042020507 0.00046672766 -0.00010475312)
(-0.042046772 -0.0003115027 -0.00013574105)
(-0.041475477 -0.0011138134 -0.00016718148)
(-0.040301324 -0.0019148761 -0.00019812737)
(-0.038538564 -0.0026858612 -0.0002275556)
(-0.036222759 -0.0033956791 -0.00025441787)
(-0.033411584 -0.0040126122 -0.0002777034)
(-0.030184428 -0.0045062549 -0.00029650941)
(-0.026640647 -0.0048496396 -0.00031011334)
(-0.022896388 -0.005021385 -0.0003180398)
(-0.019080028 -0.0050076828 -0.00032011515)
(-0.015326331 -0.0048039553 -0.00031650367)
(-0.011769565 -0.0044160788 -0.00030772068)
(-0.0085358304 -0.0038611708 -0.00029462012)
(-0.0057348874 -0.0031680997 -0.00027835654)
(-0.0034517205 -0.0023781006 -0.00026032498)
(-0.0017379904 -0.0015461805 -0.00024208062)
(-0.00060367544 -0.00074419989 -0.0002252319)
(-8.0178551e-06 -6.6381662e-05 -0.00021137066)
(0.00015540686 0.00036038898 -0.000202187)
(7.3543824e-05 0.00035438586 -0.00018527431)
(-6.4680842e-05 5.0437513e-05 -3.8657426e-05)
(-0.00060837186 0.0010457821 -2.6116989e-05)
(-0.0019305269 0.0023817578 -1.2135681e-05)
(-0.0039464269 0.0037565363 1.1571671e-06)
(-0.0065890067 0.0050153277 1.3745452e-05)
(-0.0097791958 0.006080074 2.486976e-05)
(-0.013417127 0.0069205301 3.3992866e-05)
(-0.017395533 0.0075341195 4.0779517e-05)
(-0.021607745 0.0079314008 4.4993791e-05)
(-0.025950707 0.0081270434 4.6463829e-05)
(-0.030325865 0.0081347706 4.5058812e-05)
(-0.034638817 0.0079650032 4.0672399e-05)
(-0.038798385 0.0076243756 3.3217529e-05)
(-0.042715707 0.0071165076 2.2631939e-05)
(-0.046303775 0.006443552 8.8919754e-06)
(-0.049477694 0.0056081419 -7.9678471e-06)
(-0.052155751 0.0046154467 -2.7832222e-05)
(-0.054261315 0.0034751102 -5.0482134e-05)
(-0.055725444 0.0022028886 -7.5574575e-05)
(-0.056490046 0.00082185086 -0.00010262825)
(-0.056511344 -0.00063697153 -0.00013101849)
(-0.055763446 -0.0021345996 -0.00015998021)
(-0.05424167 -0.0036248173 -0.00018863141)
(-0.051965321 -0.0050556206 -0.00021600516)
(-0.048979669 -0.0063713914 -0.00024109857)
(-0.045356813 -0.0075157186 -0.00026293412)
(-0.041195191 -0.0084347327 -0.00028062939)
(-0.036617532 -0.009080758 -0.00029346967)
(-0.031767142 -0.0094160319 -0.00030097584)
(-0.026802524 -0.0094161986 -0.0003029593)
(-0.021890427 -0.0090732988 -0.00029955672)
(-0.017197573 -0.008398042 -0.00029123978)
(-0.012881377 -0.0074213085 -0.00027879794)
(-0.0090800428 -0.0061950365 -0.00026329469)
(-0.0059024829 -0.0047929325 -0.00024599983)
(-0.0034185126 -0.0033118043 -0.00022830432)
(-0.001649543 -0.0018745224 -0.00021163417)
(-0.0005597936 -0.00063471356 -0.00019738025)
(-5.0105063e-05 0.00021499003 -0.00018677733)
(3.8095936e-05 0.00041383274 -0.00016797151)
(-0.00013086393 0.0004455703 -5.8173625e-05)
(-0.00097094575 0.0022427029 -4.1106936e-05)
(-0.0028462057 0.0043591995 -2.422454e-05)
(-0.0055648055 0.0064572268 -9.7922033e-06)
(-0.0090094339 0.0083534866 3.1263867e-06)
(-0.013075454 0.0099514612 1.4106457e-05)
(-0.017642273 0.011211756 2.2885019e-05)
(-0.022584675 0.01212959 2.9357262e-05)
(-0.027779628 0.01271753 3.344602e-05)
(-0.033108109 0.012994151 3.5078469e-05)
(-0.038455491 0.012977369 3.4177307e-05)
(-0.043711125 0.012681217 3.0654106e-05)
(-0.048767517 0.012115131 2.4411978e-05)
(-0.05351963 0.011284988 1.5357409e-05)
(-0.057864698 0.01019526 3.419075e-06)
(-0.061702792 0.0088517404 -1.1428495e-05)
(-0.064938227 0.0072644381 -2.9138645e-05)
(-0.067481792 0.00545029 -4.9566154e-05)
(-0.069253702 0.0034354347 -7.2443303e-05)
(-0.070187075 0.0012568438 -9.7361465e-05)
(-0.070231727 -0.0010368511 -0.00012376137)
(-0.069358016 -0.003385477 -0.00015093462)
(-0.067560461 -0.0057183993 -0.00017804037)
(-0.064860798 -0.0079566896 -0.000204137)
(-0.061310202 -0.010016304 -0.0002282299)
(-0.05699037 -0.011812188 -0.00024933311)
(-0.052013157 -0.013263139 -0.00026654079)
(-0.046518559 -0.014297149 -0.00027910275)
(-0.040670844 -0.014856899 -0.00028649626)
(-0.034652763 -0.014905004 -0.00028848506)
(-0.028657903 -0.014428607 -0.00028515677)
(-0.022881417 -0.013442959 -0.00027693223)
(-0.017509487 -0.011993822 -0.0002645447)
(-0.01270805 -0.010158727 -0.00024899033)
(-0.0086114542 -0.0080475149 -0.00023145291)
(-0.005311754 -0.0058029636 -0.00021321438)
(-0.0028485319 -0.0036024661 -0.00019559002)
(-0.0012000409 -0.0016605376 -0.00017984401)
(-0.00028880452 -0.00023378341 -0.00016669845)
(-2.4674895e-06 0.00035046229 -0.00014546706)
(-0.00019286414 0.001031309 -7.6653859e-05)
(-0.0013239841 0.0038925404 -5.474848e-05)
(-0.0037518533 0.0069680086 -3.4543697e-05)
(-0.0071732952 0.009910829 -1.8450193e-05)
(-0.011414803 0.012527407 -4.6544478e-06)
(-0.016341479 0.014714513 6.7083637e-06)
(-0.021809616 0.01643051 1.5625281e-05)
(-0.027675876 0.017672026 2.2210894e-05)
(-0.033802395 0.018455254 2.6543654e-05)
(-0.040056847 0.018803218 2.8650289e-05)
(-0.046311837 0.018738082 2.8508062e-05)
(-0.05244406 0.01827741 2.6046042e-05)
(-0.058333355 0.017433437 2.115467e-05)
(-0.063862062 0.016214496 1.3703763e-05)
(-0.068914993 0.014627824 3.5667973e-06)
(-0.073380203 0.012683109 -9.350388e-06)
(-0.077150614 0.010396209 -2.5078391e-05)
(-0.080126453 0.0077926357 -4.3552858e-05)
(-0.082218393 0.0049104436 -6.4585487e-05)
(-0.083351221 0.0018022811 -8.7840379e-05)
(-0.083467826 -0.0014636075 -0.00011281898)
(-0.082533266 -0.0048035777 -0.00013885741)
(-0.080538655 -0.0081200479 -0.00016513807)
(-0.077504585 -0.011304339 -0.00019071963)
(-0.073483761 -0.014240836 -0.00021458407)
(-0.068562535 -0.016812392 -0.0002357001)
(-0.06286101 -0.018906778 -0.00025309837)
(-0.056531406 -0.020423856 -0.00026595229)
(-0.049754414 -0.021283053 -0.00027365612)
(-0.042733393 -0.021430621 -0.00027589092)
(-0.03568635 -0.020846131 -0.00027266838)
(-0.028835917 -0.019547672 -0.00026434431)
(-0.022397717 -0.017595381 -0.00025159773)
(-0.016567766 -0.015093162 -0.00023537703)
(-0.011509859 -0.012188866 -0.00021681647)
(-0.0073438886 -0.0090736838 -0.00019714164)
(-0.0041345371 -0.0059816756 -0.00017762828)
(-0.0018816058 -0.0031890321 -0.00015951199)
(-0.00053619375 -0.0010143195 -0.00014311863)
(-4.1243981e-05 0.00015894742 -0.00011902842)
(-0.00025011619 0.0017985721 -9.2140635e-05)
(-0.0016597712 0.0059841456 -6.5248989e-05)
(-0.0046244535 0.010198624 -4.156256e-05)
(-0.0087321662 0.014107029 -2.3507681e-05)
(-0.013751601 0.017522345 -8.4692634e-06)
(-0.019515076 0.020347126 3.6697438e-06)
(-0.025854142 0.022545932 1.312112e-05)
(-0.032607007 0.02412201 2.020092e-05)
(-0.03962188 0.025098115 2.5131372e-05)
(-0.04675501 0.025503183 2.8030748e-05)
(-0.053868799 0.025364233 2.8924676e-05)
(-0.060830247 0.024702541 2.7753921e-05)
(-0.06750964 0.023533176 2.4389962e-05)
(-0.073779767 0.02186698 1.8658767e-05)
(-0.079515878 0.019714124 1.0370513e-05)
(-0.084596503 0.017088492 -6.4632467e-07)
(-0.088905129 0.014012235 -1.4508226e-05)
(-0.092332704 0.01052001 -3.1239363e-05)
(-0.094780823 0.006662481 -5.0736472e-05)
(-0.096165468 0.0025088053 -7.27389e-05)
(-0.096421123 -0.0018521454 -9.6807348e-05)
(-0.095505034 -0.0063119921 -0.00012231581)
(-0.093401439 -0.010744587 -0.00014845774)
(-0.090125484 -0.015009422 -0.00017427329)
(-0.085726504 -0.018956672 -0.00019869517)
(-0.08029034 -0.02243383 -0.00022061405)
(-0.073940284 -0.025293751 -0.00023895889)
(-0.066836248 -0.027403767 -0.00025278533)
(-0.059171762 -0.028655371 -0.00026136298)
(-0.051168507 -0.028973823 -0.00026425113)
(-0.043068238 -0.028326937 -0.00026135239)
(-0.035122188 -0.026732293 -0.00025293465)
(-0.027578341 -0.024262245 -0.00023961541)
(-0.020667357 -0.021046296 -0.00022230762)
(-0.014588355 -0.017270894 -0.0002021287)
(-0.0094958128 -0.01317723 -0.00018029891)
(-0.0054864827 -0.009057937 -0.00015812277)
(-0.0025879539 -0.0052522174 -0.0001368912)
(-0.00078447249 -0.0021405311 -0.0001166081)
(-7.6874581e-05 -0.00016053714 -8.9404855e-05)
(-0.00030295606 0.0027365303 -0.00010296429)
(-0.001975498 0.0084981081 -7.0991933e-05)
(-0.0054521394 0.014028586 -4.3844026e-05)
(-0.01021797 0.019021402 -2.3699262e-05)
(-0.015985179 0.023311109 -7.2038934e-06)
(-0.022552797 0.026818211 5.9851599e-06)
(-0.029727184 0.029522446 1.6282461e-05)
(-0.037328208 0.031439792 2.4185859e-05)
(-0.045190986 0.032603417 3.0045434e-05)
(-0.053161894 0.033050386 3.4058116e-05)
(-0.061095251 0.032813704 3.6287053e-05)
(-0.068850863 0.031918835 3.6675101e-05)
(-0.076292144 0.030383793 3.5065747e-05)
(-0.083284992 0.028221867 3.1232131e-05)
(-0.089697552 0.025446024 2.4911934e-05)
(-0.095400892 0.022074174 1.5846727e-05)
(-0.10027057 0.018134573 3.8243719e-06)
(-0.10418904 0.013670806 -1.1277483e-05)
(-0.10704872 0.0087459317 -2.9449452e-05)
(-0.10875573 0.0034454474 -5.0513179e-05)
(-0.10923405 -0.0021211649 -7.4092718e-05)
(-0.10842999 -0.0078205203 -9.9600176e-05)
(-0.10631684 -0.013497148 -0.00012623482)
(-0.10289945 -0.018977283 -0.00015300682)
(-0.098218431 -0.024074604 -0.0001787805)
(-0.092353558 -0.028597967 -0.00020234076)
(-0.085426033 -0.032360991 -0.00022247866)
(-0.0775989 -0.035193199 -0.00023808903)
(-0.069075174 -0.036952159 -0.00024827017)
(-0.060093129 -0.037535846 -0.00025241351)
(-0.050918477 -0.036894259 -0.00025027118)
(-0.041833353 -0.035039227 -0.00024199078)
(-0.033122478 -0.032051393 -0.00022811019)
(-0.025057303 -0.028083648 -0.00020950859)
(-0.017879659 -0.023360672 -0.00018731157)
(-0.011786483 -0.018174994 -0.00016278141)
(-0.0069140638 -0.0128804 -0.00013731741)
(-0.0033238342 -0.0078822659 -0.00011234575)
(-0.0010368634 -0.0036261483 -8.7638136e-05)
(-0.00011093618 -0.00060701783 -5.7200338e-05)
(-0.00035169317 0.0038338223 -0.00010766123)
(-0.0022696852 0.011410365 -7.0503186e-05)
(-0.0062274772 0.018427307 -4.0025177e-05)
(-0.011614746 0.024619966 -1.7774594e-05)
(-0.018090314 0.029857571 2.8949101e-07)
(-0.025421019 0.034089889 1.4718933e-05)
(-0.033388714 0.037320724 2.6113223e-05)
(-0.041795671 0.039585257 3.5133167e-05)
(-0.050464968 0.040931449 4.2239787e-05)
(-0.059234591 0.041407244 4.7693888e-05)
(-0.067952675 0.041053189 5.1583158e-05)
(-0.076474041 0.03989967 5.3840996e-05)
(-0.084657598 0.037967844 5.4272248e-05)
(-0.092364714 0.035273274 5.2586918e-05)
(-0.09945859 0.031831292 4.8439719e-05)
(-0.10580462 0.027663185 4.1474323e-05)
(-0.11127168 0.022802466 3.1371178e-05)
(-0.11573423 0.017300632 1.789718e-05)
(-0.11907517 0.01123199 9.5473377e-07)
(-0.12118942 0.0046971979 -1.9372914e-05)
(-0.12198809 -0.0021747091 -4.2784341e-05)
(-0.12140313 -0.009226069 -6.8738164e-05)
(-0.11939248 -0.016272195 -9.6442293e-05)
(-0.11594549 -0.023105287 -0.00012487317)
(-0.11108823 -0.029500577 -0.00015281423)
(-0.10488841 -0.035224937 -0.00017892182)
(-0.097459312 -0.040047914 -0.00020181486)
(-0.088962026 -0.043754928 -0.00022018207)
(-0.079605253 -0.046162122 -0.00023289679)
(-0.069641894 -0.047131958 -0.00023912573)
(-0.059361874 -0.046588353 -0.00023841668)
(-0.049080956 -0.044529872 -0.00023075219)
(-0.039125747 -0.041039504 -0.00021656036)
(-0.029815737 -0.036289767 -0.00019667663)
(-0.021444144 -0.030542381 -0.00017224947)
(-0.014259515 -0.024142632 -0.00014462402)
(-0.0084461234 -0.017509195 -0.00011535818)
(-0.0041057526 -0.011119105 -8.6092258e-05)
(-0.0013000776 -0.005489695 -5.6432727e-05)
(-0.00014466051 -0.00118174 -2.2482551e-05)
(-0.00039639227 0.0050786757 -0.00010491227)
(-0.0025408043 0.014693492 -6.2430157e-05)
(-0.0069442123 0.023357987 -2.8823902e-05)
(-0.012909245 0.03086082 -4.5222174e-06)
(-0.020045656 0.037117361 1.5157657e-05)
(-0.02809031 0.042116918 3.0964997e-05)
(-0.036802155 0.045895798 4.3669934e-05)
(-0.045967206 0.048514829 5.4079284e-05)
(-0.055397847 0.050041372 6.2748916e-05)
(-0.064925217 0.050537314 6.9988847e-05)
(-0.074393077 0.050052603 7.5898091e-05)
(-0.083653298 0.048623493 8.0388658e-05)
(-0.092562459 0.046274541 8.3215659e-05)
(-0.10097956 0.043023323 8.4015032e-05)
(-0.10876487 0.03888683 8.2347042e-05)
(-0.11577978 0.033888628 7.7744809e-05)
(-0.12188764 0.028066016 6.9767071e-05)
(-0.1269554 0.021476602 5.805376e-05)
(-0.13085612 0.014203882 4.2382201e-05)
(-0.13347227 0.0063614933 2.2721227e-05)
(-0.13469977 -0.0019040811 -7.2146731e-07)
(-0.13445283 -0.010412652 -2.7470354e-05)
(-0.1326696 -0.018951379 -5.6753453e-05)
(-0.12931855 -0.027278407 -8.7519333e-05)
(-0.12440509 -0.035129035 -0.00011846582)
(-0.11797827 -0.042224885 -0.00014810323)
(-0.11013686 -0.04828616 -0.00017484637)
(-0.10103395 -0.053046899 -0.00019713069)
(-0.090879077 -0.056272755 -0.00021354375)
(-0.079936764 -0.057780341 -0.00022295773)
(-0.068520638 -0.057456693 -0.0002246453)
(-0.05698244 -0.055276917 -0.00021836128)
(-0.045695959 -0.0513179 -0.00020437752)
(-0.035036654 -0.045766103 -0.00018346172)
(-0.025358971 -0.03891806 -0.00015678825)
(-0.016973704 -0.031173319 -0.00012581712)
(-0.010123132 -0.023020488 -9.2325269e-05)
(-0.0049573041 -0.015016287 -5.8246487e-05)
(-0.0015839097 -0.0077601716 -2.3074435e-05)
(-0.00018000374 -0.001891999 1.4788542e-05)
(-0.00043687284 0.0064585702 -9.3514926e-05)
(-0.0027868511 0.018316907 -4.5534029e-05)
(-0.0075958985 0.028778333 -9.0495628e-06)
(-0.014088639 0.037694921 1.7204464e-05)
(-0.021830805 0.045038226 3.85084e-05)
(-0.030532266 0.05084629 5.580083e-05)
(-0.039931317 0.055195709 7.0010909e-05)
(-0.04979951 0.058179135 8.2076618e-05)
(-0.059940136 0.059887939 9.2634329e-05)
(-0.07017912 0.060401165 0.00010203004)
(-0.080357623 0.059780209 0.00011036201)
(-0.09032651 0.058068292 0.00011750977)
(-0.099942082 0.055293699 0.0001231682)
(-0.10906306 0.051475681 0.00012688843)
(-0.11754872 0.046631963 0.00012812438)
(-0.12525817 0.040786898 0.00012628458)
(-0.13205051 0.033979552 0.00012078917)
(-0.1377859 0.026271129 0.00011113088)
(-0.14232754 0.0177514 9.693832e-05)
(-0.14554452 0.0085438168 7.8039309e-05)
(-0.14731572 -0.0011908537 5.4519744e-05)
(-0.14753462 -0.01125263 2.6757311e-05)
(-0.14611544 -0.021402752 -4.5175898e-06)
(-0.14300051 -0.031366235 -3.8244048e-05)
(-0.13816826 -0.040837693 -7.3040293e-05)
(-0.13164197 -0.049490601 -0.00010726073)
(-0.12349841 -0.056990431 -0.00013908763)
(-0.11387532 -0.063011805 -0.00016665484)
(-0.10297655 -0.067259347 -0.00018819648)
(-0.091073517 -0.069491291 -0.00020220705)
(-0.078501386 -0.069544195 -0.00020759332)
(-0.065648989 -0.06735634 -0.00020379578)
(-0.052942018 -0.062986913 -0.00019086002)
(-0.040820059 -0.056628015 -0.00016944218)
(-0.029709661 -0.048607168 -0.00014073047)
(-0.019996217 -0.03937941 -0.00010632145)
(-0.011992172 -0.029509503 -6.8267336e-05)
(-0.005906027 -0.019644349 -2.8875985e-05)
(-0.0018995947 -0.010479295 1.2432744e-05)
(-0.00021911029 -0.0027504902 5.4769053e-05)
(-0.00047276034 0.0079598541 -7.2378391e-05)
(-0.0030053056 0.022246669 -1.8693048e-05)
(-0.0081754801 0.034640717 2.0384005e-05)
(-0.015139636 0.045066396 4.8464748e-05)
(-0.023425071 0.053560173 7.1379994e-05)
(-0.032718087 0.060216911 9.0250746e-05)
(-0.042738978 0.065160523 0.00010615517)
(-0.053246923 0.068521235 0.0001201495)
(-0.064037882 0.070418886 0.00013293848)
(-0.074934242 0.070952924 0.00014489312)
(-0.085776314 0.070198364 0.00015610099)
(-0.096415828 0.068206617 0.0001664)
(-0.10671081 0.06501009 0.00017541576)
(-0.11652174 0.060629354 0.00018260491)
(-0.12570895 0.055081786 0.00018730344)
(-0.1341311 0.048390757 0.00018878063)
(-0.14164462 0.040594633 0.00018629902)
(-0.14810402 0.031755113 0.00017918011)
(-0.15336319 0.02196458 0.00016687442)
(-0.15727766 0.011352261 0.00014903281)
(-0.15970802 8.9013614e-05 0.00012557574)
(-0.16052492 -0.011609439 9.6764026e-05)
(-0.15961529 -0.02348169 6.3226707e-05)
(-0.15689042 -0.035221785 2.6006345e-05)
(-0.15229557 -0.046484025 -1.3454873e-05)
(-0.14582082 -0.056891698 -5.3357526e-05)
(-0.13751249 -0.066050541 -9.1630241e-05)
(-0.12748404 -0.073567427 -0.00012605805)
(-0.11592514 -0.079074254 -0.00015444808)
(-0.10310687 -0.082256241 -0.00017482029)
(-0.089381224 -0.082882846 -0.00018560313)
(-0.075173044 -0.080838455 -0.00018580735)
(-0.060963179 -0.076149011 -0.00017515037)
(-0.047263095 -0.069000359 -0.00015410399)
(-0.034583092 -0.059744611 -0.00012383613)
(-0.023397396 -0.048892507 -8.6087874e-05)
(-0.014103445 -0.037091898 -4.3238262e-05)
(-0.0069814343 -0.025092621 1.9471708e-06)
(-0.0022590075 -0.013702946 5.0094695e-05)
(-0.00026414643 -0.003776039 9.7649367e-05)
(-0.00050355085 0.0095674431 -4.0532948e-05)
(-0.0031932749 0.026445193 1.9085176e-05)
(-0.0086754031 0.040892106 6.0441102e-05)
(-0.016048492 0.052912594 9.0206849e-05)
(-0.024807363 0.062615426 0.00011471095)
(-0.034618417 0.070159231 0.00013524969)
(-0.045186793 0.075721414 0.00015304106)
(-0.056261502 0.079475013 0.00016924828)
(-0.067632972 0.081572555 0.00018463471)
(-0.079121715 0.0821371 0.00019958826)
(-0.090568874 0.081259523 0.0002141788)
(-0.10182886 0.079000778 0.00022819622)
(-0.11276336 0.075397896 0.00024119037)
(-0.1232367 0.070472453 0.00025251559)
(-0.13311239 0.064240362 0.00026137962)
(-0.14225078 0.056722075 0.00026689807)
(-0.1505076 0.047952515 0.00026815591)
(-0.15773347 0.037990342 0.00026427655)
(-0.16377429 0.026926309 0.00025449786)
(-0.16847278 0.014890607 0.0002382526)
(-0.17167133 0.0020590311 0.00021525053)
(-0.17321661 -0.011342258 0.00018556774)
(-0.17296594 -0.025033765 0.00014969231)
(-0.17079572 -0.038682244 0.00010859515)
(-0.16661244 -0.051903617 6.3739043e-05)
(-0.16036551 -0.064270381 1.7057361e-05)
(-0.15206157 -0.075324612 -2.9117604e-05)
(-0.14177939 -0.084597525 -7.2181621e-05)
(-0.12968349 -0.091636041 -0.00010943875)
(-0.11603436 -0.096035941 -0.00013832482)
(-0.10119274 -0.097479894 -0.00015665414)
(-0.085615078 -0.095777109 -0.00016285938)
(-0.069838047 -0.090899838 -0.00015618823)
(-0.054451424 -0.083010928 -0.00013681519)
(-0.040061187 -0.072476742 -0.00010582076)
(-0.027246487 -0.059861711 -6.5077443e-05)
(-0.016507704 -0.045903617 -1.7336042e-05)
(-0.0082137709 -0.031469868 3.4091616e-05)
(-0.0026743209 -0.017501843 8.9857453e-05)
(-0.00031729629 -0.0049938551 0.00014357294)
(-0.00052868063 0.011264649 2.851613e-06)
(-0.003347738 0.030871107 6.8645172e-05)
(-0.0090880508 0.047474056 0.0001119433)
(-0.016801583 0.061164151 0.00014324248)
(-0.025956886 0.072128403 0.00016930898)
(-0.036204179 0.080594916 0.00019160612)
(-0.047236293 0.086799868 0.00021148291)
(-0.058794244 0.090963772 0.00023019975)
(-0.070664656 0.093275772 0.00024857142)
(-0.082667722 0.093885674 0.00026699775)
(-0.094646998 0.09290253 0.00028552745)
(-0.10646128 0.090398326 0.00030389963)
(-0.11797782 0.086415384 0.00032158518)
(-0.12906689 0.08097611 0.0003378313)
(-0.13959748 0.074093919 0.0003517094)
(-0.14943401 0.065784416 0.00036216848)
(-0.15843404 0.056076247 0.0003680963)
(-0.1664467 0.045021278 0.00036839005)
(-0.17331224 0.03270401 0.00036203703)
(-0.17886253 0.019250187 0.00034820405)
(-0.18292318 0.0048345347 0.00032633354)
(-0.18531738 -0.010312574 0.00029624519)
(-0.18587199 -0.025899811 0.00025822075)
(-0.18442619 -0.041572076 0.00021308854)
(-0.18084316 -0.056910852 0.00016227031)
(-0.17502467 -0.07143935 0.00010778998)
(-0.16692827 -0.08463399 5.2226212e-05)
(-0.15658626 -0.095943795 -1.4028459e-06)
(-0.14412461 -0.10481883 -4.9827381e-05)
(-0.12977948 -0.11074796 -8.9781112e-05)
(-0.113908 -0.11330452 -0.00011830538)
(-0.096989368 -0.11219671 -0.00013306952)
(-0.079612824 -0.10731675 -0.0001326624)
(-0.062450282 -0.098781332 -0.00011679624)
(-0.046214682 -0.086954995 -8.6349723e-05)
(-0.031607748 -0.072449908 -4.3280593e-05)
(-0.019254153 -0.056099263 9.2564822e-06)
(-0.0096331383 -0.038903928 6.7309128e-05)
(-0.0031578295 -0.021961654 0.00013153683)
(-0.00038078521 -0.0064355931 0.00019256151)
(-0.000547599 0.013033169 5.8442734e-05)
(-0.0034658571 0.035479376 0.00013066206)
(-0.0094063956 0.054322974 0.00017554728)
(-0.017386394 0.069745293 0.00020822134)
(-0.026854433 0.082015897 0.00023582047)
(-0.037448151 0.091436759 0.00025996524)
(-0.048850774 0.098307153 0.00028212712)
(-0.060797324 0.10289913 0.0003036555)
(-0.07307218 0.10544208 0.0003254121)
(-0.085496594 0.10611562 0.00034780723)
(-0.09791795 0.10504936 0.00037086892)
(-0.11020101 0.10232799 0.00039428689)
(-0.12222042 0.098000036 0.00041745409)
(-0.13385451 0.092088793 0.0004395097)
(-0.14498015 0.084604375 0.00045938427)
(-0.15546858 0.075555811 0.00047585004)
(-0.16518214 0.064962756 0.00048757986)
(-0.17397175 0.05286657 0.0004932174)
(-0.1816753 0.03934076 0.00049146048)
(-0.18811716 0.024500892 0.00048115797)
(-0.19310913 0.0085140082 0.00046141909)
(-0.19645328 -0.0083925692 0.00043173251)
(-0.1979473 -0.025923372 0.00039208368)
(-0.19739265 -0.043708874 0.00034306799)
(-0.1946065 -0.061302526 0.00028597917)
(-0.18943731 -0.07818257 0.00022285906)
(-0.18178454 -0.093760681 0.00015648785)
(-0.17162149 -0.10739972 9.0295333e-05)
(-0.15902009 -0.11844268 2.8178486e-05)
(-0.14417482 -0.12625405 -2.5778182e-05)
(-0.12742191 -0.13027328 -6.7666375e-05)
(-0.10924881 -0.1300771 -9.416869e-05)
(-0.090288549 -0.12544458 -0.00010297081)
(-0.071294714 -0.11641496 -9.3092529e-05)
(-0.053096438 -0.10332684 -6.5032197e-05)
(-0.036536438 -0.086827873 -2.0736631e-05)
(-0.022388442 -0.067848918 3.6227958e-05)
(-0.011268763 -0.047540431 0.00010117198)
(-0.0037218434 -0.027182723 0.00017474285)
(-0.00045691152 -0.0081393826 0.0002444375)
(-0.00055984421 0.014853264 0.00012672067)
(-0.0035453368 0.040221779 0.00020562023)
(-0.0096248074 0.061370782 0.0002517239)
(-0.017792802 0.078574533 0.00028560759)
(-0.027484126 0.092187648 0.00031470225)
(-0.038327158 0.10258896 0.0003407743)
(-0.049997929 0.11014418 0.0003654096)
(-0.062227203 0.11518037 0.00039004029)
(-0.07479841 0.11797049 0.0004155737)
(-0.087535024 0.11872695 0.00044243311)
(-0.10028947 0.11760247 0.00047063071)
(-0.11293389 0.11469633 0.00049981283)
(-0.12535206 0.11006442 0.00052930028)
(-0.13743243 0.10373139 0.00055812814)
(-0.14906227 0.095703602 0.00058508623)
(-0.16012262 0.08598217 0.00060876436)
(-0.17048407 0.074575417 0.00062760667)
(-0.18000324 0.061510787 0.00063997903)
(-0.18852004 0.046846251 0.0006442528)
(-0.19585597 0.030681467 0.0006389068)
(-0.20181374 0.013168864 0.00062264818)
(-0.20617876 -0.0054753479 0.0005945501)
(-0.2087231 -0.024960526 0.00055420009)
(-0.20921262 -0.044912164 0.00050184905)
(-0.20741816 -0.06486486 0.00043854784)
(-0.20313139 -0.084259656 0.00036624934)
(-0.19618606 -0.1024483 0.00028785183)
(-0.18648429 -0.11870744 0.00020715527)
(-0.17402711 -0.13226603 0.00012870401)
(-0.15894667 -0.14234853 5.7498682e-05)
(-0.14153584 -0.14823509 -1.4211048e-06)
(-0.12226912 -0.14933666 -4.3494872e-05)
(-0.1018073 -0.14527869 -6.5201017e-05)
(-0.080978726 -0.13598182 -6.4557962e-05)
(-0.060733906 -0.12172372 -4.1420999e-05)
(-0.042074316 -0.1031659 2.4423007e-06)
(-0.02595048 -0.081333244 6.3089018e-05)
(-0.013148242 -0.057540539 0.00013500209)
(-0.0043785977 -0.033279405 0.00021879433)
(-0.00054808335 -0.010149843 0.00029873728)
(-0.00056512226 0.016704138 0.00020795629)
(-0.0035848207 0.045047817 0.00029379544)
(-0.0097399811 0.068546106 0.00034074161)
(-0.018014595 0.087565908 0.00037566104)
(-0.027835515 0.10254743 0.00040619809)
(-0.038824727 0.1139479 0.00043425233)
(-0.050653065 0.12220188 0.00046151691)
(-0.063048418 0.12769431 0.00048950316)
(-0.075794276 0.1307448 0.00051916653)
(-0.088717243 0.13160156 0.00055095016)
(-0.1016758 0.13044303 0.00058486005)
(-0.11455071 0.12738527 0.00062051008)
(-0.12723646 0.12249313 0.00065715985)
(-0.13963366 0.11579342 0.00069374953)
(-0.15164252 0.10728888 0.00072893395)
(-0.16315701 0.096971901 0.00076112058)
(-0.17405977 0.084837733 0.00078851685)
(-0.18421764 0.070897085 0.00080919228)
(-0.19347778 0.055188371 0.00082115978)
(-0.20166471 0.037789978 0.00082247999)
(-0.20857842 0.01883287 0.00081139083)
(-0.21399414 -0.0014862911 0.0007864624)
(-0.21766446 -0.022891663 0.00074677502)
(-0.21932461 -0.045015035 0.00069210665)
(-0.21870194 -0.067384157 0.00062312393)
(-0.21553095 -0.089414514 0.00054154736)
(-0.20957472 -0.11040753 0.00045026405)
(-0.20065358 -0.12955895 0.0003533512)
(-0.1886808 -0.14598189 0.00025597007)
(-0.17370326 -0.15874899 0.00016409543)
(-0.15594313 -0.16695712 8.4063424e-05)
(-0.13583341 -0.1698146 2.1951603e-05)
(-0.11403768 -0.16674579 -1.7150875e-05)
(-0.091443309 -0.15750014 -2.9862862e-05)
(-0.069120482 -0.14224565 -1.5027279e-05)
(-0.048244339 -0.12162261 2.6036341e-05)
(-0.029971804 -0.096736577 8.9111924e-05)
(-0.015296622 -0.069077573 0.0001677874)
(-0.0051401276 -0.040378991 0.00026261876)
(-0.0006568551 -0.012518071 0.00035460944)
(-0.00056338797 0.018564537 0.00030219438)
(-0.0035843173 0.049906103 0.00039524367)
(-0.0097519576 0.075776054 0.00044265719)
(-0.018051162 0.096630837 0.00047842598)
(-0.027905937 0.11299475 0.00051032284)
(-0.038934098 0.12540358 0.0005403671)
(-0.050802753 0.13436221 0.0005703542)
(-0.063237895 0.14031587 0.00060187487)
(-0.076023793 0.14363374 0.0006359399)
(-0.088990875 0.14460281 0.00067302439)
(-0.10200451 0.14343009 0.000713143)
(-0.11495519 0.14025091 0.00075589335)
(-0.12774955 0.13514103 0.00080048988)
(-0.14030233 0.12813082 0.00084579255)
(-0.15252914 0.11922005 0.00089033278)
(-0.16434008 0.10839231 0.00093234227)