/*--------------------------------*- C++ -*----------------------------------*\
  =========                 |
  \\      /  F ield         | OpenFOAM: The Open Source CFD Toolbox
   \\    /   O peration     | Website:  https://openfoam.org
    \\  /    A nd           | Version:  7
     \\/     M anipulation  |
\*---------------------------------------------------------------------------*/
FoamFile
{
    version     2.0;
    format      ascii;
    class       volScalarField;
    location    "1.97";
    object      T;
}
// * * * * * * * * * * * * * * * * * * * * * * * * * * * * * * * * * * * * * //

dimensions      [0 0 0 1 0 0 0];

internalField   nonuniform List<scalar> 
1000
(
3.40376e-80
4.81059e-80
8.20234e-80
1.49713e-79
2.78924e-79
5.22532e-79
9.8006e-79
1.83808e-78
3.44586e-78
6.45662e-78
1.20914e-77
2.26312e-77
4.23345e-77
7.91478e-77
1.4789e-76
2.7618e-76
5.15465e-76
9.61523e-76
1.79255e-75
3.33992e-75
6.21943e-75
1.15748e-74
2.15292e-74
4.00212e-74
7.43529e-74
1.38055e-73
2.56185e-73
4.75116e-73
8.8062e-73
1.63125e-72
3.01992e-72
5.58743e-72
1.03316e-71
1.90926e-71
3.52614e-71
6.50838e-71
1.20056e-70
2.21325e-70
4.07767e-70
7.50806e-70
1.38159e-69
2.54074e-69
4.66955e-69
8.57669e-69
1.57433e-68
2.88801e-68
5.29458e-68
9.70044e-68
1.77614e-67
3.25004e-67
5.94326e-67
1.08614e-66
1.98366e-66
3.62051e-66
6.60381e-66
1.20376e-65
2.19281e-65
3.99193e-65
7.26241e-65
1.32037e-64
2.39896e-64
4.35578e-64
7.90353e-64
1.43314e-63
2.59697e-63
4.70279e-63
8.51046e-63
1.53907e-62
2.78145e-62
5.02331e-62
9.06595e-62
1.63509e-61
2.94693e-61
5.30765e-61
9.5529e-61
1.71818e-60
3.08815e-60
5.54661e-60
9.95528e-60
1.78556e-59
3.20029e-59
5.7319e-59
1.02589e-58
1.83481e-58
3.27924e-58
5.85659e-58
1.04521e-57
1.86402e-57
3.32186e-57
5.91558e-57
1.05268e-56
1.87188e-56
3.32615e-56
5.90587e-56
1.04787e-55
1.85783e-55
3.2914e-55
5.82683e-55
1.03076e-54
1.82203e-54
3.2183e-54
5.68024e-54
1.00179e-53
1.76545e-53
3.10886e-53
5.47032e-53
9.61808e-53
1.68977e-52
2.9664e-52
5.20345e-52
9.12039e-52
1.59733e-51
2.79532e-51
4.88793e-51
8.54029e-51
1.49099e-50
2.60092e-50
4.53347e-50
7.89559e-50
1.374e-49
2.3891e-49
4.15077e-49
7.20555e-49
1.24982e-48
2.16606e-48
3.75089e-48
6.48987e-48
1.12196e-47
1.93799e-47
3.34473e-47
5.76773e-47
9.93758e-47
1.71075e-46
2.94254e-46
5.05692e-46
8.68312e-46
1.48967e-45
2.55346e-45
4.3731e-45
7.48292e-45
1.2793e-44
2.18519e-44
3.72928e-44
6.35878e-44
1.08327e-43
1.84379e-43
3.13543e-43
5.32711e-43
9.0426e-43
1.53356e-42
2.59844e-42
4.39873e-42
7.4395e-42
1.25707e-41
2.12214e-41
3.57919e-41
6.03102e-41
1.01529e-40
1.70758e-40
2.86922e-40
4.81652e-40
8.07776e-40
1.35343e-39
2.26549e-39
3.78853e-39
6.32937e-39
1.0564e-38
1.76147e-38
2.93425e-38
4.88308e-38
8.11823e-38
1.34834e-37
2.23722e-37
3.70837e-37
6.14077e-37
1.01584e-36
1.67878e-36
2.77153e-36
4.57093e-36
7.53089e-36
1.23949e-35
2.03795e-35
3.3473e-35
5.49219e-35
9.0021e-35
1.47397e-34
2.41089e-34
3.93921e-34
6.42956e-34
1.04831e-33
1.70741e-33
2.77793e-33
4.51478e-33
7.32965e-33
1.18866e-32
1.92558e-32
3.11595e-32
5.03667e-32
8.13237e-32
1.31163e-31
2.11311e-31
3.40055e-31
5.46625e-31
8.77692e-31
1.40768e-30
2.25515e-30
3.6087e-30
5.76807e-30
9.20898e-30
1.46856e-29
2.33922e-29
3.72174e-29
5.91444e-29
9.388e-29
1.48841e-28
2.35699e-28
3.72803e-28
5.88956e-28
9.29326e-28
1.46464e-27
2.30554e-27
3.62482e-27
5.69212e-27
8.92753e-27
1.39848e-26
2.188e-26
3.41902e-26
5.33601e-26
8.31747e-26
1.29486e-25
2.0133e-25
3.12642e-25
4.84881e-25
7.51055e-25
1.16186e-24
1.79506e-24
2.76977e-24
4.26823e-24
6.56882e-24
1.00963e-23
1.54977e-23
2.37576e-23
3.63717e-23
5.56095e-23
8.49097e-23
1.29475e-22
1.97165e-22
2.99839e-22
4.55365e-22
6.90624e-22
1.046e-21
1.58207e-21
2.38958e-21
3.60427e-21
5.42889e-21
8.16582e-21
1.22654e-20
1.83972e-20
2.75557e-20
4.12149e-20
6.15574e-20
9.18092e-20
1.36732e-19
2.03342e-19
3.01965e-19
4.4777e-19
6.63011e-19
9.80282e-19
1.44725e-18
2.1335e-18
3.14051e-18
4.61594e-18
6.77442e-18
9.92731e-18
1.45257e-17
2.12219e-17
3.09581e-17
4.5092e-17
6.55784e-17
9.52256e-17
1.38063e-16
1.99859e-16
2.88867e-16
4.16861e-16
6.00625e-16
8.64035e-16
1.241e-15
1.7796e-15
2.54789e-15
3.64203e-15
5.19765e-15
7.40577e-15
1.05349e-14
1.49617e-14
2.1214e-14
3.00298e-14
4.24392e-14
5.98775e-14
8.43411e-14
1.18602e-13
1.665e-13
2.33351e-13
3.26492e-13
4.56037e-13
6.35901e-13
8.85192e-13
1.2301e-12
1.70647e-12
2.36323e-12
3.26708e-12
4.50878e-12
6.21155e-12
8.54239e-12
1.17272e-11
1.6071e-11
2.19847e-11
3.0021e-11
4.09218e-11
5.56807e-11
7.56264e-11
1.02532e-10
1.38757e-10
1.87439e-10
2.5274e-10
3.40166e-10
4.56992e-10
6.12809e-10
8.20232e-10
1.09582e-09
1.46128e-09
1.94497e-09
2.58391e-09
3.42628e-09
4.53467e-09
5.99023e-09
7.89795e-09
1.03933e-08
1.36509e-08
1.78951e-08
2.34135e-08
3.05743e-08
3.98477e-08
5.18326e-08
6.72904e-08
8.71869e-08
1.12744e-07
1.45505e-07
1.87414e-07
2.40915e-07
3.09071e-07
3.95717e-07
5.05639e-07
6.44797e-07
8.20595e-07
1.04221e-06
1.321e-06
1.67096e-06
2.10932e-06
2.65723e-06
3.34062e-06
4.19112e-06
5.24733e-06
6.55613e-06
8.17443e-06
1.0171e-05
1.26289e-05
1.56481e-05
1.93486e-05
2.38739e-05
2.93958e-05
3.61187e-05
4.42855e-05
5.41841e-05
6.61547e-05
8.05984e-05
9.79868e-05
0.000118873
0.000143903
0.00017383
0.000209532
0.000252024
0.000302481
0.00036226
0.000432916
0.000516237
0.000614263
0.000729321
0.000864055
0.00102146
0.00120491
0.00141822
0.00166567
0.00195203
0.00228264
0.00266342
0.00310094
0.00360246
0.00417596
0.0048302
0.00557473
0.00641998
0.00737726
0.00845878
0.00967769
0.0110481
0.0125851
0.0143047
0.016224
0.0183607
0.0207338
0.0233629
0.0262683
0.0294713
0.0329935
0.0368572
0.0410849
0.0456995
0.0507238
0.0561804
0.0620919
0.0684801
0.0753661
0.0827702
0.0907112
0.0992068
0.108273
0.117923
0.128169
0.13902
0.150484
0.162563
0.175259
0.188569
0.202488
0.217006
0.232111
0.247786
0.264012
0.280766
0.298019
0.315742
0.333901
0.35246
0.371379
0.390615
0.410123
0.429858
0.44977
0.469811
0.489928
0.510071
0.530189
0.550229
0.570141
0.589876
0.609384
0.62862
0.647538
0.666096
0.684254
0.701977
0.719229
0.735981
0.752206
0.767879
0.782981
0.797497
0.811412
0.824717
0.837408
0.84948
0.860935
0.871777
0.882011
0.891647
0.900695
0.90917
0.917086
0.92446
0.93131
0.937656
0.943517
0.948914
0.953868
0.958399
0.962529
0.966277
0.969665
0.97271
0.975432
0.977848
0.979974
0.981824
0.983413
0.984751
0.985851
0.98672
0.987365
0.987793
0.988005
0.988005
0.987793
0.987365
0.98672
0.985851
0.984751
0.983413
0.981824
0.979974
0.977848
0.975432
0.97271
0.969665
0.966277
0.962529
0.958399
0.953868
0.948914
0.943517
0.937656
0.93131
0.92446
0.917086
0.90917
0.900695
0.891647
0.882011
0.871777
0.860935
0.84948
0.837408
0.824717
0.811412
0.797497
0.782981
0.767879
0.752206
0.735981
0.719229
0.701977
0.684254
0.666096
0.647538
0.62862
0.609384
0.589876
0.570141
0.550229
0.530189
0.510071
0.489928
0.469811
0.44977
0.429858
0.410123
0.390615
0.371379
0.35246
0.333901
0.315742
0.298019
0.280766
0.264012
0.247786
0.232111
0.217006
0.202488
0.188569
0.175259
0.162563
0.150484
0.13902
0.128169
0.117923
0.108273
0.0992068
0.0907112
0.0827702
0.0753661
0.0684801
0.0620919
0.0561804
0.0507238
0.0456995
0.0410849
0.0368572
0.0329935
0.0294713
0.0262683
0.0233629
0.0207338
0.0183607
0.016224
0.0143047
0.0125851
0.0110481
0.00967769
0.00845878
0.00737726
0.00641998
0.00557473
0.0048302
0.00417596
0.00360246
0.00310094
0.00266342
0.00228264
0.00195203
0.00166567
0.00141822
0.00120491
0.00102146
0.000864055
0.000729321
0.000614263
0.000516237
0.000432916
0.00036226
0.000302481
0.000252024
0.000209532
0.00017383
0.000143903
0.000118873
9.79868e-05
8.05984e-05
6.61547e-05
5.41841e-05
4.42855e-05
3.61187e-05
2.93958e-05
2.38739e-05
1.93486e-05
1.56481e-05
1.26289e-05
1.0171e-05
8.17443e-06
6.55613e-06
5.24733e-06
4.19112e-06
3.34062e-06
2.65723e-06
2.10932e-06
1.67096e-06
1.321e-06
1.04221e-06
8.20595e-07
6.44797e-07
5.05639e-07
3.95717e-07
3.09071e-07
2.40915e-07
1.87414e-07
1.45505e-07
1.12744e-07
8.71869e-08
6.72904e-08
5.18326e-08
3.98477e-08
3.05743e-08
2.34135e-08
1.78951e-08
1.36509e-08
1.03933e-08
7.89795e-09
5.99023e-09
4.53467e-09
3.42628e-09
2.58391e-09
1.94497e-09
1.46128e-09
1.09582e-09
8.20232e-10
6.12809e-10
4.56992e-10
3.40166e-10
2.5274e-10
1.87439e-10
1.38757e-10
1.02532e-10
7.56264e-11
5.56807e-11
4.09218e-11
3.0021e-11
2.19847e-11
1.6071e-11
1.17272e-11
8.54239e-12
6.21155e-12
4.50878e-12
3.26708e-12
2.36323e-12
1.70647e-12
1.2301e-12
8.85192e-13
6.35901e-13
4.56037e-13
3.26492e-13
2.33351e-13
1.665e-13
1.18602e-13
8.43411e-14
5.98775e-14
4.24392e-14
3.00298e-14
2.1214e-14
1.49617e-14
1.05349e-14
7.40577e-15
5.19765e-15
3.64203e-15
2.54789e-15
1.7796e-15
1.241e-15
8.64035e-16
6.00625e-16
4.16861e-16
2.88867e-16
1.99859e-16
1.38063e-16
9.52256e-17
6.55784e-17
4.5092e-17
3.09581e-17
2.12219e-17
1.45257e-17
9.92731e-18
6.77442e-18
4.61594e-18
3.14051e-18
2.1335e-18
1.44725e-18
9.80282e-19
6.63011e-19
4.4777e-19
3.01965e-19
2.03342e-19
1.36732e-19
9.18092e-20
6.15574e-20
4.12149e-20
2.75557e-20
1.83972e-20
1.22654e-20
8.16582e-21
5.42889e-21
3.60427e-21
2.38958e-21
1.58207e-21
1.046e-21
6.90624e-22
4.55365e-22
2.99839e-22
1.97165e-22
1.29475e-22
8.49097e-23
5.56095e-23
3.63717e-23
2.37576e-23
1.54977e-23
1.00963e-23
6.56882e-24
4.26823e-24
2.76977e-24
1.79506e-24
1.16186e-24
7.51055e-25
4.84881e-25
3.12642e-25
2.0133e-25
1.29486e-25
8.31747e-26
5.33601e-26
3.41902e-26
2.188e-26
1.39848e-26
8.92753e-27
5.69212e-27
3.62482e-27
2.30554e-27
1.46464e-27
9.29326e-28
5.88956e-28
3.72803e-28
2.35699e-28
1.48841e-28
9.388e-29
5.91444e-29
3.72174e-29
2.33922e-29
1.46856e-29
9.20898e-30
5.76807e-30
3.6087e-30
2.25515e-30
1.40768e-30
8.77692e-31
5.46625e-31
3.40055e-31
2.11311e-31
1.31163e-31
8.13237e-32
5.03667e-32
3.11595e-32
1.92558e-32
1.18866e-32
7.32965e-33
4.51478e-33
2.77793e-33
1.70741e-33
1.04831e-33
6.42956e-34
3.93921e-34
2.41089e-34
1.47397e-34
9.0021e-35
5.49219e-35
3.3473e-35
2.03795e-35
1.23949e-35
7.53089e-36
4.57093e-36
2.77153e-36
1.67878e-36
1.01584e-36
6.14077e-37
3.70837e-37
2.23722e-37
1.34834e-37
8.11823e-38
4.88308e-38
2.93425e-38
1.76147e-38
1.0564e-38
6.32937e-39
3.78853e-39
2.26549e-39
1.35343e-39
8.07776e-40
4.81652e-40
2.86922e-40
1.70758e-40
1.01529e-40
6.03102e-41
3.57919e-41
2.12214e-41
1.25707e-41
7.4395e-42
4.39873e-42
2.59844e-42
1.53356e-42
9.0426e-43
5.32711e-43
3.13543e-43
1.84379e-43
1.08327e-43
6.35878e-44
3.72928e-44
2.18519e-44
1.2793e-44
7.48292e-45
4.3731e-45
2.55346e-45
1.48967e-45
8.68312e-46
5.05692e-46
2.94254e-46
1.71075e-46
9.93758e-47
5.76773e-47
3.34473e-47
1.93799e-47
1.12196e-47
6.48987e-48
3.75089e-48
2.16606e-48
1.24982e-48
7.20555e-49
4.15077e-49
2.3891e-49
1.374e-49
7.89559e-50
4.53347e-50
2.60092e-50
1.49099e-50
8.54029e-51
4.88793e-51
2.79532e-51
1.59733e-51
9.12039e-52
5.20345e-52
2.9664e-52
1.68977e-52
9.61808e-53
5.47032e-53
3.10886e-53
1.76545e-53
1.00179e-53
5.68024e-54
3.2183e-54
1.82203e-54
1.03076e-54
5.82683e-55
3.2914e-55
1.85783e-55
1.04787e-55
5.90587e-56
3.32615e-56
1.87188e-56
1.05268e-56
5.91558e-57
3.32186e-57
1.86402e-57
1.04521e-57
5.85659e-58
3.27924e-58
1.83481e-58
1.02589e-58
5.7319e-59
3.20029e-59
1.78556e-59
9.95528e-60
5.54661e-60
3.08815e-60
1.71818e-60
9.5529e-61
5.30765e-61
2.94693e-61
1.63509e-61
9.06595e-62
5.02331e-62
2.78145e-62
1.53907e-62
8.51046e-63
4.70279e-63
2.59697e-63
1.43314e-63
7.90353e-64
4.35578e-64
2.39896e-64
1.32037e-64
7.26241e-65
3.99193e-65
2.19281e-65
1.20376e-65
6.60381e-66
3.62051e-66
1.98366e-66
1.08614e-66
5.94326e-67
3.25004e-67
1.77614e-67
9.70044e-68
5.29458e-68
2.88801e-68
1.57433e-68
8.57669e-69
4.66955e-69
2.54074e-69
1.38159e-69
7.50806e-70
4.07767e-70
2.21325e-70
1.20056e-70
6.50838e-71
3.52614e-71
1.90926e-71
1.03316e-71
5.58743e-72
3.01992e-72
1.63125e-72
8.8062e-73
4.75116e-73
2.56185e-73
1.38055e-73
7.43529e-74
4.00212e-74
2.15292e-74
1.15748e-74
6.21943e-75
3.33992e-75
1.79255e-75
9.61523e-76
5.15465e-76
2.7618e-76
1.4789e-76
7.91478e-77
4.23345e-77
2.26312e-77
1.20914e-77
6.45662e-78
3.44586e-78
1.83808e-78
9.8006e-79
5.22532e-79
2.78924e-79
1.49713e-79
8.20234e-80
4.81059e-80
3.40376e-80
)
;

boundaryField
{
    sides
    {
        type            zeroGradient;
    }
    empty
    {
        type            empty;
    }
}


// ************************************************************************* //
