/*--------------------------------*- C++ -*----------------------------------*\
  =========                 |
  \\      /  F ield         | OpenFOAM: The Open Source CFD Toolbox
   \\    /   O peration     | Website:  https://openfoam.org
    \\  /    A nd           | Version:  7
     \\/     M anipulation  |
\*---------------------------------------------------------------------------*/
FoamFile
{
    version     2.0;
    format      ascii;
    class       volScalarField;
    location    "9";
    object      p;
}
// * * * * * * * * * * * * * * * * * * * * * * * * * * * * * * * * * * * * * //

dimensions      [0 2 -2 0 0 0 0];

internalField   nonuniform List<scalar> 
8800
(
0.417666
0.369967
0.331475
0.302686
0.282065
0.267505
0.257214
0.250015
0.245381
0.243329
0.244302
0.248036
0.254166
0.262976
0.275321
0.2927
0.317185
0.350895
0.393199
0.451897
0.248585
0.256295
0.264104
0.267586
0.266316
0.26156
0.255452
0.24975
0.245326
0.2426
0.24216
0.24426
0.248195
0.253557
0.259767
0.265566
0.268838
0.267879
0.262123
0.253225
0.226475
0.232821
0.2374
0.240859
0.243388
0.244468
0.243771
0.241959
0.240063
0.239059
0.239752
0.241709
0.243991
0.245581
0.245565
0.243765
0.240823
0.236869
0.231908
0.228108
0.220408
0.223251
0.226652
0.229722
0.231834
0.23327
0.234254
0.234678
0.234655
0.23467
0.235014
0.235542
0.235732
0.235263
0.234221
0.232605
0.230096
0.226723
0.223768
0.222274
0.215497
0.216905
0.219813
0.222969
0.225704
0.227827
0.229233
0.230094
0.230584
0.230895
0.231247
0.231417
0.23114
0.230309
0.228739
0.226422
0.223556
0.220397
0.218282
0.217705
0.214385
0.214976
0.216485
0.218262
0.220014
0.22175
0.223325
0.224634
0.225607
0.226279
0.226568
0.2264
0.225754
0.224653
0.223242
0.221618
0.219945
0.218276
0.217258
0.217049
0.213382
0.213662
0.214466
0.215531
0.2167
0.217864
0.219093
0.220218
0.221191
0.221942
0.222326
0.222253
0.221786
0.221012
0.220074
0.219134
0.218161
0.217259
0.216756
0.216664
0.211445
0.211575
0.211999
0.212662
0.213409
0.214338
0.215393
0.216455
0.217467
0.218334
0.218834
0.218874
0.218554
0.217988
0.21739
0.216813
0.216266
0.215784
0.215554
0.21551
0.208673
0.20874
0.209006
0.209465
0.210013
0.210681
0.211442
0.212327
0.213284
0.214225
0.214901
0.215191
0.215194
0.215039
0.214775
0.214466
0.214149
0.213883
0.213771
0.213751
0.205518
0.205561
0.205741
0.206073
0.206517
0.207092
0.20781
0.208677
0.209678
0.210754
0.211647
0.212176
0.212407
0.212445
0.212368
0.212238
0.212082
0.211954
0.211905
0.211892
0.201989
0.202018
0.202148
0.202398
0.202762
0.203266
0.203945
0.204826
0.205917
0.207182
0.208345
0.209151
0.209639
0.209905
0.210027
0.210063
0.21005
0.210027
0.21002
0.210011
0.19809
0.198117
0.19823
0.198449
0.198792
0.199296
0.200007
0.200974
0.202227
0.20376
0.205258
0.206379
0.207123
0.207602
0.20789
0.208054
0.208141
0.208184
0.208202
0.208195
0.19379
0.193812
0.193932
0.194158
0.194521
0.19507
0.195871
0.196991
0.19849
0.200379
0.202288
0.203769
0.204815
0.205514
0.205967
0.206249
0.206418
0.206512
0.206551
0.206544
0.189057
0.189081
0.189215
0.189473
0.189892
0.190535
0.191486
0.192838
0.194675
0.197031
0.199458
0.201387
0.202766
0.203706
0.204329
0.204729
0.204974
0.205114
0.205171
0.205164
0.183813
0.183841
0.184003
0.184314
0.184822
0.185607
0.186775
0.188447
0.190736
0.193697
0.196774
0.19924
0.201012
0.202237
0.203054
0.203583
0.203911
0.204098
0.204175
0.204167
0.17794
0.177974
0.178176
0.178565
0.1792
0.180182
0.181646
0.183745
0.186626
0.190361
0.194252
0.197378
0.199633
0.201196
0.202242
0.20292
0.203343
0.203585
0.203683
0.203674
0.171275
0.171318
0.171577
0.172072
0.172879
0.174126
0.175984
0.178645
0.182292
0.187014
0.191926
0.19587
0.198716
0.200689
0.202012
0.20287
0.203406
0.203712
0.203836
0.203824
0.163601
0.163657
0.163991
0.164628
0.165666
0.167268
0.169646
0.173041
0.177677
0.183653
0.189845
0.194802
0.198374
0.20085
0.20251
0.203587
0.20426
0.204644
0.2048
0.204785
0.154622
0.154698
0.155132
0.155961
0.157311
0.159388
0.162455
0.16681
0.172719
0.180285
0.188074
0.194282
0.198748
0.20184
0.203914
0.20526
0.206098
0.206578
0.206772
0.206752
0.143932
0.144035
0.144608
0.145701
0.147483
0.150203
0.154188
0.159804
0.167357
0.17693
0.1867
0.194445
0.200005
0.203854
0.206436
0.208111
0.209153
0.209747
0.209987
0.209963
0.13096
0.1311
0.131869
0.133343
0.135739
0.139362
0.144573
0.151858
0.161531
0.173627
0.185833
0.195451
0.202343
0.207117
0.210325
0.212409
0.213702
0.214433
0.214729
0.2147
0.114886
0.11508
0.116134
0.118175
0.121445
0.1263
0.133251
0.142776
0.15519
0.170437
0.185604
0.197474
0.205976
0.211882
0.215868
0.218467
0.220081
0.220987
0.221348
0.22131
0.0945174
0.0947996
0.0962963
0.0992202
0.103802
0.110477
0.119839
0.132385
0.14833
0.167454
0.186159
0.200697
0.211123
0.218411
0.223373
0.226643
0.228691
0.22984
0.230289
0.230231
0.0679744
0.0684106
0.0706854
0.0750922
0.0817513
0.091195
0.104041
0.120655
0.141066
0.164854
0.187676
0.205295
0.21798
0.226946
0.233145
0.237309
0.239973
0.241489
0.242074
0.241989
0.0319336
0.032721
0.0366538
0.0438657
0.0541079
0.0679494
0.0858051
0.107785
0.133687
0.162905
0.190354
0.211412
0.226674
0.237641
0.245413
0.250798
0.254377
0.256478
0.257302
0.257188
-0.0200752
-0.0177669
-0.00957456
0.00339915
0.0200182
0.0406605
0.0654296
0.0942042
0.126593
0.16188
0.194323
0.219067
0.23715
0.250421
0.26015
0.267221
0.272219
0.275403
0.276752
0.276601
-0.0986704
-0.0872724
-0.0684744
-0.0452018
-0.0190156
0.0106293
0.0438426
0.0804472
0.120046
0.161976
0.199888
0.22877
0.250172
0.266325
0.278708
0.288345
0.295861
0.301347
0.30432
0.304804
-0.182304
-0.157542
-0.127559
-0.0939802
-0.0580318
-0.019324
0.0222855
0.0667804
0.113916
0.163181
0.207558
0.241613
0.267293
0.2872
0.303041
0.315956
0.326641
0.336065
0.342376
0.343088
-0.245847
-0.218953
-0.18076
-0.138967
-0.0945668
-0.0476104
0.00192602
0.0539666
0.108285
0.164432
0.214699
0.253177
0.282193
0.304713
0.322604
0.337088
0.34891
0.358619
0.364316
0.365127
-0.29665
-0.267674
-0.224984
-0.177512
-0.126844
-0.0732863
-0.0170206
0.0417098
0.102557
0.164958
0.220335
0.26234
0.293681
0.317667
0.336405
0.351324
0.363368
0.373027
0.378778
0.37967
-0.33728
-0.307812
-0.261971
-0.210301
-0.154915
-0.0961563
-0.0343522
0.0301099
0.0967236
0.164756
0.224743
0.269789
0.302961
0.327996
0.347271
0.362376
0.374383
0.383737
0.389467
0.390396
-0.371506
-0.341845
-0.293802
-0.238898
-0.179736
-0.116726
-0.0502547
0.0192205
0.091065
0.164317
0.22855
0.276319
0.31108
0.336961
0.356608
0.371789
0.383716
0.392892
0.398528
0.399484
-0.401318
-0.371666
-0.322032
-0.264596
-0.202331
-0.135719
-0.0651918
0.00873043
0.085308
0.163402
0.231701
0.282137
0.318465
0.345194
0.365241
0.38055
0.392435
0.401498
0.407006
0.407963
-0.428181
-0.398494
-0.347621
-0.288152
-0.223358
-0.153729
-0.0797031
-0.00181532
0.0791684
0.161978
0.234374
0.287579
0.325575
0.353239
0.373755
0.389246
0.401137
0.41012
0.415507
0.416469
-0.452966
-0.423197
-0.371352
-0.310223
-0.243323
-0.171126
-0.0940171
-0.0125196
0.0726118
0.16003
0.236621
0.292792
0.332649
0.361404
0.382502
0.398253
0.410214
0.419098
0.424368
0.425366
-0.476401
-0.446448
-0.39377
-0.331235
-0.262546
-0.188125
-0.108311
-0.023555
0.065463
0.157432
0.238401
0.297824
0.339822
0.369887
0.391716
0.407824
0.419901
0.428777
0.433874
0.434936
-0.498755
-0.468571
-0.415176
-0.351528
-0.281317
-0.204982
-0.122793
-0.0350741
0.0576208
0.15409
0.239636
0.30265
0.347137
0.378788
0.40155
0.418143
0.430413
0.439311
0.444268
0.445318
-0.520367
-0.489858
-0.435829
-0.371254
-0.299744
-0.221777
-0.137512
-0.0471409
0.048994
0.149887
0.240188
0.307169
0.354543
0.38813
0.41208
0.42933
0.441903
0.450867
0.455705
0.456702
-0.541269
-0.51046
-0.455928
-0.390486
-0.317883
-0.238546
-0.152499
-0.059776
0.0395306
0.144738
0.239924
0.311218
0.361919
0.397843
0.423303
0.441435
0.454461
0.463555
0.468309
0.469164
-0.561519
-0.530427
-0.475449
-0.409259
-0.335745
-0.255276
-0.167743
-0.0729772
0.0292169
0.138561
0.23869
0.31459
0.369048
0.407787
0.43516
0.454463
0.468128
0.477476
0.482174
0.482815
-0.581152
-0.549709
-0.494375
-0.427543
-0.353314
-0.271923
-0.183182
-0.0866956
0.0180744
0.131308
0.236348
0.317038
0.375663
0.41775
0.44753
0.468376
0.482878
0.49256
0.497252
0.497665
-0.600191
-0.568342
-0.512654
-0.445295
-0.370514
-0.288424
-0.198744
-0.100861
0.00614391
0.122963
0.232757
0.318303
0.381427
0.427403
0.460163
0.48303
0.498684
0.508844
0.513484
0.513652
-0.618441
-0.58636
-0.53024
-0.462481
-0.38728
-0.304693
-0.214345
-0.115377
-0.00649457
0.113572
0.227837
0.318167
0.385923
0.436219
0.472686
0.49821
0.515394
0.526077
0.530558
0.530459
-0.635921
-0.603619
-0.547108
-0.479034
-0.403536
-0.320654
-0.229879
-0.130151
-0.0197408
0.103183
0.221587
0.316434
0.388706
0.443559
0.484521
0.513756
0.53313
0.544263
0.548227
0.547757
-0.652629
-0.620008
-0.563213
-0.494904
-0.419222
-0.336216
-0.245251
-0.145061
-0.033488
0.0918987
0.214017
0.312956
0.389371
0.448702
0.494824
0.529189
0.552199
0.563846
0.566021
0.564864
-0.668431
-0.635567
-0.578501
-0.510018
-0.434285
-0.351303
-0.260363
-0.159992
-0.0475952
0.07986
0.205205
0.307663
0.387656
0.450984
0.502331
0.54328
0.572774
0.587241
0.585412
0.581535
-0.683434
-0.650285
-0.59298
-0.524403
-0.448756
-0.365964
-0.275279
-0.17501
-0.0621415
0.0670002
0.195089
0.300344
0.383324
0.449568
0.505084
0.553228
0.59274
0.618239
0.617758
0.592794
-0.697609
-0.664204
-0.606752
-0.538224
-0.462879
-0.38049
-0.290387
-0.1906
-0.0777004
0.0526437
0.183049
0.290362
0.375568
0.443364
0.500034
0.553153
0.599971
0.628566
0.619653
0.589132
-0.710854
-0.677387
-0.619662
-0.551255
-0.476377
-0.39456
-0.305443
-0.206447
-0.0939812
0.0370963
0.16936
0.277883
0.363961
0.431984
0.483407
0.533504
0.571662
0.582995
0.51839
0.4705
-0.722553
-0.690076
-0.631322
-0.562929
-0.48872
-0.407807
-0.320192
-0.222389
-0.110862
0.0204482
0.154087
0.262882
0.348453
0.416902
0.457628
0.484918
0.506484
0.466649
0.386717
0.333626
-0.775222
-0.698975
-0.642035
-0.574613
-0.501242
-0.421431
-0.334799
-0.238709
-0.128684
0.00225503
0.136828
0.245187
0.326817
0.39799
0.4162
0.412717
0.381979
0.311118
0.216999
0.165214
-0.725719
-0.712518
-0.655848
-0.590849
-0.51847
-0.440187
-0.35635
-0.262991
-0.155205
-0.024479
0.110548
0.214726
0.285886
0.339109
0.344139
0.206379
0.0746545
-0.0151279
-0.108
-0.0537276
-0.751649
-0.724511
-0.668591
-0.603682
-0.532056
-0.455029
-0.372314
-0.281402
-0.176314
-0.0470554
0.0886249
0.189591
0.251181
0.275234
0.206325
0.0151352
-0.162048
-0.287118
-0.42284
-0.328755
-0.769801
-0.738376
-0.682862
-0.617617
-0.546565
-0.470753
-0.389793
-0.301613
-0.199952
-0.0729767
0.0627893
0.160925
0.209583
0.202822
0.0577802
-0.20395
-0.427078
-0.598015
-0.796795
-0.698347
-0.786384
-0.753121
-0.696824
-0.631161
-0.560622
-0.486063
-0.407324
-0.322495
-0.224601
-0.0992548
0.0375515
0.132465
0.164316
0.112327
-0.120899
-0.433403
-0.72604
-0.981502
-1.27315
-1.23179
-0.801052
-0.767556
-0.710683
-0.644786
-0.574811
-0.501629
-0.425393
-0.344277
-0.250714
-0.127861
0.011623
0.10494
0.115285
0.00820214
-0.296895
-0.653333
-1.01671
-1.3543
-1.75074
-2.1192
-0.814857
-0.781612
-0.724526
-0.658655
-0.589292
-0.517585
-0.44408
-0.367302
-0.279034
-0.159752
-0.0175243
0.0764898
0.0643971
-0.0969592
-0.458785
-0.83556
-1.22364
-1.56061
-1.72441
-1.98654
-0.828327
-0.795288
-0.738389
-0.672727
-0.604115
-0.5341
-0.463761
-0.392189
-0.310788
-0.196132
-0.0485608
0.0479697
0.0148577
-0.216839
-0.605962
-0.981094
-1.30884
-1.53617
-1.59964
-1.64036
-0.841708
-0.808826
-0.752039
-0.686765
-0.619074
-0.550996
-0.484396
-0.419117
-0.346475
-0.239114
-0.0853231
0.0199518
-0.0375851
-0.342251
-0.736601
-1.11797
-1.38328
-1.4842
-1.51687
-1.53356
-0.855009
-0.822104
-0.765311
-0.700466
-0.633804
-0.567939
-0.505647
-0.448027
-0.388089
-0.291855
-0.131714
-0.00968608
-0.0962928
-0.467594
-0.86151
-1.26167
-1.54811
-1.51751
-1.5411
-1.55534
-0.867915
-0.834822
-0.777902
-0.713469
-0.647879
-0.584429
-0.526964
-0.478624
-0.434709
-0.359813
-0.199389
-0.0580025
-0.173902
-0.600427
-0.984604
-1.39585
-1.84021
-1.78721
-1.65296
-1.6153
-0.879927
-0.846525
-0.789376
-0.725273
-0.660712
-0.599739
-0.54762
-0.510446
-0.488849
-0.450478
-0.30936
-0.157125
-0.29661
-0.741121
-1.08536
-1.34884
-1.65178
-1.60934
-1.55792
-1.53432
-0.890378
-0.856486
-0.799222
-0.735269
-0.671577
-0.612998
-0.566584
-0.542563
-0.552153
-0.580444
-0.503269
-0.346907
-0.498129
-0.909812
-1.12288
-1.04877
-0.958692
-1.22371
-1.39402
-1.42762
-0.898867
-0.864308
-0.806723
-0.74274
-0.6796
-0.62306
-0.582606
-0.573075
-0.623822
-0.767964
-0.841423
-0.677949
-0.799189
-1.16448
-1.40453
-1.36934
-1.39632
-1.52336
-1.629
-1.68053
-0.90473
-0.869301
-0.811183
-0.746876
-0.683823
-0.628558
-0.592609
-0.598491
-0.698018
-1.01324
-1.36515
-1.17338
-1.20165
-1.56737
-2.14295
-2.61952
-2.73586
-2.63252
-2.47344
-2.40827
-0.907207
-0.870873
-0.811963
-0.74692
-0.683274
-0.628177
-0.595067
-0.614174
-0.761723
-1.27995
-2.0254
-1.74004
-1.56714
-1.89014
-2.67416
-3.63044
-3.83451
-3.49427
-3.11162
-2.95298
-0.905738
-0.868423
-0.808469
-0.742236
-0.677127
-0.620544
-0.58698
-0.610357
-0.789894
-1.46216
-2.52707
-2.11308
-1.55964
-1.63665
-2.14892
-2.82862
-2.91588
-2.48364
-2.08834
-1.92536
-0.900147
-0.861621
-0.800382
-0.732465
-0.664936
-0.604862
-0.566313
-0.582931
-0.75644
-1.4298
-2.51308
-1.8266
-0.973614
-0.467506
-0.281294
-0.287983
-0.251117
-0.0486359
0.0859578
0.132108
-0.890502
-0.850659
-0.787732
-0.71766
-0.646842
-0.581418
-0.53321
-0.529407
-0.647474
-1.13046
-1.81385
-1.03085
-0.151513
0.495376
0.905794
1.16308
1.3162
1.38305
1.40683
1.41076
-0.87671
-0.835808
-0.770798
-0.698346
-0.623674
-0.551577
-0.490456
-0.457346
-0.492434
-0.687599
-0.82171
-0.18332
0.473785
0.969137
1.2964
1.51293
1.63627
1.69763
1.72175
1.72496
-0.857895
-0.816512
-0.750063
-0.675069
-0.596569
-0.517664
-0.443078
-0.380116
-0.338997
-0.311981
-0.140263
0.292031
0.745552
1.09202
1.31791
1.46811
1.56347
1.62087
1.6503
1.65619
-0.833662
-0.792354
-0.725155
-0.648242
-0.566486
-0.481856
-0.395966
-0.309507
-0.217487
-0.0861877
0.160554
0.484257
0.791547
1.0333
1.1996
1.31402
1.39289
1.44659
1.47627
1.48291
-0.80128
-0.761073
-0.694686
-0.616812
-0.533368
-0.445142
-0.351815
-0.250823
-0.132428
0.0338436
0.271259
0.526313
0.749308
0.924885
1.05371
1.14727
1.21551
1.2643
1.28966
1.29648
-0.755221
-0.71799
-0.656145
-0.5789
-0.49586
-0.406869
-0.310848
-0.203877
-0.0765568
0.0922979
0.301254
0.504068
0.674244
0.808545
0.911216
0.989051
1.0481
1.09127
1.11521
1.12269
-0.694679
-0.662343
-0.603471
-0.530999
-0.451486
-0.365577
-0.271464
-0.16578
-0.0412332
0.115586
0.292713
0.45384
0.585631
0.6899
0.771399
0.835073
0.884308
0.920465
0.943524
0.950991
-0.6087
-0.587338
-0.534481
-0.469203
-0.397014
-0.31827
-0.231159
-0.133016
-0.018844
0.118992
0.264913
0.391132
0.491161
0.569437
0.630327
0.678173
0.716126
0.744585
0.761835
0.766479
-0.485707
-0.475084
-0.438435
-0.3875
-0.329118
-0.263561
-0.189113
-0.103782
-0.00414993
0.114008
0.2361
0.338986
0.419215
0.480583
0.52699
0.561757
0.587612
0.607367
0.620345
0.62346
-0.352731
-0.348598
-0.326676
-0.29305
-0.251938
-0.202676
-0.144033
-0.0743054
0.00884589
0.107814
0.209209
0.293227
0.357492
0.405519
0.440568
0.465537
0.482968
0.494426
0.500419
0.501815
-0.230507
-0.228318
-0.21772
-0.199007
-0.173568
-0.140195
-0.0975336
-0.0437388
0.022801
0.103476
0.186011
0.253826
0.304844
0.341874
0.367954
0.385761
0.397213
0.403961
0.407184
0.407649
-0.130248
-0.130234
-0.126611
-0.118105
-0.104254
-0.0836185
-0.0542449
-0.0146091
0.0369672
0.101324
0.167658
0.221666
0.261613
0.290106
0.309566
0.322072
0.329654
0.333813
0.335632
0.335659
-0.0583528
-0.0591944
-0.059698
-0.0575389
-0.0509447
-0.0385324
-0.0188359
0.00999759
0.0491414
0.0994289
0.151889
0.194542
0.225729
0.247343
0.26165
0.27068
0.275899
0.278468
0.279374
0.279313
-0.0123728
-0.0132443
-0.0149129
-0.0152486
-0.0126166
-0.00549645
0.00766574
0.0284082
0.058216
0.0971839
0.138188
0.171359
0.195362
0.211968
0.222886
0.229404
0.232933
0.234519
0.234993
0.234909
0.015341
0.0147381
0.0133856
0.0127846
0.0141935
0.0186519
0.0274535
0.0421317
0.0644011
0.0944503
0.126354
0.152207
0.170866
0.18359
0.191498
0.196182
0.198666
0.199688
0.199931
0.199856
0.0322699
0.0319148
0.0311033
0.0307331
0.0317211
0.0349455
0.0414007
0.0522005
0.0683818
0.0917608
0.116346
0.13621
0.150531
0.160016
0.165979
0.169458
0.171226
0.171898
0.172043
0.171982
0.0431619
0.0429554
0.0424741
0.0423006
0.043056
0.0453802
0.0500984
0.0581778
0.0705195
0.0879268
0.107071
0.122423
0.133292
0.140536
0.145048
0.147639
0.148937
0.149415
0.149512
0.149463
0.0499666
0.0498473
0.0495625
0.0495194
0.0501696
0.0519791
0.0555462
0.0616136
0.0709791
0.0842083
0.098717
0.110474
0.118779
0.124278
0.127692
0.129638
0.130597
0.130937
0.131
0.13096
0.053758
0.0536862
0.0535142
0.0535313
0.0540672
0.0554709
0.0582047
0.0628353
0.0699645
0.0800076
0.0910119
0.0999656
0.106311
0.110509
0.113103
0.114568
0.115278
0.11552
0.115561
0.115528
0.0552965
0.0552522
0.0551562
0.0552137
0.055665
0.0567675
0.0588663
0.0623978
0.0678307
0.0754736
0.0838429
0.0906672
0.0955003
0.0986894
0.100651
0.101751
0.102278
0.102451
0.102476
0.102448
0.0551744
0.0551455
0.0550938
0.0551673
0.0555417
0.0564104
0.0580328
0.0607399
0.0648837
0.0707002
0.0770644
0.0822663
0.0859333
0.0883517
0.0898338
0.0906612
0.0910516
0.0911739
0.0911875
0.0911643
0.0538063
0.0537861
0.0537577
0.0538308
0.0541348
0.0548149
0.0560676
0.0581413
0.0613047
0.0657387
0.0705893
0.0745351
0.0773207
0.0791526
0.0802712
0.0808909
0.081179
0.0812648
0.081271
0.0812518
0.0514898
0.051475
0.051458
0.051522
0.0517635
0.0522928
0.0532579
0.0548469
0.0572611
0.0606396
0.0643285
0.0673249
0.0694386
0.0708251
0.0716682
0.072132
0.0723436
0.0724024
0.0724033
0.0723874
0.048443
0.0484316
0.0484198
0.0484717
0.0486605
0.0490694
0.0498102
0.0510249
0.0528662
0.0554378
0.0582423
0.0605154
0.0621168
0.0631637
0.0637972
0.0641427
0.0642974
0.0643373
0.0643352
0.0643222
0.0448327
0.0448235
0.0448143
0.0448544
0.0449993
0.0453124
0.0458785
0.046805
0.0482068
0.050162
0.0522894
0.0540108
0.0552214
0.0560108
0.0564862
0.0567431
0.0568556
0.0568815
0.0568775
0.0568669
0.0407886
0.040781
0.0407732
0.0408032
0.0409131
0.041151
0.0415813
0.0422845
0.0433476
0.0448291
0.0464395
0.0477413
0.048654
0.0492469
0.049602
0.0497918
0.0498725
0.0498887
0.0498839
0.0498754
0.0364129
0.0364066
0.0363995
0.0364208
0.0365027
0.0366814
0.0370054
0.0375361
0.0383394
0.0394579
0.0406716
0.0416508
0.0423365
0.0427797
0.0430432
0.043182
0.0432392
0.0432482
0.0432428
0.043236
0.0317839
0.0317788
0.0317721
0.0317862
0.0318456
0.0319777
0.0322193
0.0326166
0.0332185
0.0340568
0.034965
0.0356965
0.0362067
0.0365353
0.0367296
0.0368309
0.036871
0.0368755
0.0368702
0.0368645
0.0269626
0.0269581
0.0269514
0.0269597
0.0270017
0.027098
0.027276
0.0275699
0.0280154
0.0286357
0.0293081
0.0298481
0.0302229
0.0304628
0.0306033
0.0306749
0.0307018
0.0307028
0.0306976
0.0306932
0.0219967
0.0219929
0.0219864
0.0219905
0.0220189
0.0220869
0.0222143
0.022426
0.0227482
0.0231977
0.0236845
0.0240754
0.0243463
0.0245187
0.024618
0.024667
0.0246834
0.0246815
0.0246763
0.0246728
0.0169235
0.0169202
0.0169137
0.016914
0.0169315
0.016977
0.0170643
0.0172108
0.0174349
0.0177488
0.0180888
0.0183609
0.0185485
0.0186665
0.0187332
0.018765
0.018774
0.0187704
0.0187654
0.0187627
0.0117721
0.0117694
0.0117632
0.0117611
0.0117704
0.011798
0.0118533
0.0119476
0.0120923
0.0122942
0.0125129
0.0126871
0.0128061
0.0128806
0.0129222
0.0129406
0.0129438
0.0129391
0.0129345
0.0129325
0.00656431
0.00656227
0.00655711
0.00655383
0.00655737
0.0065712
0.00659986
0.00664907
0.00672493
0.00683211
0.00694761
0.00704028
0.00710368
0.00714281
0.00716365
0.00717163
0.00717117
0.00716591
0.00716208
0.00716069
0.00131833
0.00131793
0.00131609
0.0013141
0.00131246
0.00131369
0.00131753
0.00132484
0.00133673
0.00135479
0.00137771
0.00139929
0.00141478
0.00142456
0.00143003
0.00143255
0.00143244
0.00142986
0.00142762
0.00142671
-0.902833
-0.627135
-0.326227
-0.0851193
0.109734
0.268067
0.40353
0.518601
0.57379
0.549845
-0.415152
-0.23395
-0.0480174
0.110901
0.24581
0.359648
0.453126
0.520596
0.555825
0.565367
-0.0924079
0.025141
0.147443
0.256184
0.350252
0.429411
0.492392
0.538161
0.569291
0.585126
0.126728
0.206009
0.291096
0.367595
0.434364
0.490684
0.536368
0.571784
0.598868
0.615787
0.288207
0.344967
0.404407
0.460608
0.510059
0.552696
0.588465
0.61737
0.640329
0.657314
0.414326
0.455901
0.501886
0.545635
0.585021
0.619771
0.649609
0.674085
0.693591
0.710468
0.520295
0.553772
0.593427
0.630453
0.664678
0.695298
0.721681
0.743281
0.759881
0.776752
0.617069
0.649254
0.686805
0.721884
0.75405
0.782811
0.80737
0.827029
0.841159
0.858151
0.717564
0.75262
0.791307
0.826746
0.858405
0.885889
0.908913
0.92696
0.939357
0.956783
0.835732
0.874495
0.914418
0.949785
0.980133
1.00572
1.02675
1.04313
1.05497
1.07309
0.982487
1.02181
1.05857
1.08991
1.11614
1.13875
1.15822
1.17406
1.18673
1.2048
1.15858
1.19081
1.21735
1.24014
1.26042
1.27942
1.29743
1.31412
1.32966
1.34778
1.34792
1.36535
1.38064
1.39711
1.41324
1.42792
1.44124
1.45532
1.47299
1.49322
1.5302
1.53974
1.5514
1.56233
1.57176
1.58151
1.59242
1.60384
1.61522
1.63059
1.73749
1.74119
1.72631
1.71166
1.70555
1.71126
1.72981
1.76019
1.79236
1.819
2.04398
1.9092
1.83269
1.7903
1.77275
1.77686
1.80423
1.86064
1.96338
2.18779
0.3082
0.306187
0.30176
0.293317
0.281338
0.269523
0.25965
0.252074
0.246698
0.243536
0.243028
0.245359
0.249953
0.256643
0.265513
0.276584
0.28887
0.299618
0.305611
0.308507
0.232105
0.23802
0.244556
0.249455
0.252316
0.252386
0.250038
0.246596
0.243358
0.241158
0.240818
0.242641
0.24577
0.249467
0.252706
0.254061
0.252631
0.248674
0.243113
0.236348
0.223375
0.225692
0.229501
0.233043
0.235601
0.237485
0.2386
0.238656
0.23791
0.237157
0.237159
0.238078
0.239302
0.239983
0.239569
0.238155
0.236046
0.233087
0.229275
0.226081
0.217509
0.218479
0.221025
0.224474
0.227397
0.229448
0.230822
0.231721
0.232225
0.232456
0.232721
0.233062
0.233146
0.232754
0.231851
0.230319
0.227942
0.224723
0.221548
0.219864
0.214673
0.215001
0.216579
0.219098
0.221549
0.223862
0.225824
0.22723
0.228148
0.22875
0.229156
0.229334
0.229094
0.228314
0.226881
0.224894
0.222615
0.220178
0.217993
0.217177
0.213999
0.214137
0.214854
0.216082
0.217387
0.218771
0.220072
0.221348
0.222474
0.223342
0.223882
0.223972
0.223599
0.222845
0.221896
0.220749
0.219507
0.218335
0.21734
0.216994
0.212544
0.212606
0.212998
0.213781
0.214737
0.215727
0.216875
0.218048
0.21911
0.220024
0.220669
0.22087
0.220637
0.220059
0.219225
0.218506
0.21771
0.216933
0.216384
0.216216
0.210123
0.210148
0.210337
0.21077
0.211307
0.212028
0.212847
0.213753
0.214737
0.215695
0.216464
0.216835
0.216819
0.216576
0.216257
0.215707
0.215372
0.214989
0.214739
0.214674
0.207141
0.207152
0.20728
0.207598
0.208053
0.208611
0.209292
0.210097
0.21102
0.212016
0.21294
0.213539
0.213788
0.213806
0.213683
0.213479
0.213246
0.213009
0.212867
0.212834
0.2038
0.203805
0.20389
0.204109
0.204448
0.204905
0.205512
0.20629
0.207249
0.208361
0.20949
0.210346
0.210842
0.211084
0.211167
0.211155
0.211094
0.211014
0.210968
0.210956
0.20009
0.200095
0.200157
0.200334
0.20062
0.201039
0.201627
0.202425
0.203462
0.204744
0.206146
0.207309
0.208087
0.208567
0.208848
0.208997
0.209063
0.209085
0.209094
0.209095
0.195992
0.195992
0.196062
0.196226
0.196505
0.196932
0.19756
0.198444
0.199641
0.201179
0.20293
0.204465
0.205535
0.206267
0.206734
0.207023
0.207195
0.207291
0.207339
0.20735
0.191481
0.191478
0.191553
0.191733
0.192041
0.192521
0.193241
0.194277
0.195711
0.197595
0.199797
0.201771
0.203207
0.204204
0.204869
0.205298
0.205565
0.205723
0.205804
0.205822
0.186506
0.186502
0.186589
0.186801
0.187163
0.187736
0.188602
0.189864
0.191628
0.193973
0.196749
0.199274
0.201137
0.202438
0.20332
0.203898
0.204263
0.204483
0.204595
0.204622
0.180965
0.180959
0.181067
0.181327
0.181775
0.182483
0.183557
0.185127
0.187331
0.190277
0.193781
0.196986
0.199359
0.201031
0.202168
0.202917
0.203393
0.203681
0.203828
0.203863
0.174721
0.174713
0.17485
0.175179
0.175744
0.176637
0.177992
0.179974
0.182757
0.186477
0.190903
0.194953
0.197954
0.200074
0.201518
0.202471
0.203077
0.203445
0.203632
0.203677
0.167585
0.167574
0.167752
0.168175
0.168899
0.17004
0.171769
0.174292
0.177828
0.182541
0.188131
0.193235
0.197012
0.199678
0.201495
0.202695
0.20346
0.203923
0.204159
0.204215
0.1593
0.159286
0.159519
0.16007
0.161009
0.162482
0.164706
0.167941
0.172455
0.178439
0.185496
0.19191
0.196642
0.199981
0.202255
0.203756
0.204715
0.205296
0.205592
0.205661
0.149514
0.149496
0.149807
0.150534
0.151765
0.153682
0.156567
0.160744
0.166532
0.174141
0.18304
0.191075
0.196984
0.201147
0.203982
0.205855
0.207053
0.207782
0.208153
0.208238
0.137745
0.137725
0.138149
0.139126
0.140754
0.143276
0.14705
0.152489
0.159942
0.169626
0.180823
0.190852
0.1982
0.203371
0.206895
0.209227
0.210725
0.211642
0.212109
0.212212
0.123322
0.123304
0.1239
0.125235
0.127419
0.130787
0.135828
0.142952
0.152576
0.164897
0.178935
0.191388
0.200479
0.206879
0.211249
0.21415
0.216024
0.217182
0.217777
0.217906
0.105253
0.105244
0.106119
0.107994
0.111002
0.11562
0.122409
0.131865
0.144362
0.160009
0.177507
0.192857
0.204032
0.21192
0.217332
0.220943
0.223289
0.224755
0.225519
0.225687
0.0819887
0.0820142
0.0833717
0.0861142
0.0904432
0.0969961
0.106375
0.119039
0.135291
0.155077
0.176705
0.195444
0.209064
0.218736
0.225438
0.229957
0.232918
0.234782
0.235768
0.235994
0.0510116
0.0511522
0.0533996
0.0576855
0.0642966
0.0739679
0.0872017
0.104326
0.125444
0.150272
0.176706
0.199301
0.215721
0.227498
0.235804
0.241524
0.24535
0.247797
0.249105
0.249407
0.00779871
0.00828102
0.0125582
0.0200927
0.0309438
0.0457765
0.0647496
0.0879252
0.115131
0.145878
0.177698
0.204526
0.224042
0.238233
0.248493
0.255814
0.260923
0.264366
0.266256
0.266652
-0.056005
-0.0537746
-0.0438122
-0.0292702
-0.0103851
0.0127003
0.039744
0.0706056
0.104981
0.142317
0.179889
0.21114
0.233915
0.250728
0.263234
0.272562
0.279472
0.284452
0.287466
0.287868
-0.132556
-0.128584
-0.110229
-0.0841104
-0.0546026
-0.0219719
0.0138402
0.0528537
0.0948898
0.139505
0.183803
0.220635
0.247853
0.26848
0.284431
0.296959
0.306975
0.314796
0.318387
0.32005
-0.210966
-0.200039
-0.172483
-0.136362
-0.097333
-0.0556205
-0.01125
0.0358197
0.0854621
0.137335
0.188372
0.230764
0.26227
0.286436
0.305473
0.320772
0.3332
0.343201
0.349415
0.3522
-0.268878
-0.256863
-0.224435
-0.181808
-0.135483
-0.0863205
-0.0345209
0.0197935
0.0764383
0.135047
0.192237
0.239393
0.274209
0.300712
0.321351
0.337673
0.350697
0.360995
0.367609
0.370527
-0.315037
-0.302708
-0.266911
-0.219786
-0.168328
-0.113555
-0.055759
0.00475105
0.0675997
0.132253
0.194884
0.246083
0.283474
0.311553
0.333109
0.349929
0.363167
0.373515
0.380235
0.383028
-0.352619
-0.340451
-0.302709
-0.25221
-0.196759
-0.13752
-0.0748601
-0.00915842
0.0591025
0.129246
0.196929
0.251802
0.291402
0.320746
0.342956
0.36004
0.373309
0.383569
0.390273
0.392955
-0.3849
-0.372933
-0.333783
-0.280754
-0.222145
-0.159239
-0.0924342
-0.0221702
0.0509676
0.126135
0.198486
0.256769
0.298422
0.328916
0.351703
0.369023
0.382342
0.392557
0.399301
0.401917
-0.413431
-0.401629
-0.361509
-0.306495
-0.245336
-0.179369
-0.109022
-0.034787
0.042723
0.12257
0.199465
0.261182
0.304936
0.336636
0.360056
0.37766
0.391067
0.401258
0.408041
0.410583
-0.439416
-0.427702
-0.386828
-0.330205
-0.266982
-0.198494
-0.125126
-0.0473474
0.0342044
0.118546
0.199965
0.265234
0.311243
0.344285
0.368441
0.386402
0.399951
0.410145
0.416969
0.419442
-0.463651
-0.451971
-0.410456
-0.352512
-0.287546
-0.216895
-0.140901
-0.0599733
0.0253028
0.113948
0.199927
0.268961
0.31748
0.352078
0.377126
0.395553
0.409305
0.419555
0.426358
0.428756
-0.486612
-0.474943
-0.432851
-0.37381
-0.307389
-0.234884
-0.156596
-0.0728652
0.0158386
0.108647
0.199263
0.272342
0.323694
0.360132
0.386284
0.405312
0.419347
0.429695
0.436509
0.438852
-0.508709
-0.49694
-0.454315
-0.394362
-0.326721
-0.252638
-0.172367
-0.0861324
0.00573155
0.102542
0.197869
0.275288
0.329849
0.368479
0.396003
0.415815
0.430253
0.440757
0.447581
0.449879
-0.530089
-0.518169
-0.475012
-0.414331
-0.345621
-0.270206
-0.188239
-0.0998133
-0.00507426
0.0955469
0.195617
0.277653
0.335835
0.377064
0.406304
0.427143
0.442128
0.452879
0.459717
0.461989
-0.55077
-0.538694
-0.495059
-0.433754
-0.364147
-0.28762
-0.204225
-0.113918
-0.0166016
0.0876037
0.192378
0.27927
0.341466
0.385754
0.417116
0.439296
0.455031
0.466127
0.473018
0.475305
-0.570858
-0.558548
-0.514566
-0.452651
-0.382285
-0.304865
-0.220299
-0.128407
-0.0288328
0.078697
0.188041
0.279939
0.346507
0.39432
0.428279
0.452175
0.468952
0.480578
0.487603
0.489786
-0.590247
-0.577787
-0.533433
-0.470964
-0.400001
-0.321871
-0.236386
-0.143216
-0.0417153
0.0688219
0.182555
0.279469
0.350671
0.402437
0.439541
0.465652
0.4838
0.496173
0.503421
0.50548
-0.608976
-0.596293
-0.551632
-0.48867
-0.417246
-0.338577
-0.252415
-0.15826
-0.0551684
0.058024
0.175879
0.277692
0.353614
0.409726
0.45059
0.479571
0.4995
0.512765
0.520211
0.522101
-0.626861
-0.614075
-0.569064
-0.505715
-0.43395
-0.354897
-0.268299
-0.173442
-0.0691031
0.0463914
0.168005
0.274449
0.354995
0.415735
0.460952
0.493587
0.516004
0.530384
0.537873
0.539436
-0.644023
-0.631086
-0.585729
-0.522058
-0.45005
-0.370779
-0.283934
-0.188667
-0.0834079
0.0340166
0.158989
0.26965
0.354559
0.41988
0.469879
0.507153
0.533248
0.549185
0.55614
0.55689
-0.660309
-0.64724
-0.601569
-0.537647
-0.465468
-0.386136
-0.299239
-0.203809
-0.0979685
0.0209963
0.148932
0.263346
0.352104
0.421467
0.476252
0.519193
0.550927
0.570261
0.575867
0.573729
-0.675782
-0.662541
-0.616546
-0.552423
-0.480175
-0.400905
-0.31413
-0.218783
-0.112658
0.00748907
0.13796
0.255587
0.347566
0.420071
0.478856
0.527873
0.567492
0.594618
0.602121
0.590941
-0.690384
-0.677002
-0.630752
-0.566508
-0.49435
-0.415341
-0.32893
-0.234
-0.12798
-0.00707712
0.125511
0.245798
0.34029
0.415255
0.476332
0.530184
0.57843
0.617642
0.630813
0.626537
-0.704125
-0.690535
-0.644183
-0.579877
-0.507993
-0.429458
-0.343614
-0.249462
-0.143956
-0.0227689
0.111471
0.233766
0.329764