/*--------------------------------*- C++ -*----------------------------------*\
  =========                 |
  \\      /  F ield         | OpenFOAM: The Open Source CFD Toolbox
   \\    /   O peration     | Website:  https://openfoam.org
    \\  /    A nd           | Version:  7
     \\/     M anipulation  |
\*---------------------------------------------------------------------------*/
FoamFile
{
    version     2.0;
    format      ascii;
    class       volScalarField;
    location    "57";
    object      p;
}
// * * * * * * * * * * * * * * * * * * * * * * * * * * * * * * * * * * * * * //

dimensions      [0 2 -2 0 0 0 0];

internalField   nonuniform List<scalar> 
8800
(
0.855966
0.808178
0.769489
0.740495
0.719632
0.704803
0.694211
0.686736
0.681924
0.679878
0.681159
0.68536
0.692013
0.701334
0.714117
0.731854
0.756632
0.790574
0.833125
0.891827
0.687215
0.694894
0.702369
0.705678
0.704175
0.699099
0.692614
0.686541
0.681824
0.678991
0.678724
0.681242
0.685741
0.691693
0.698466
0.704749
0.708391
0.707656
0.702237
0.693548
0.665619
0.671778
0.675905
0.67885
0.6809
0.681506
0.680402
0.678303
0.676295
0.6754
0.676376
0.678769
0.681576
0.683762
0.684373
0.683176
0.680836
0.677444
0.672886
0.669125
0.65981
0.662461
0.665212
0.667615
0.66925
0.670413
0.671157
0.67128
0.670993
0.670957
0.671724
0.672906
0.673754
0.673824
0.673218
0.67213
0.670315
0.667745
0.665343
0.663839
0.654432
0.655856
0.657635
0.659666
0.66145
0.662792
0.663783
0.664586
0.665211
0.66579
0.666458
0.666966
0.667074
0.666792
0.666099
0.664852
0.663158
0.661311
0.660004
0.659172
0.649358
0.650278
0.651519
0.653084
0.654716
0.656241
0.657529
0.658601
0.659576
0.660486
0.661193
0.661535
0.661502
0.661068
0.660191
0.658993
0.657667
0.656408
0.655586
0.655034
0.644456
0.645125
0.646086
0.647387
0.648795
0.650252
0.651693
0.653021
0.654231
0.655356
0.656197
0.65658
0.656505
0.656002
0.655199
0.654254
0.653242
0.652319
0.651735
0.651329
0.639677
0.640193
0.640975
0.642104
0.643379
0.644752
0.646198
0.647675
0.649114
0.650469
0.651497
0.651983
0.651968
0.651589
0.650989
0.650266
0.649494
0.64881
0.648376
0.648059
0.634952
0.635362
0.636016
0.63702
0.638223
0.639548
0.640993
0.642553
0.644185
0.645802
0.64707
0.647743
0.647917
0.647753
0.647372
0.646857
0.646287
0.645795
0.645472
0.645214
0.630194
0.630529
0.631094
0.632017
0.63317
0.634479
0.635959
0.637614
0.63943
0.641331
0.642912
0.643874
0.644318
0.644402
0.644247
0.643953
0.643574
0.64324
0.643001
0.642785
0.625316
0.625594
0.626097
0.626974
0.628108
0.629441
0.630991
0.632784
0.634824
0.637054
0.639028
0.640363
0.641133
0.641499
0.64159
0.641516
0.641326
0.641131
0.64096
0.640773
0.620231
0.620464
0.620928
0.621789
0.622944
0.624342
0.626006
0.627988
0.630318
0.632956
0.635413
0.637195
0.638345
0.639035
0.639402
0.639554
0.639552
0.639485
0.639369
0.639204
0.614848
0.615046
0.61549
0.616364
0.617581
0.619089
0.620921
0.623161
0.625859
0.629011
0.632054
0.634366
0.635961
0.637019
0.637692
0.638084
0.63829
0.638339
0.63827
0.638118
0.609067
0.609237
0.609678
0.610594
0.611914
0.613584
0.615652
0.618228
0.621395
0.625184
0.628937
0.631883
0.633999
0.63548
0.636502
0.637183
0.637589
0.637753
0.637723
0.637581
0.602773
0.602919
0.603373
0.60436
0.60583
0.607721
0.6101
0.613107
0.616866
0.621438
0.626051
0.629755
0.632489
0.634468
0.635884
0.636877
0.637513
0.637797
0.637804
0.637666
0.595829
0.59595
0.596431
0.597523
0.599194
0.601375
0.604154
0.607708
0.612202
0.617734
0.623389
0.627999
0.631466
0.634031
0.635913
0.637264
0.638156
0.638562
0.638603
0.638466
0.58806
0.588158
0.588682
0.589912
0.591843
0.594394
0.597684
0.601928
0.607336
0.614041
0.620952
0.626646
0.630978
0.634231
0.636671
0.638442
0.639618
0.640152
0.640225
0.640085
0.579238
0.579339
0.579917
0.581303
0.583565
0.586596
0.590537
0.59565
0.602193
0.610335
0.618756
0.625734
0.631088
0.63515
0.638251
0.64051
0.642006
0.642678
0.642781
0.642635
0.569059
0.569141
0.56981
0.571422
0.574115
0.577763
0.582529
0.588734
0.59669
0.606587
0.616819
0.625313
0.631866
0.636882
0.640739
0.643575
0.645437
0.646253
0.646384
0.646228
0.557157
0.557223
0.557991
0.559915
0.563165
0.567606
0.573428
0.581018
0.590734
0.602772
0.615166
0.625439
0.633389
0.63952
0.644253
0.647762
0.650023
0.650987
0.65114
0.650971
0.542987
0.543042
0.543952
0.546289
0.550274
0.555759
0.562958
0.572325
0.584245
0.598887
0.613841
0.626188
0.635741
0.643147
0.648904
0.653167
0.655857
0.656967
0.657135
0.656948
0.525788
0.52583
0.526954
0.529875
0.534867
0.541764
0.550799
0.562486
0.57719
0.594995
0.612939
0.627648
0.639015
0.647864
0.65476
0.659866
0.663
0.66424
0.664412
0.664205
0.504417
0.504458
0.505927
0.509724
0.516169
0.525055
0.536608
0.551353
0.569562
0.591165
0.612559
0.629915
0.6433
0.653749
0.66187
0.667893
0.671452
0.672788
0.672947
0.672718
0.477158
0.477218
0.47927
0.48448
0.493168
0.504975
0.520075
0.538888
0.561479
0.587575
0.612862
0.633112
0.648662
0.660825
0.670282
0.67721
0.681126
0.6825
0.682624
0.682373
0.44098
0.441138
0.444391
0.452209
0.464689
0.480952
0.501105
0.525256
0.553216
0.584496
0.614062
0.637372
0.65518
0.669126
0.67995
0.687693
0.691829
0.69315
0.693216
0.692946
0.390123
0.391089
0.397552
0.410721
0.429792
0.452948
0.480071
0.510975
0.545269
0.582313
0.616394
0.642833
0.662909
0.6786
0.690732
0.6991
0.703246
0.704411
0.704402
0.704118
0.315712
0.322921
0.337872
0.361051
0.389957
0.422341
0.45798
0.496655
0.537975
0.581288
0.620248
0.650082
0.672636
0.690255
0.703736
0.712604
0.716656
0.71765
0.717594
0.717346
0.235667
0.252751
0.276988
0.310839
0.349952
0.391706
0.43595
0.482621
0.531409
0.581721
0.626501
0.660603
0.686277
0.706278
0.721421
0.73067
0.734349
0.735081
0.735041
0.73489
0.168963
0.189097
0.221018
0.263927
0.312069
0.362656
0.415241
0.469745
0.525841
0.582951
0.633308
0.671415
0.700007
0.722088
0.73832
0.747552
0.750948
0.751602
0.751609
0.751507
0.114327
0.136112
0.173531
0.222853
0.278127
0.336159
0.39613
0.457837
0.520825
0.584426
0.640084
0.681948
0.713187
0.737055
0.754326
0.76378
0.767248
0.767965
0.767995
0.767929
0.0688193
0.0917875
0.132989
0.187405
0.248418
0.312605
0.378926
0.447039
0.51633
0.585994
0.646667
0.692085
0.725826
0.751466
0.769785
0.779924
0.783651
0.784294
0.784359
0.784322
0.0301811
0.0538235
0.0978836
0.156344
0.222182
0.291602
0.363436
0.43724
0.512278
0.587592
0.653007
0.701818
0.737981
0.765372
0.784808
0.795639
0.799661
0.800361
0.800449
0.80044
-0.00360429
0.0204852
0.0668144
0.128601
0.198513
0.272485
0.34921
0.428157
0.50848
0.589076
0.658977
0.711016
0.749481
0.778534
0.799022
0.810512
0.814888
0.815737
0.815874
0.815887
-0.0340248
-0.00953972
0.0386402
0.103273
0.176699
0.254662
0.335772
0.419405
0.504629
0.590207
0.664379
0.719493
0.760118
0.790662
0.812155
0.824231
0.828943
0.829991
0.830123
0.830133
-0.062036
-0.0371907
0.0125654
0.0796539
0.156176
0.237673
0.322724
0.410653
0.500462
0.590783
0.669076
0.727131
0.769781
0.801681
0.824037
0.836618
0.84161
0.842799
0.842932
0.842931
-0.0884318
-0.0631807
-0.0119236
0.0572328
0.136522
0.221169
0.309785
0.401668
0.495778
0.59065
0.672971
0.733907
0.778492
0.811667
0.83469
0.847642
0.852814
0.854093
0.854224
0.854207
-0.113582
-0.0879079
-0.0354523
0.035707
0.117433
0.204909
0.296755
0.392278
0.490432
0.589703
0.676013
0.73983
0.786314
0.820657
0.84426
0.857413
0.862667
0.86399
0.864093
0.864052
-0.137897
-0.111666
-0.0581837
0.0148083
0.0987093
0.188721
0.2835
0.382372
0.484325
0.587854
0.678162
0.74493
0.79335
0.828803
0.852872
0.866107
0.871382
0.872705
0.872784
0.872719
-0.161505
-0.134878
-0.0802232
-0.00562329
0.0802241
0.172512
0.269941
0.371888
0.477398
0.585046
0.679388
0.749242
0.79971
0.836298
0.860759
0.873976
0.879167
0.880427
0.880497
0.880411
-0.18454
-0.157389
-0.101711
-0.0256687
0.0619227
0.156243
0.256052
0.360797
0.469616
0.581226
0.679649
0.752798
0.805503
0.843305
0.868091
0.881161
0.886183
0.887344
0.887353
0.887242
-0.207127
-0.1794
-0.122726
-0.0453604
0.0437769
0.139908
0.241844
0.349114
0.460978
0.576363
0.678902
0.755591
0.810824
0.849979
0.875009
0.887777
0.892478
0.893474
0.893422
0.893286
-0.229285
-0.200899
-0.143297
-0.0647009
0.0258148
0.123535
0.22736
0.33688
0.451509
0.570434
0.677087
0.75758
0.815727
0.856493
0.88171
0.893938
0.898131
0.898886
0.898774
0.898621
-0.25086
-0.221848
-0.163358
-0.0836694
0.00806723
0.107187
0.212655
0.324164
0.441263
0.56346
0.674138
0.75869
0.820203
0.863005
0.88849
0.899913
0.90327
0.903645
0.903463
0.903309
-0.271831
-0.242225
-0.182897
-0.10222
-0.00941166
0.0909191
0.197817
0.311042
0.430316
0.555464
0.670003
0.758797
0.824172
0.869601
0.895739
0.906212
0.908219
0.907845
0.907539
0.907437
-0.292266
-0.261994
-0.201891
-0.12032
-0.0265611
0.0748129
0.182933
0.297615
0.418755
0.54651
0.664633
0.757752
0.827448
0.876188
0.903808
0.913711
0.913878
0.911885
0.911145
0.911324
-0.311994
-0.281133
-0.220285
-0.137912
-0.0433233
0.0589498
0.168094
0.283992
0.406696
0.536688
0.658013
0.755382
0.829747
0.882404
0.912663
0.923395
0.922225
0.917793
0.915091
0.914623
-0.33111
-0.299632
-0.238096
-0.155026
-0.0597313
0.0432871
0.153246
0.270116
0.394072
0.525925
0.650006
0.751412
0.830751
0.887716
0.921648
0.935514
0.935655
0.929333
0.921035
0.906941
-0.34954
-0.317477
-0.255441
-0.171859
-0.076068
0.0274972
0.137979
0.255514
0.380356
0.513596
0.639979
0.745074
0.829896
0.891391
0.929033
0.947835
0.949992
0.937526
0.917798
0.906035
-0.367107
-0.334802
-0.272127
-0.188209
-0.0919864
0.0119211
0.122519
0.240507
0.36585
0.499954
0.627989
0.735882
0.826341
0.892272
0.930585
0.949203
0.954131
0.93094
0.86322
0.832814
-0.383145
-0.352852
-0.287821
-0.203573
-0.106706
-0.00294093
0.107177
0.225321
0.350768
0.485117
0.613964
0.723514
0.818661
0.889695
0.921329
0.934476
0.923948
0.869804
0.800704
0.758186
-0.438813
-0.368779
-0.302076
-0.219067
-0.121837
-0.0185466
0.0918868
0.209675
0.334739
0.468621
0.597295
0.707311
0.802988
0.880566
0.885429
0.88816
0.838575
0.768225
0.691536
0.648849
-0.400229
-0.384165
-0.323379
-0.239476
-0.144184
-0.0409621
0.0684488
0.185574
0.30962
0.442038
0.568731
0.676985
0.764695
0.846872
0.833732
0.720323
0.614967
0.541642
0.468151
0.498647
-0.431248
-0.401847
-0.340122
-0.257025
-0.16174
-0.0586602
0.0510116
0.16749
0.290452
0.42104
0.544899
0.648929
0.727351
0.771154
0.72265
0.573594
0.445579
0.354046
0.2552
0.305241
-0.455155
-0.422815
-0.359838
-0.276566
-0.181177
-0.078197
0.0313905
0.14703
0.268578
0.396739
0.51686
0.61472
0.684295
0.693759
0.5872
0.414207
0.261382
0.142452
0.0112364
0.0440036
-0.478568
-0.44468
-0.380504
-0.296306
-0.200813
-0.0979756
0.0110931
0.125765
0.245708
0.371067
0.486526
0.576611
0.630911
0.609114
0.45063
0.254326
0.0640093
-0.10392
-0.292513
-0.310945
-0.501396
-0.467044
-0.401962
-0.316976
-0.221318
-0.118689
-0.0102617
0.103323
0.221406
0.343569
0.453659
0.535973
0.571017
0.513124
0.320768
0.110387
-0.106773
-0.29596
-0.537897
-0.836149
-0.524528
-0.490163
-0.424521
-0.339029
-0.243165
-0.140687
-0.0328276
0.0796373
0.195755
0.314462
0.418869
0.492984
0.507182
0.398208
0.207852
-0.00185716
-0.205983
-0.378149
-0.447241
-0.526431
-0.548927
-0.514486
-0.44853
-0.362786
-0.26685
-0.164615
-0.057412
0.053764
0.1676
0.282331
0.380707
0.443876
0.433274
0.29069
0.10759
-0.0831034
-0.245719
-0.338448
-0.362467
-0.378384
-0.574901
-0.540324
-0.474162
-0.38833
-0.292506
-0.190681
-0.0843715
0.0252175
0.136358
0.246475
0.338309
0.387517
0.359342
0.190954
0.0167716
-0.148831
-0.275166
-0.314082
-0.326948
-0.328275
-0.602655
-0.567855
-0.501483
-0.415657
-0.320082
-0.21889
-0.113724
-0.00604907
0.101965
0.206899
0.291252
0.326176
0.278798
0.0988921
-0.0661933
-0.214454
-0.290501
-0.307512
-0.308783
-0.30858
-0.632255
-0.597147
-0.530518
-0.444765
-0.349595
-0.249231
-0.14547
-0.0400479
0.0644347
0.163674
0.239656
0.26311
0.179777
0.0148257
-0.141886
-0.264017
-0.300587
-0.29887
-0.29785
-0.297213
-0.663416
-0.628017
-0.561167
-0.475568
-0.380957
-0.281648
-0.179577
-0.0767483
0.0238105
0.116901
0.184321
0.19083
0.0895068
-0.0634431
-0.201863
-0.276877
-0.287329
-0.29011
-0.290854
-0.290548
-0.695591
-0.660031
-0.593175
-0.507838
-0.413983
-0.315982
-0.215889
-0.116014
-0.019717
0.0669299
0.125696
0.117019
0.00814019
-0.129487
-0.24509
-0.276151
-0.284599
-0.286174
-0.286057
-0.285805
-0.728314
-0.692635
-0.626103
-0.541182
-0.448331
-0.351913
-0.254123
-0.15755
-0.0658578
0.0144361
0.0627676
0.046442
-0.0674214
-0.18271
-0.274792
-0.290742
-0.283061
-0.282249
-0.282283
-0.28213
-0.760693
-0.7251
-0.659059
-0.575019
-0.483457
-0.388968
-0.293829
-0.200869
-0.114136
-0.0399369
-0.00143934
-0.0194061
-0.135674
-0.223206
-0.273529
-0.285706
-0.282816
-0.28124
-0.280627
-0.280406
-0.791155
-0.756255
-0.691086
-0.608425
-0.5186
-0.426453
-0.334354
-0.245273
-0.163729
-0.0955505
-0.0604554
-0.0929282
-0.195988
-0.26252
-0.259042
-0.278554
-0.283828
-0.282037
-0.281183
-0.2807
-0.818103
-0.784302
-0.721058
-0.640205
-0.552731
-0.463444
-0.374837
-0.289904
-0.213463
-0.151461
-0.116897
-0.163921
-0.257094
-0.303904
-0.305389
-0.301262
-0.295162
-0.290949
-0.28935
-0.288504
-0.839421
-0.807347
-0.746985
-0.668967
-0.584586
-0.498797
-0.414201
-0.333733
-0.262136
-0.206192
-0.174533
-0.219769
-0.313025
-0.413707
-0.413115
-0.365474
-0.330177
-0.316975
-0.311604
-0.309018
-0.852876
-0.823517
-0.766873
-0.692873
-0.612676
-0.531232
-0.451242
-0.375565
-0.308663
-0.257698
-0.228117
-0.257555
-0.332391
-0.486666
-0.455225
-0.380865
-0.353005
-0.340036
-0.332735
-0.3307
-0.855847
-0.830563
-0.778844
-0.710097
-0.635332
-0.559359
-0.484689
-0.414199
-0.351837
-0.303962
-0.268106
-0.255223
-0.241668
-0.344125
-0.320493
-0.302766
-0.301079
-0.299767
-0.299607
-0.299537
-0.846152
-0.825786
-0.78073
-0.719055
-0.651103
-0.581754
-0.513302
-0.448403
-0.390506
-0.344924
-0.295519
-0.222943
-0.0447916
0.157636
0.0153646
-0.138294
-0.221354
-0.253238
-0.266408
-0.269683
-0.82175
-0.8064
-0.770706
-0.718541
-0.659023
-0.597405
-0.535951
-0.477105
-0.42439
-0.382427
-0.326383
-0.249285
-0.0155515
0.246989
0.0321143
-0.192141
-0.301738
-0.343837
-0.360617
-0.367426
-0.785151
-0.77525
-0.749544
-0.708687
-0.659047
-0.606028
-0.551996
-0.499401
-0.452757
-0.417128
-0.387432
-0.463054
-0.720774
-1.07458
-1.14639
-0.915981
-0.736774
-0.659397
-0.641402
-0.638693
-0.743025
-0.737432
-0.722085
-0.692247
-0.652986
-0.608257
-0.561281
-0.514546
-0.4724
-0.444543
-0.435955
-0.675831
-1.11212
-1.53845
-1.48569
-1.11636
-0.903842
-0.817777
-0.776541
-0.764396
-0.705147
-0.701823
-0.694512
-0.674606
-0.643631
-0.605769
-0.564375
-0.521221
-0.4806
-0.449315
-0.445366
-0.49527
-0.507018
-0.48226
-0.424344
-0.463498
-0.554764
-0.536709
-0.503166
-0.499889
-0.678198
-0.676175
-0.672598
-0.660086
-0.635218
-0.601543
-0.562841
-0.520159
-0.475971
-0.433439
-0.414713
-0.379911
-0.333566
-0.302397
-0.330085
-0.42316
-0.510003
-0.484757
-0.406079
-0.364032
-0.657724
-0.656969
-0.655881
-0.649696
-0.630277
-0.598755
-0.559437
-0.514696
-0.464986
-0.416433
-0.381093
-0.359236
-0.215571
-0.0332604
0.130649
0.216009
0.237341
0.244739
0.261097
0.275237
-0.646008
-0.645631
-0.645043
-0.642459
-0.628414
-0.597707
-0.555531
-0.505756
-0.450845
-0.388456
-0.327228
-0.264662
-0.0733978
0.187037
0.426228
0.594256
0.670599
0.717823
0.741971
0.749576
-0.638961
-0.638695
-0.63811
-0.637847
-0.629335
-0.598886
-0.552394
-0.496985
-0.43179
-0.355448
-0.274911
-0.177938
0.0405048
0.302935
0.537489
0.712333
0.843503
0.952866
1.02778
1.05825
-0.635146
-0.635361
-0.635909
-0.637428
-0.631978
-0.601878
-0.551164
-0.489285
-0.414802
-0.329337
-0.229132
-0.126632
0.111507
0.404767
0.689405
0.938293
1.13333
1.27444
1.35906
1.38967
-0.628951
-0.6299
-0.632159
-0.634882
-0.630572
-0.602247
-0.551576
-0.485129
-0.403246
-0.305378
-0.199948
-0.107712
0.116277
0.417809
0.751328
1.04853
1.2819
1.43115
1.50285
1.52379
-0.623784
-0.622914
-0.617842
-0.609301
-0.605008
-0.594767
-0.556502
-0.487827
-0.39855
-0.294136
-0.186336
-0.0803658
0.0819015
0.39038
0.686536
0.952003
1.16328
1.29126
1.34923
1.36443
-0.652068
-0.646491
-0.628424
-0.604313
-0.598818
-0.609371
-0.577929
-0.499171
-0.398527
-0.287429
-0.180171
-0.0743111
0.0536607
0.284806
0.541225
0.760197
0.928947
1.02668
1.06905
1.07885
-0.734286
-0.734273
-0.739052
-0.751262
-0.746469
-0.725997
-0.634524
-0.518223
-0.399314
-0.28318
-0.177787
-0.0814596
0.0124191
0.175736
0.380039
0.548437
0.679955
0.751908
0.78154
0.785927
-0.854003
-0.872534
-0.910415
-0.936664
-0.925672
-0.853314
-0.693015
-0.531013
-0.394255
-0.27584
-0.1791
-0.0994451
-0.0344594
0.0819454
0.232954
0.35933
0.455247
0.505485
0.524593
0.525579
-0.871898
-0.892258
-0.927343
-0.952674
-0.937913
-0.84797
-0.671305
-0.504749
-0.370112
-0.260233
-0.176383
-0.112992
-0.0665603
0.0109918
0.116388
0.205007
0.267976
0.300648
0.311308
0.312163
-0.681322
-0.702125
-0.735484
-0.762538
-0.752483
-0.668801
-0.540522
-0.41945
-0.316708
-0.230839
-0.1646
-0.1164
-0.0800211
-0.0301733
0.0312941
0.0839695
0.120241
0.136686
0.1425
0.141631
-0.35505
-0.367099
-0.388907
-0.412867
-0.421586
-0.397195
-0.350865
-0.296513
-0.243321
-0.191046
-0.146108
-0.110865
-0.0831866
-0.0519428
-0.0220875
-0.000731585
0.0108033
0.0145334
0.0151278
0.0146834
-0.0675434
-0.0727238
-0.086671
-0.110949
-0.140536
-0.165874
-0.17931
-0.179794
-0.168603
-0.148589
-0.126339
-0.104535
-0.0841497
-0.0703105
-0.0605871
-0.0565379
-0.0588781
-0.0625458
-0.063671
-0.0639202
0.0905476
0.087948
0.0777875
0.0542039
0.0160698
-0.0276349
-0.0655335
-0.0927433
-0.107627
-0.111977
-0.110029
-0.103611
-0.0941551
-0.0911301
-0.0901231
-0.0917116
-0.0962853
-0.0993784
-0.100062
-0.100246
0.143992
0.142156
0.13418
0.114486
0.0810876
0.0397885
-0.00143884
-0.0367413
-0.0636217
-0.0832245
-0.100177
-0.116438
-0.125554
-0.118644
-0.109627
-0.107458
-0.107607
-0.108924
-0.109146
-0.10951
0.146392
0.145009
0.139218
0.124852
0.100024
0.0677578
0.032378
-0.00157508
-0.0319869
-0.0601028
-0.092258
-0.136211
-0.159955
-0.141563
-0.12129
-0.110081
-0.105797
-0.104688
-0.104348
-0.104581
0.130982
0.130037
0.126144
0.116401
0.0991873
0.0757855
0.0482768
0.0198632
-0.00800523
-0.0369575
-0.0728511
-0.121821
-0.146726
-0.121069
-0.0988977
-0.0896662
-0.0873098
-0.0873036
-0.0872859
-0.0874376
0.112116
0.111543
0.109091
0.102815
0.091403
0.0752889
0.0554846
0.034027
0.0121651
-0.0102133
-0.0370891
-0.0696508
-0.0780201
-0.0613696
-0.0514171
-0.0507022
-0.0539064
-0.0563214
-0.0569001
-0.0568737
0.0944888
0.0942104
0.0927954
0.0889905
0.0817997
0.0713179
0.0581006
0.0436171
0.0294936
0.0171257
0.00825938
0.00199898
0.008943
0.0162657
0.0108715
0.00248605
-0.00484131
-0.00832172
-0.00904879
-0.00910458
0.0790629
0.0789403
0.078229
0.0761147
0.0719189
0.0656308
0.0577098
0.0494884
0.0431004
0.0422057
0.0521269
0.0722126
0.0982262
0.0909699
0.073847
0.0593491
0.0508902
0.0487155
0.0470714
0.0466469
0.0653037
0.0653103
0.0650539
0.0640716
0.061943
0.0586764
0.0547581
0.0515094
0.0515435
0.0599691
0.0838737
0.120223
0.152574
0.141719
0.120334
0.104868
0.0977705
0.0953889
0.0945772
0.0937909
0.0524042
0.0524913
0.0525134
0.0522596
0.0514944
0.050239
0.049058
0.0492417
0.0535369
0.0675062
0.0981513
0.139269
0.170862
0.160758
0.141919
0.131629
0.127699
0.126731
0.125353
0.124128
0.0398141
0.0399323
0.0400992
0.0402502
0.0402677
0.0402468
0.0406577
0.0427026
0.0488379
0.0643441
0.0946134
0.131857
0.15567
0.146607
0.134843
0.130377
0.131268
0.132012
0.13068
0.129446
0.0272119
0.0273065
0.02748
0.0278129
0.0282243
0.0287813
0.0298024
0.0323028
0.0381748
0.0515173
0.0762994
0.103918
0.118273
0.10959
0.105229
0.106992
0.111331
0.112721
0.111507
0.110371
0.0147844
0.0148446
0.0149818
0.0152812
0.015715
0.0162768
0.0171722
0.0189598
0.0228701
0.0312618
0.0465968
0.0632665
0.0689471
0.0623125
0.0623613
0.0668621
0.0717405
0.0742038
0.0730256
0.0717959
0.00274719
0.00276539
0.00276915
0.00283758
0.00307455
0.00321544
0.00336335
0.00363071
0.00410437
0.0050845
0.007196
0.0105203
0.0134786
0.0158838
0.0155549
0.016661
0.0172591
0.0129037
0.0128621
0.0133002
-0.0641089
0.102659
0.297377
0.467308
0.603069
0.709955
0.798327
0.87356
0.907836
0.884564
0.238297
0.358907
0.488669
0.6008
0.69529
0.773462
0.836754
0.881696
0.904193
0.916303
0.456938
0.539675
0.628371
0.706689
0.774039
0.830388
0.875209
0.907968
0.931665
0.94967
0.617599
0.676823
0.738396
0.795437
0.845051
0.88719
0.921813
0.949446
0.972223
0.990537
0.742946
0.786027
0.831959
0.875731
0.914407
0.948198
0.977129
1.00122
1.02159
1.03944
0.847211
0.880069
0.918164
0.95369
0.986308
1.01555
1.04111
1.0626
1.08045
1.0978
0.939726
0.968411
1.00237
1.0345
1.06444
1.09161
1.11536
1.13508
1.15059
1.16766
1.0283
1.0575
1.0915
1.12354
1.15314
1.17973
1.20259
1.22108
1.23445
1.25149
1.1236
1.15681
1.19345
1.22703
1.25707
1.28326
1.30521
1.32249
1.33436
1.35176
1.23859
1.27642
1.31506
1.34931
1.37865
1.4034
1.42377
1.43966
1.45113
1.4692
1.38353
1.42208
1.45821
1.4889
1.51458
1.53667
1.55573
1.57126
1.58369
1.60168
1.55861
1.59023
1.61641
1.63886
1.65883
1.67755
1.69527
1.71175
1.7271
1.74516
1.74722
1.76442
1.77946
1.79569
1.81159
1.82613
1.83933
1.85326
1.8708
1.89095
1.92894
1.93848
1.95002
1.96083
1.97011
1.97969
1.99048
2.00184
2.01321
2.02856
2.13618
2.13984
2.12489
2.11008
2.10381
2.10948
2.12796
2.15827
2.19045
2.2171
2.44249
2.30763
2.23099
2.18861
2.17119
2.17515
2.20255
2.25896
2.36158
2.58595
0.746564
0.744436
0.739952
0.731328
0.719104
0.706975
0.696747
0.688853
0.683238
0.679988
0.679637
0.68238
0.687486
0.69471
0.704099
0.715638
0.728289
0.739324
0.745436
0.74849
0.671017
0.676864
0.683197
0.687689
0.690159
0.689835
0.687098
0.683289
0.679782
0.677526
0.677383
0.679585
0.68325
0.68754
0.691347
0.69323
0.692294
0.688812
0.683649
0.677028
0.66259
0.664886
0.66829
0.671285
0.67336
0.674856
0.675612
0.675297
0.674274
0.673395
0.673574
0.675005
0.676822
0.678128
0.678308
0.677417
0.675868
0.673531
0.670267
0.667347
0.657077
0.658163
0.659995
0.662373
0.664396
0.665823
0.666844
0.667597
0.668001
0.668228
0.668723
0.669533
0.670132
0.670198
0.669785
0.668936
0.667465
0.66538
0.663294
0.661911
0.65187
0.652533
0.653641
0.655344
0.657125
0.658756
0.660051
0.661068
0.661953
0.662748
0.663481
0.664035
0.664229
0.664061
0.663493
0.662437
0.661007
0.659463
0.658144
0.657364
0.646891
0.647351
0.648136
0.649433
0.650919
0.652434
0.653898
0.655196
0.656334
0.657394
0.658314
0.658883
0.659028
0.658752
0.658052
0.65706
0.655933
0.654799
0.653883
0.653366
0.642057
0.642401
0.643011
0.644078
0.64537
0.646742
0.648179
0.649624
0.650998
0.652282
0.653396
0.654088
0.654263
0.653985
0.653382
0.652602
0.651749
0.65088
0.650207
0.649829
0.637316
0.637584
0.638076
0.638982
0.640149
0.641442
0.642834
0.644321
0.645862
0.647384
0.648735
0.649603
0.649901
0.649776
0.649379
0.648815
0.648162
0.647521
0.647029
0.64674
0.632585
0.632798
0.633207
0.634003
0.635089
0.636334
0.637715
0.639247
0.640917
0.642673
0.644307
0.645432
0.645965
0.646077
0.645906
0.645559
0.645111
0.64466
0.644306
0.64408
0.627779
0.62795
0.628301
0.629023
0.630062
0.631284
0.632691
0.634305
0.636129
0.638136
0.640107
0.641582
0.642431
0.642825
0.642901
0.642779
0.642541
0.64226
0.642022
0.641842
0.622809
0.622947
0.623256
0.623933
0.624955
0.626199
0.627672
0.629409
0.63144
0.633752
0.636135
0.638047
0.639276
0.639996
0.640352
0.640469
0.640439
0.640322
0.640181
0.640036
0.617586
0.617698
0.617979
0.618636
0.619675
0.620988
0.622569
0.624483
0.626787
0.629487
0.632379
0.634815
0.636493
0.637589
0.638263
0.638641
0.638818
0.638868
0.638813
0.638695
0.612017
0.612106
0.612371
0.613033
0.614125
0.615548
0.617292
0.619452
0.622106
0.625298
0.628816
0.631882
0.634089
0.635621
0.636649
0.637331
0.637745
0.637949
0.637968
0.637872
0.605995
0.606063
0.606321
0.607011
0.608194
0.609774
0.611745
0.614229
0.617332
0.62114
0.625422
0.629245
0.632081
0.634124
0.63556
0.636579
0.637252
0.637623
0.637713
0.637634
0.599393
0.599441
0.599701
0.60044
0.601755
0.603548
0.60582
0.608718
0.61239
0.616958
0.622172
0.626907
0.630492
0.633139
0.635053
0.636446
0.63742
0.63797
0.638131
0.638066
0.592059
0.59209
0.592353
0.593166
0.594657
0.596728
0.599385
0.602812
0.607197
0.612702
0.619048
0.624879
0.629353
0.632712
0.635192
0.637032
0.638346
0.63909
0.63932
0.639266
0.583803
0.58382
0.584086
0.584997
0.586719
0.589134
0.592287
0.596384
0.601659
0.60832
0.616041
0.623183
0.628712
0.632907
0.636056
0.638436
0.640133
0.641086
0.641387
0.641341
0.574315
0.574302
0.57463
0.575678
0.577687
0.580555
0.584342
0.589286
0.595677
0.603765
0.613152
0.621854
0.628628
0.633807
0.637739
0.640745
0.642885
0.644074
0.644447
0.644406
0.563315
0.563276
0.563648
0.564892
0.567271
0.570726
0.575318
0.581335
0.589125
0.598971
0.610372
0.620926
0.629158
0.635494
0.640347
0.644075
0.646726
0.648167
0.64861
0.648571
0.550325
0.55026
0.55071
0.552205
0.555068
0.55929
0.564927
0.572323
0.581879
0.593895
0.607716
0.620452
0.63038
0.63805
0.643977
0.648537
0.651761
0.653467
0.653977
0.653934
0.534704
0.534609
0.535183
0.537028
0.540541
0.545784
0.552808
0.562006
0.573817
0.58852
0.605235
0.620509
0.632377
0.641562
0.648722
0.654221
0.658075
0.660049
0.660613
0.660561
0.515514
0.515393
0.516167
0.518527
0.522956
0.529623
0.538542
0.550146
0.564863
0.582883
0.603021
0.621198
0.635249
0.646136
0.654644
0.661196
0.665712
0.667937
0.668534
0.668466
0.491366
0.491227
0.492332
0.495486
0.501295
0.510041
0.521645
0.536518
0.554986
0.577066
0.601195
0.62263
0.639081
0.651825
0.661788
0.669485
0.674648
0.677074
0.677674
0.67758
0.459952
0.459834
0.461547
0.466079
0.474181
0.486159
0.501702
0.521064
0.544332
0.571291
0.599971
0.62497
0.643975
0.658685
0.670196
0.679051
0.684766
0.687298
0.687855
0.687729
0.417144
0.417186
0.420235
0.427635
0.439981
0.457236
0.478605
0.504015
0.53327
0.565936
0.599643
0.628404
0.650032
0.666748
0.679815
0.689751
0.695828
0.698311
0.698773
0.698613
0.355226
0.356414
0.363869
0.377665
0.397761
0.423407
0.45298
0.486088
0.522421
0.561439
0.600466
0.633067
0.657308
0.675963
0.69047
0.701255
0.707439
0.709635
0.709929
0.709744
0.281743
0.283478
0.297747
0.32144
0.352406
0.387956
0.426484
0.467811
0.511748
0.557803
0.603023
0.640392
0.668044
0.689198
0.70551
0.717232
0.723429
0.725435
0.725694
0.725603
0.205878
0.212009
0.233089
0.266967
0.308297
0.353465
0.400921
0.450531
0.50217
0.555381
0.606984
0.6493
0.68048
0.704301
0.722608
0.735092
0.740918
0.742496
0.742685
0.742655
0.143816
0.15224
0.177876
0.218742
0.268182
0.321561
0.377062
0.434414
0.4934
0.553508
0.611244
0.658231
0.692685
0.718849
0.738596
0.751572
0.757365
0.758775
0.759026
0.759058
0.0933241
0.102343
0.131517
0.177604
0.233177
0.293174
0.355489
0.419695
0.485401
0.551969
0.615508
0.666919
0.704415
0.732747
0.753989
0.76756
0.773365
0.775119
0.775457
0.775533
0.0510329
0.0603359
0.0919594
0.142038
0.202646
0.26814
0.336233
0.406424
0.478165
0.550685
0.619676
0.675281
0.71569
0.746124
0.76877
0.783231
0.789542
0.791596
0.791965
0.792051
0.01459
0.0240093
0.0574782
0.110758
0.175522
0.245701
0.318828
0.394323
0.471534
0.549559
0.623677
0.683268
0.726461
0.75892
0.78298
0.798362
0.805293
0.807513
0.807933
0.808002
-0.017669
-0.0082063
0.0266809
0.0826632
0.150913
0.225131
0.302713
0.382985
0.465208
0.548354
0.627315
0.690692
0.736532
0.770874
0.796262
0.812515
0.820036
0.822453
0.822907
0.822972
-0.047018
-0.0375072
-0.00145427
0.0568704
0.128104
0.205859
0.287401
0.372001
0.458847
0.546812
0.630393
0.697398
0.745739
0.781809
0.808385
0.825352
0.833445
0.836047
0.836518
0.836566
-0.0743214
-0.0647551
-0.0276609
0.03265
0.106557
0.187443
0.272524
0.361064
0.452201
0.544728
0.632766
0.703296
0.754026
0.791736
0.819335
0.836888
0.845363
0.848105
0.848598
0.848625
-0.100135
-0.0905044
-0.0524402
0.00955985
0.0858813
0.169552
0.257823
0.349958
0.445081
0.541945
0.63433
0.708348
0.761427
0.800676
0.829202
0.847216
0.855841
0.858692
0.859193
0.859186
-0.124962
-0.115163
-0.0762484
-0.0126416
0.0658073
0.151963
0.243113
0.338528
0.437361
0.538355
0.635012
0.712545
0.768
0.808747
0.838082
0.856395
0.865103
0.867958
0.868461
0.868432
-0.149032
-0.139005
-0.099339
-0.0341815
0.0461518
0.134528
0.228274
0.326685
0.428955
0.533887
0.634758
0.715881
0.773811
0.816089
0.846161
0.864679
0.873368
0.876176
0.876639
0.87658
-0.17245
-0.162213
-0.121739
-0.0552098
0.02681
0.117181
0.213252
0.31438
0.419822
0.52848
0.633512
0.718358
0.778934
0.822851
0.853657
0.872272
0.880829
0.883528
0.883934
0.883855
-0.195377
-0.184835
-0.143602
-0.0757933
0.00773746
0.0998836
0.198031
0.301606
0.409953
0.522112
0.631225
0.719957
0.783427
0.829171
0.860719
0.879297
0.887621
0.890128
0.890442
0.890328
-0.217775
-0.206952
-0.164979
-0.0959681
-0.0110733
0.0826469
0.182641
0.288397
0.39937
0.514775
0.627858
0.720625
0.787317
0.835175
0.867525
0.885896
0.893772
0.895992
0.896188
0.89605
-0.239701
-0.228568
-0.185805
-0.115721
-0.0296037
0.065503
0.167121
0.274809
0.388123
0.506489
0.623374
0.720293
0.790578
0.840964
0.874293
0.892296
0.899438
0.901185
0.901234
0.901074
-0.260981
-0.249608
-0.206075
-0.135012
-0.0478071
0.048522
0.151536
0.260912
0.376285
0.497311
0.61775
0.718875
0.793126
0.846571
0.881276
0.898892
0.904913
0.905837
0.905637
0.905467
-0.281755
-0.270032
-0.225776
-0.153819
-0.0656524
0.0317419
0.135978
0.246787
0.363941
0.487318
0.610996
0.716265
0.794811
0.851907
0.88866
0.906259
0.910862
0.910297
0.909472
0.909292
-0.301858
-0.289817
-0.244877
-0.172097
-0.0830611
0.0152472
0.120527
0.232553
0.3512
0.476574
0.603148
0.712359
0.79543
0.856722
0.896372
0.915013
0.918597
0.915781
0.913256
0.912274
-0.321351
-0.309004
-0.263324
-0.189797
-0.0999963
-0.000893082
0.105267
0.218289
0.338174
0.465216
0.594273
0.707055
0.794745
0.860603
0.903879
0.925192
0.929663
0.925447
0.918925
0.91043
-0.34015
-0.32755
-0.281211
-0.207071
-0.116666
-0.0169503
0.0898671
0.203602
0.324421
0.452748
0.583844
0.699804
0.79226
0.863172
0.910486
0.936035
0.944316
0.940469
0.930214
0.924718
-0.358208
-0.34538
-0.298524
-0.223891
-0.133073
-0.0329193
0.0743408
0.188471
0.309893
0.439051
0.571663
0.690214
0.787185
0.863623
0.91418
0.943161
0.953834
0.954112
0.916351
0.864474
-0.375228
-0.361711
-0.315118
-0.240181
-0.149319
-0.0489533
0.0586359
0.173012
0.294646
0.424179
0.557652
0.678039
0.778407
0.86135
0.912727
0.937306