/*--------------------------------*- C++ -*----------------------------------*\
  =========                 |
  \\      /  F ield         | OpenFOAM: The Open Source CFD Toolbox
   \\    /   O peration     | Website:  https://openfoam.org
    \\  /    A nd           | Version:  7
     \\/     M anipulation  |
\*---------------------------------------------------------------------------*/
FoamFile
{
    version     2.0;
    format      ascii;
    class       volScalarField;
    location    "36";
    object      p;
}
// * * * * * * * * * * * * * * * * * * * * * * * * * * * * * * * * * * * * * //

dimensions      [0 2 -2 0 0 0 0];

internalField   nonuniform List<scalar> 
8800
(
0.941906
0.894117
0.855422
0.82642
0.805546
0.790699
0.780078
0.772567
0.767706
0.765592
0.766786
0.770918
0.777514
0.786793
0.799545
0.817261
0.842026
0.875958
0.9185
0.977201
0.773167
0.780845
0.788309
0.791613
0.790101
0.785011
0.778508
0.772406
0.767644
0.764747
0.7644
0.766833
0.771262
0.777163
0.783899
0.790154
0.793778
0.793032
0.7876
0.778902
0.751589
0.757748
0.76187
0.764805
0.766841
0.767428
0.766298
0.76416
0.762095
0.761118
0.762004
0.764315
0.767057
0.769194
0.769767
0.768542
0.76618
0.762772
0.758208
0.754445
0.745818
0.748467
0.751212
0.753605
0.755227
0.756367
0.75708
0.757158
0.756808
0.756683
0.757347
0.758438
0.759212
0.759224
0.758573
0.757449
0.755608
0.753018
0.750604
0.749099
0.740489
0.741912
0.743685
0.745706
0.747475
0.748794
0.749752
0.750504
0.751055
0.751533
0.752082
0.752482
0.752502
0.752149
0.751399
0.750107
0.748377
0.746503
0.745182
0.744351
0.735481
0.7364
0.737636
0.739192
0.740808
0.742309
0.74356
0.744575
0.745465
0.746256
0.746823
0.747035
0.746893
0.746371
0.745422
0.744165
0.742791
0.741496
0.740657
0.740108
0.730661
0.731329
0.732287
0.73358
0.734974
0.736408
0.737811
0.739078
0.740192
0.741178
0.741851
0.742074
0.741862
0.741243
0.740345
0.739321
0.738246
0.737276
0.736672
0.73627
0.725988
0.726503
0.727283
0.728406
0.72967
0.73102
0.732427
0.733839
0.735171
0.736362
0.737187
0.737475
0.737284
0.736755
0.736032
0.735206
0.734347
0.733605
0.733151
0.732838
0.721398
0.721806
0.722461
0.723463
0.724656
0.725958
0.727359
0.728846
0.730358
0.731784
0.732806
0.733231
0.733184
0.732832
0.732294
0.731647
0.730966
0.730399
0.730052
0.729801
0.716812
0.717143
0.717709
0.718637
0.719783
0.721068
0.722495
0.724058
0.725723
0.727394
0.728679
0.729346
0.729529
0.729383
0.729031
0.728566
0.728043
0.727618
0.727353
0.727146
0.712159
0.71243
0.712937
0.713822
0.714954
0.716261
0.717751
0.719432
0.721288
0.723243
0.724863
0.725844
0.726297
0.72638
0.726224
0.725933
0.725561
0.725254
0.725055
0.724881
0.707363
0.707587
0.708055
0.70893
0.710087
0.711463
0.713062
0.71492
0.717036
0.719342
0.721379
0.722737
0.723495
0.723829
0.723882
0.723758
0.723532
0.723327
0.72318
0.723032
0.702356
0.70254
0.702987
0.70388
0.705105
0.706588
0.708349
0.710446
0.712906
0.715675
0.718214
0.720008
0.721119
0.72174
0.722025
0.722076
0.721992
0.721881
0.721781
0.721652
0.697065
0.697217
0.697658
0.698594
0.699922
0.701555
0.703522
0.705918
0.708797
0.712135
0.715299
0.717635
0.719186
0.720155
0.720709
0.720962
0.721014
0.720994
0.720936
0.720824
0.691405
0.691526
0.691973
0.692971
0.694435
0.696268
0.698521
0.701304
0.704701
0.708733
0.712666
0.715676
0.717763
0.719129
0.71998
0.720479
0.720701
0.720776
0.720757
0.720656
0.685259
0.685344
0.685811
0.686904
0.688558
0.690657
0.69328
0.696577
0.70067
0.705588
0.710457
0.714254
0.716941
0.718778
0.719991
0.720738
0.721149
0.721327
0.721351
0.72126
0.678501
0.678573
0.679053
0.680248
0.682117
0.684534
0.687604
0.69151
0.696427
0.702427
0.708446
0.713228
0.716707
0.719152
0.720811
0.721894
0.722532
0.722828
0.722894
0.722809
0.670872
0.670929
0.671466
0.67278
0.674921
0.677748
0.681397
0.6861
0.692071
0.699406
0.706843
0.712809
0.717184
0.720334
0.722581
0.724089
0.725013
0.725451
0.725559
0.725475
0.662125
0.662158
0.662757
0.664253
0.66674
0.670096
0.674486
0.680205
0.687519
0.696534
0.705669
0.713037
0.718512
0.722519
0.72545
0.727458
0.728731
0.72934
0.729491
0.729402
0.651799
0.651821
0.652505
0.654239
0.657171
0.661206
0.666544
0.673545
0.682515
0.693573
0.704805
0.713889
0.720688
0.725716
0.729471
0.732104
0.733802
0.734601
0.734788
0.734684
0.639248
0.639271
0.640094
0.642184
0.645758
0.650746
0.657381
0.666098
0.677228
0.690844
0.704553
0.715605
0.723914
0.730122
0.734781
0.738119
0.740275
0.741268
0.741488
0.741363
0.623617
0.623647
0.624692
0.627336
0.631841
0.638154
0.646547
0.657516
0.671373
0.688112
0.704782
0.718155
0.728203
0.735757
0.741456
0.745585
0.748226
0.749412
0.74966
0.749509
0.603743
0.603787
0.605188
0.60871
0.614629
0.622875
0.63375
0.647756
0.665109
0.685641
0.705758
0.721742
0.73374
0.742775
0.749651
0.754625
0.75776
0.759131
0.759401
0.759222
0.577875
0.577955
0.579978
0.58495
0.593136
0.604263
0.618677
0.636735
0.658476
0.683534
0.707585
0.726488
0.740639
0.751337
0.75945
0.765372
0.769019
0.770556
0.770832
0.770621
0.543086
0.543296
0.546588
0.554206
0.566177
0.581769
0.601212
0.624605
0.651745
0.682057
0.710484
0.732541
0.749
0.761482
0.770992
0.777913
0.782062
0.783716
0.783971
0.783723
0.493665
0.494751
0.501361
0.514381
0.532876
0.555307
0.581675
0.611821
0.645347
0.681549
0.714672
0.740024
0.758879
0.773216
0.784239
0.792199
0.796784
0.798489
0.798683
0.798391
0.420503
0.427993
0.443307
0.466437
0.494614
0.52615
0.560999
0.598962
0.639644
0.682343
0.720639
0.749683
0.771278
0.787824
0.80066
0.80982
0.815
0.816886
0.817107
0.816865
0.341771
0.359131
0.383875
0.417632
0.455915
0.496772
0.540224
0.586262
0.634593
0.684628
0.729243
0.76313
0.788467
0.808036
0.823326
0.834195
0.840119
0.842171
0.842455
0.842389
0.276524
0.296785
0.329353
0.371955
0.419118
0.468746
0.520523
0.57444
0.630233
0.687333
0.737927
0.776329
0.805122
0.827348
0.84447
0.856369
0.862847
0.865479
0.865798
0.865804
0.22317
0.245151
0.283046
0.33194
0.386119
0.443065
0.502169
0.5633
0.626056
0.689828
0.746007
0.788485
0.820199
0.844452
0.862889
0.875897
0.883543
0.886068
0.886486
0.886552
0.178914
0.201917
0.243406
0.297262
0.357084
0.420058
0.485431
0.552939
0.622031
0.691949
0.753255
0.799349
0.833514
0.859429
0.879077
0.892936
0.90113
0.90403
0.904637
0.90474
0.141302
0.164895
0.209107
0.266795
0.331239
0.399326
0.470145
0.543305
0.61812
0.693671
0.759642
0.808938
0.845201
0.872475
0.893025
0.907545
0.91619
0.919543
0.920298
0.920413
0.108378
0.13236
0.178657
0.239452
0.307742
0.380236
0.455864
0.534111
0.614164
0.69491
0.765172
0.817323
0.855359
0.883711
0.904923
0.919898
0.928851
0.932527
0.933418
0.933535
0.0786346
0.102991
0.15092
0.21432
0.285908
0.362227
0.442148
0.525028
0.609922
0.695538
0.769822
0.824619
0.864235
0.893505
0.915214
0.930527
0.939663
0.943568
0.944499
0.944593
0.0511114
0.0758237
0.125156
0.19076
0.265189
0.344878
0.428653
0.515771
0.605188
0.69543
0.773591
0.830938
0.872066
0.902192
0.92435
0.939884
0.949162
0.953146
0.954103
0.954147
0.0250048
0.050128
0.100881
0.16829
0.245212
0.327881
0.41513
0.506143
0.599799
0.694484
0.776469
0.836382
0.879053
0.910041
0.932653
0.948378
0.957683
0.96168
0.962711
0.962752
-2.88865e-05
0.0255357
0.0772936
0.146593
0.225698
0.311031
0.401418
0.49601
0.593646
0.69263
0.77845
0.841037
0.885366
0.917311
0.94042
0.956343
0.965679
0.969614
0.9706
0.970622
-0.0243919
0.00174397
0.0544952
0.12541
0.206467
0.294188
0.387416
0.485291
0.586655
0.689802
0.779521
0.844958
0.891129
0.92417
0.947867
0.964033
0.973393
0.977271
0.978126
0.978086
-0.048198
-0.0215772
0.0322791
0.104618
0.187428
0.277284
0.373072
0.473949
0.578789
0.685963
0.779655
0.848168
0.896418
0.93073
0.955119
0.971557
0.980896
0.984642
0.985388
0.985264
-0.0715436
-0.0443504
0.0104968
0.0841502
0.168544
0.260304
0.358383
0.461977
0.570037
0.681074
0.778789
0.850631
0.90125
0.937056
0.962237
0.978942
0.988181
0.991713
0.992306
0.992119
-0.0945088
-0.0666861
-0.0109014
0.0639904
0.149803
0.243263
0.343381
0.449413
0.560414
0.675104
0.776845
0.852263
0.905615
0.943202
0.969292
0.98622
0.995248
0.998464
0.998896
0.998663
-0.117084
-0.0885734
-0.0318638
0.0441584
0.131247
0.226201
0.328122
0.43631
0.549957
0.668035
0.773746
0.852964
0.909449
0.949211
0.976394
0.993445
1.00205
1.00483
1.00508
1.00481
-0.139099
-0.10994
-0.0523461
0.0246968
0.112921
0.209192
0.312674
0.422751
0.538735
0.659899
0.769429
0.852603
0.912616
0.955089
0.983725
1.00081
1.00863
1.01073
1.01077
1.01049
-0.160516
-0.130743
-0.0723195
0.00566305
0.0948898
0.192301
0.297135
0.408823
0.526835
0.650738
0.763852
0.851023
0.914926
0.960748
0.991507
1.00876
1.01527
1.01618
1.0159
1.01565
-0.181394
-0.150936
-0.0917413
-0.0129023
0.07722
0.175614
0.281594
0.394635
0.51436
0.640628
0.756979
0.84808
0.916117
0.96592
0.999839
1.01807
1.02297
1.02166
1.02048
1.02048
-0.201549
-0.170489
-0.110546
-0.030929
0.0599732
0.159214
0.26615
0.380303
0.501434
0.629677
0.748821
0.843635
0.915878
0.970091
1.00836
1.02943
1.0339
1.02964
1.02587
1.02505
-0.22107
-0.189384
-0.128748
-0.0484416
0.0431176
0.143055
0.250744
0.365765
0.487986
0.617813
0.739251
0.837424
0.913872
0.972543
1.01601
1.04245
1.05002
1.04568
1.03561
1.01937
-0.239879
-0.207612
-0.146464
-0.0656315
0.0263613
0.1268
0.234956
0.350531
0.473467
0.604376
0.727586
0.828597
0.909424
0.972186
1.02032
1.05351
1.06521
1.05494
1.03664
1.02095
-0.257795
-0.225294
-0.163504
-0.082263
0.01001
0.110798
0.219013
0.334933
0.458197
0.589655
0.713969
0.816793
0.901963
0.967949
1.01626
1.04925
1.06453
1.0448
0.975167
0.942846
-0.274154
-0.243613
-0.17954
-0.0977463
-0.0052119
0.0955474
0.203216
0.319199
0.4424
0.57379
0.698385
0.801807
0.890357
0.959629
0.999705
1.02483
1.02414
0.973586
0.903211
0.859476
-0.330436
-0.259733
-0.194289
-0.113153
-0.0207827
0.0796284
0.187503
0.303058
0.425722
0.556357
0.680293
0.783227
0.871153
0.947512
0.952888
0.964948
0.926768
0.861336
0.785115
0.742325
-0.291667
-0.275604
-0.215902
-0.134932
-0.0434419
0.0567151
0.163579
0.278312
0.399723
0.528491
0.649753
0.7502
0.82949
0.906891
0.901685
0.796561
0.694599
0.623577
0.55081
0.584656
-0.323083
-0.293616
-0.232959
-0.152637
-0.0610728
0.038757
0.145803
0.259823
0.380044
0.506798
0.624912
0.72116
0.792691
0.833037
0.788543
0.645756
0.519831
0.429809
0.330849
0.384099
-0.347301
-0.314877
-0.252927
-0.172315
-0.0806648
0.0190227
0.125924
0.239032
0.357741
0.481934
0.596133
0.686635
0.748482
0.757189
0.654989
0.483431
0.330492
0.211193
0.0799804
0.114619
-0.371014
-0.337009
-0.273834
-0.192352
-0.100515
-0.000959232
0.105403
0.217478
0.334492
0.455792
0.565285
0.64934
0.695949
0.673491
0.518629
0.322047
0.129861
-0.0430082
-0.236446
-0.249997
-0.394069
-0.359633
-0.295544
-0.213298
-0.121232
-0.0218563
0.083856
0.194797
0.309884
0.42795
0.532189
0.608945
0.638097
0.580975
0.389155
0.177216
-0.0435412
-0.239075
-0.488962
-0.802279
-0.417404
-0.382964
-0.318331
-0.235558
-0.143247
-0.0439928
0.061149
0.170941
0.284019
0.398643
0.49745
0.565807
0.577096
0.469499
0.276966
0.0654749
-0.142315
-0.318903
-0.386344
-0.47525
-0.441932
-0.407451
-0.342524
-0.259473
-0.167047
-0.0679966
0.0364896
0.144972
0.255742
0.36643
0.459398
0.517666
0.504306
0.362701
0.177957
-0.0138515
-0.178177
-0.27196
-0.296092
-0.312838
-0.467975
-0.433416
-0.368288
-0.285122
-0.192754
-0.0940629
0.00954134
0.116426
0.224485
0.330605
0.417228
0.46267
0.430692
0.263397
0.0883939
-0.0771561
-0.204825
-0.243358
-0.257944
-0.259346
-0.495737
-0.461015
-0.395681
-0.312485
-0.220303
-0.122179
-0.0196903
0.0852776
0.190205
0.291177
0.37063
0.402681
0.353334
0.170446
0.00506561
-0.142567
-0.220924
-0.237631
-0.239512
-0.239576
-0.52526
-0.490255
-0.424712
-0.341541
-0.249688
-0.152308
-0.0511799
0.051546
0.15293
0.248234
0.319503
0.340214
0.25586
0.0843913
-0.0726734
-0.193759
-0.228069
-0.23022
-0.23078
-0.230326
-0.556248
-0.521056
-0.455258
-0.372185
-0.280797
-0.184366
-0.0848587
0.0153022
0.112727
0.201885
0.264527
0.268312
0.161182
0.00360712
-0.136058
-0.214134
-0.223504
-0.225904
-0.226654
-0.226528
-0.588119
-0.552816
-0.487061
-0.404178
-0.313414
-0.218156
-0.120527
-0.0232629
0.0698365
0.152432
0.206488
0.192283
0.0732162
-0.0683335
-0.185567
-0.211429
-0.223396
-0.225464
-0.224847
-0.224554
-0.620431
-0.585042
-0.519642
-0.437111
-0.347163
-0.253315
-0.157849
-0.0637886
0.024647
0.100566
0.144911
0.117282
-0.014859
-0.135696
-0.219606
-0.250637
-0.234091
-0.227169
-0.225585
-0.224975
-0.652332
-0.617148
-0.552131
-0.470329
-0.381472
-0.289317
-0.196301
-0.105701
-0.0222416
0.047158
0.0809802
0.0458761
-0.102301
-0.204937
-0.235993
-0.234641
-0.239182
-0.238991
-0.236364
-0.234766
-0.682245
-0.647963
-0.583654
-0.502928
-0.415539
-0.325401
-0.235139
-0.148194
-0.0698672
-0.00689271
0.0198339
-0.0304408
-0.184646
-0.307028
-0.302259
-0.300812
-0.273955
-0.254785
-0.248112
-0.246152
-0.708735
-0.675323
-0.613135
-0.533784
-0.448311
-0.360565
-0.273384
-0.190258
-0.116824
-0.0604701
-0.0354602
-0.10632
-0.259443
-0.428284
-0.444665
-0.376189
-0.318141
-0.287201
-0.276031
-0.272225
-0.729798
-0.698208
-0.63839
-0.561495
-0.478489
-0.393603
-0.309809
-0.230665
-0.161613
-0.111637
-0.0858938
-0.160507
-0.292574
-0.48361
-0.570007
-0.456739
-0.413538
-0.393757
-0.376848
-0.366643
-0.743446
-0.714476
-0.657928
-0.584262
-0.50454
-0.423106
-0.343014
-0.267934
-0.202864
-0.157739
-0.130115
-0.181422
-0.224387
-0.298641
-0.399703
-0.46381
-0.527497
-0.538528
-0.522526
-0.516611
-0.747223
-0.722155
-0.669939
-0.600415
-0.524772
-0.447502
-0.371476
-0.300421
-0.239342
-0.196517
-0.162918
-0.191438
-0.116982
-0.0268807
-0.178827
-0.391175
-0.514586
-0.542869
-0.554337
-0.55863
-0.739474
-0.719014
-0.672444
-0.608422
-0.537744
-0.465211
-0.393546
-0.326443
-0.269479
-0.228735
-0.198131
-0.267354
-0.250022
0.0235685
-0.0572256
-0.40963
-0.632676
-0.652076
-0.659497
-0.660717
-0.718254
-0.702306
-0.663906
-0.607182
-0.542462
-0.475032
-0.407681
-0.344058
-0.29061
-0.255402
-0.252901
-0.424318
-0.704886
-0.87664
-1.0623
-1.21739
-1.15171
-0.965101
-0.842699
-0.852435
-0.685296
-0.67459
-0.644772
-0.596886
-0.538771
-0.476445
-0.412804
-0.351413
-0.298276
-0.26546
-0.278675
-0.551879
-1.27195
-2.37203
-2.95574
-3.13107
-2.84964
-2.35488
-1.94695
-1.76026
-0.645701
-0.639502
-0.618987
-0.579743
-0.528181
-0.469972
-0.408584
-0.347031
-0.290361
-0.250162
-0.266512
-0.485205
-1.02096
-1.60858
-2.02756
-2.13193
-1.96423
-1.68265
-1.41915
-1.28717
-0.606892
-0.603421
-0.5917
-0.560502
-0.513556
-0.457859
-0.396369
-0.331005
-0.26636
-0.205944
-0.169357
-0.168904
-0.134139
0.0643353
0.347324
0.664444
0.933189
1.1216
1.24308
1.29447
-0.575416
-0.573341
-0.567372
-0.543664
-0.500125
-0.443643
-0.379497
-0.30725
-0.228433
-0.141315
-0.0411264
0.0943338
0.431872
0.988612
1.60417
2.15428
2.55017
2.77224
2.86147
2.88571
-0.548195
-0.547516
-0.545999
-0.530536
-0.490085
-0.431498
-0.362396
-0.283713
-0.193439
-0.0916303
0.0258573
0.146103
0.444935
0.984126
1.55491
2.05515
2.41319
2.62188
2.71884
2.74694
-0.527066
-0.526813
-0.526805
-0.517886
-0.481901
-0.42159
-0.347607
-0.26399
-0.170545
-0.0648733
0.0413634
0.155992
0.336158
0.797071
1.26968
1.67244
1.97716
2.15614
2.23638
2.25837
-0.508185
-0.507215
-0.50701
-0.503685
-0.473225
-0.411566
-0.33411
-0.248253
-0.15609
-0.0539985
0.046679
0.149448
0.27778
0.591134
0.966405
1.26925
1.4928
1.62202
1.68166
1.69819
-0.498425
-0.497327
-0.498142
-0.496316
-0.465263
-0.399009
-0.317963
-0.23183
-0.142025
-0.0446315
0.0470553
0.133224
0.21802
0.425602
0.689499
0.90655
1.0685
1.16116
1.20138
1.21159
-0.491372
-0.493753
-0.498185
-0.493812
-0.454205
-0.378749
-0.294038
-0.210165
-0.12673
-0.0400366
0.0391875
0.106705
0.169762
0.307371
0.487334
0.634181
0.743535
0.808209
0.837329
0.842358
-0.445912
-0.451291
-0.45923
-0.450995
-0.407377
-0.333471
-0.255576
-0.18116
-0.109006
-0.035251
0.0326867
0.0886245
0.142004
0.224565
0.344425
0.443823
0.514293
0.554663
0.570743
0.572809
-0.323931
-0.329631
-0.335333
-0.329348
-0.298427
-0.249604
-0.195895
-0.141008
-0.0857751
-0.0273268
0.0263766
0.0701354
0.112256
0.163147
0.238644
0.303884
0.350646
0.377722
0.388889
0.389528
-0.164377
-0.167276
-0.171559
-0.172693
-0.16437
-0.147883
-0.123723
-0.094058
-0.0588172
-0.0179715
0.0203931
0.0529917
0.0849405
0.114464
0.160651
0.204957
0.235848
0.25417
0.260495
0.259898
-0.0340598
-0.0354056
-0.0394034
-0.0473341
-0.0566186
-0.0616063
-0.0596636
-0.0500219
-0.0322872
-0.00764404
0.0171038
0.0386701
0.0583947
0.0763685
0.104641
0.133233
0.154494
0.166246
0.170547
0.169419
0.0410434
0.0403508
0.0365334
0.0265199
0.0111141
-0.00342112
-0.0127725
-0.0150108
-0.00967647
0.00213636
0.0150795
0.0247968
0.0315973
0.0420274
0.0627341
0.0833134
0.0976418
0.104862
0.106943
0.105607
0.0721505
0.0715724
0.0683443
0.0595424
0.0452959
0.0301123
0.0176083
0.00988125
0.00801493
0.0110506
0.0142167
0.0132108
0.00920544
0.0140299
0.0313094
0.0474341
0.0578877
0.062448
0.0634862
0.0623783
0.0792831
0.0787981
0.0764187
0.0700309
0.0592852
0.0468082
0.0352338
0.0264629
0.0213823
0.0193916
0.0164498
0.00820129
-0.00259367
0.00110263
0.0162571
0.0291031
0.0361931
0.0388296
0.0392554
0.0382849
0.076097
0.0757033
0.074083
0.0699219
0.0627042
0.0537395
0.0446496
0.0369391
0.0314512
0.0279809
0.0232047
0.0130963
0.00070465
0.00564777
0.0192265
0.028212
0.0320414
0.0326007
0.032364
0.0316713
0.0697454
0.0694278
0.0683552
0.0658121
0.0613098
0.0554002
0.0490396
0.0433768
0.0392613
0.0374315
0.0351183
0.0292853
0.0232395
0.0302883
0.03977
0.0435282
0.0438703
0.0431922
0.0427636
0.0421678
0.0633913
0.0631453
0.0624339
0.0609068
0.0582528
0.054578
0.0504974
0.0469112
0.0448426
0.0454985
0.0495374
0.0537971
0.0577669
0.0653171
0.0687157
0.0689389
0.0681388
0.0674707
0.06704
0.0661778
0.0579198
0.057743
0.0572573
0.0562606
0.0546821
0.0524531
0.049957
0.0480708
0.0479873
0.0521035
0.063472
0.0805087
0.097061
0.102864
0.0995916
0.0961844
0.0953273
0.0961959
0.0960628
0.0949705
0.0531144
0.052981
0.0526191
0.0518273
0.0506575
0.0493228
0.0477661
0.0468037
0.0478544
0.0540611
0.0708112
0.0986276
0.125303
0.129411
0.119636
0.113837
0.114457
0.116511
0.116753
0.115359
0.04859
0.0485027
0.0482643
0.0475956
0.0465632
0.0452565
0.0441049
0.0431523
0.0439702
0.0494336
0.0659794
0.0969863
0.128065
0.129154
0.116116
0.112972
0.115147
0.118918
0.118284
0.116246
0.0439323
0.043857
0.0436764
0.0430827
0.0421631
0.0408092
0.0389777
0.037599
0.0365362
0.0377589
0.0467919
0.0677722
0.0915316
0.0883205
0.0767001
0.0762877
0.0832414
0.0878797
0.0867833
0.0848037
0.0390733
0.0390264
0.0389423
0.0385785
0.0374691
0.0361352
0.0339828
0.0308089
0.0266278
0.0209635
0.0145795
0.0126543
0.0120611
0.00466165
0.00338951
0.0108829
0.0192913
0.0220126
0.0208697
0.0193941
0.0336644
0.0336174
0.0334965
0.0333928
0.0328485
0.0314455
0.0291075
0.0249434
0.0178376
0.00403517
-0.0210767
-0.0576577
-0.0962714
-0.101626
-0.0884147
-0.0734457
-0.0669395
-0.0650731
-0.0661367
-0.0673951
0.0280756
0.0279809
0.0280012
0.0279824
0.0278126
0.0269571
0.0247796
0.0204873
0.011905
-0.00683377
-0.0446618
-0.112818
-0.177502
-0.179969
-0.160729
-0.15429
-0.158482
-0.161672
-0.159959
-0.159386
0.0227557
0.0226919
0.0228836
0.0233005
0.0236841
0.0236384
0.0227979
0.0195887
0.0115637
-0.0062668
-0.0469589
-0.111392
-0.175306
-0.17971
-0.179004
-0.195643
-0.21661
-0.225032
-0.22249
-0.220756
0.0167086
0.0166531
0.0171189
0.0178908
0.0189762
0.0204096
0.0209937
0.0197372
0.0156064
0.0036951
-0.0215076
-0.0689189
-0.109669
-0.124643
-0.144266
-0.18023
-0.212981
-0.225475
-0.221372
-0.217688
0.00943826
0.00926622
0.00953151
0.010745
0.0126179
0.0142319
0.0156655
0.0169814
0.0169859
0.0156923
0.00537668
-0.0143946
-0.0296606
-0.0496226
-0.0788253
-0.109721
-0.13171
-0.138831
-0.138427
-0.136026
0.00270747
0.0024597
0.00199367
0.0013476
0.000861612
0.000670066
0.00088583
0.00142376
0.00263773
0.00477748
0.0101736
0.0174782
0.0172973
0.00526106
-0.00998845
-0.0173611
-0.0219352
-0.0249199
-0.023501
-0.0221102
-5.00813e-05
0.174576
0.378605
0.554861
0.696604
0.809367
0.903232
0.982617
1.01819
0.995019
0.318102
0.443738
0.578471
0.695206
0.794001
0.876113
0.942576
0.989634
1.01332
1.02523
0.545992
0.631915
0.72385
0.805373
0.875577
0.934327
0.980989
1.01504
1.03952
1.05735
0.712198
0.773155
0.837605
0.896596
0.947995
0.991603
1.02736
1.05581
1.07907
1.09727
0.841425
0.886017
0.933211
0.978253
1.01806
1.05276
1.08241
1.10702
1.1277
1.14549
0.947867
0.981646
1.02061
1.05698
1.09031
1.12013
1.14615
1.16798
1.18603
1.20336
1.04183
1.07104
1.1056
1.13824
1.16863
1.19617
1.22021
1.24015
1.2558
1.27287
1.13128
1.16081
1.19518
1.22753
1.25742
1.28424
1.3073
1.32593
1.33941
1.35645
1.22714
1.26049
1.29739
1.33118
1.3614
1.38774
1.40982
1.42719
1.43914
1.45654
1.3425
1.38039
1.41917
1.45356
1.48302
1.50786
1.52832
1.54427
1.55579
1.57387
1.48765
1.52629
1.56247
1.59322
1.61897
1.64113
1.66023
1.6758
1.68826
1.70626
1.6628
1.69453
1.72075
1.74322
1.76324
1.78199
1.79974
1.81624
1.83161
1.84968
1.85148
1.86873
1.88382
1.90007
1.916
1.93055
1.94377
1.95771
1.97527
1.99542
2.03332
2.04282
2.05438
2.0652
2.07449
2.08409
2.09489
2.10627
2.11764
2.133
2.24052
2.2442
2.22926
2.21445
2.20819
2.21388
2.23237
2.26269
2.29487
2.32153
2.54684
2.41198
2.33536
2.29301
2.27559
2.27956
2.30696
2.36338
2.466
2.69037
0.832504
0.830372
0.825887
0.817256
0.805023
0.792882
0.782635
0.77471
0.769051
0.765739
0.765311
0.767971
0.773011
0.780185
0.789538
0.801052
0.813684
0.824706
0.830811
0.83386
0.756971
0.762816
0.76915
0.773635
0.776094
0.775756
0.773
0.769161
0.765608
0.763285
0.763057
0.765172
0.768767
0.773003
0.77677
0.778625
0.777667
0.774169
0.768995
0.76237
0.748577
0.750873
0.754272
0.75726
0.759324
0.760805
0.761537
0.761186
0.760113
0.759163
0.759248
0.760585
0.762325
0.76357
0.763703
0.762777
0.761201
0.758844
0.755566
0.752639
0.743106
0.744192
0.74602
0.74839
0.750401
0.751811
0.752806
0.753519
0.753866
0.754012
0.754402
0.755105
0.755614
0.755607
0.755137
0.754243
0.752739
0.750627
0.748521
0.747132
0.737957
0.73862
0.739724
0.74142
0.743189
0.744802
0.74607
0.747042
0.747861
0.748562
0.749173
0.7496
0.749686
0.749431
0.748791
0.747678
0.746203
0.744622
0.743279
0.742493
0.733051
0.733511
0.734294
0.735584
0.737059
0.738556
0.739991
0.741241
0.742306
0.743257
0.744032
0.744448
0.74446
0.744073
0.743281
0.742214
0.741026
0.739845
0.738899
0.738376
0.728311
0.728655
0.729264
0.730326
0.731608
0.732963
0.734369
0.735765
0.73706
0.738219
0.739161
0.739666
0.739674
0.739251
0.738529
0.73765
0.736716
0.735785
0.735075
0.73469
0.72369
0.723957
0.724449
0.725355
0.726516
0.727793
0.729153
0.730586
0.732038
0.733418
0.734564
0.735204
0.735291
0.734982
0.734431
0.733739
0.732982
0.732257
0.731719
0.731424
0.719112
0.719323
0.719732
0.72053
0.721612
0.722841
0.724187
0.725656
0.727221
0.728809
0.730198
0.731043
0.731318
0.731204
0.730842
0.730332
0.729748
0.729192
0.728786
0.728555
0.714502
0.71467
0.71502
0.715748
0.71679
0.717999
0.719367
0.720902
0.722595
0.724398
0.726076
0.727215
0.727755
0.727877
0.727719
0.727389
0.726972
0.726557
0.726255
0.726073
0.709788
0.709922
0.710229
0.710915
0.711943
0.713176
0.714605
0.716254
0.718126
0.720187
0.722216
0.723735
0.724597
0.724982
0.725044
0.724899
0.724644
0.724362
0.724148
0.724002
0.704895
0.705
0.705278
0.705949
0.707
0.708302
0.70984
0.711661
0.713794
0.716214
0.71869
0.720644
0.721863
0.72254
0.72284
0.722885
0.722786
0.722624
0.722484
0.72237
0.699756
0.699835
0.700093
0.700769
0.701879
0.70329
0.704978
0.707018
0.709464
0.71232
0.715348
0.717845
0.719509
0.720543
0.721127
0.721394
0.721452
0.721408
0.721335
0.721247
0.694288
0.694343
0.694589
0.695292
0.69649
0.698049
0.699944
0.702274
0.705122
0.708534
0.712242
0.715396
0.717596
0.71905
0.719961
0.720492
0.720728
0.720811
0.720802
0.720736
0.6884
0.68843
0.688673
0.689419
0.690734
0.692482
0.694651
0.697365
0.700727
0.704812
0.709356
0.71334
0.716199
0.718152
0.719428
0.720225
0.720697
0.720918
0.720977
0.720933
0.681973
0.68198
0.682215
0.683015
0.684488
0.686488
0.689006
0.692201
0.696233
0.701212
0.706801
0.711739
0.715358
0.717919
0.719659
0.720785
0.721509
0.721881
0.722011
0.721989
0.674803
0.674789
0.675051
0.675923
0.677568
0.679846
0.682788
0.686568
0.691384
0.697395
0.704253
0.710438
0.71504
0.718352
0.720668
0.72226
0.723313
0.723874
0.724083
0.724078
0.666651
0.666609
0.666892
0.667876
0.669755
0.672419
0.675922
0.680487
0.686372
0.693759
0.702188
0.709793
0.715501
0.719673
0.722675
0.724823
0.726263
0.727057
0.727355
0.727365
0.65717
0.657105
0.65743
0.658557
0.66072
0.663862
0.668064
0.673596
0.68077
0.689807
0.700161
0.709553
0.716653
0.721905
0.725751
0.728563
0.730482
0.731563
0.731959
0.731975
0.645796
0.64571
0.646108
0.647442
0.650004
0.653806
0.658956
0.665785
0.674656
0.685802
0.698503
0.709986
0.718683
0.725171
0.730004
0.733577
0.736062
0.737455
0.737948
0.737964
0.631781
0.631675
0.632203
0.633871
0.637015
0.64175
0.648201
0.656759
0.667826
0.681608
0.697153
0.711112
0.721671
0.729592
0.735538
0.739965
0.743074
0.744791
0.745378
0.745389
0.614127
0.614002
0.61474
0.616925
0.620946
0.627036
0.635311
0.646221
0.660153
0.677224
0.69618
0.713011
0.725704
0.735224
0.742439
0.747818
0.751594
0.753642
0.754318
0.754322
0.591414
0.59128
0.59237
0.595374
0.600792
0.608921
0.619854
0.63402
0.651693
0.672836
0.695797
0.715895
0.730959
0.742265
0.750866
0.757303
0.761775
0.764148
0.7649
0.76489
0.561391
0.561286
0.563013
0.567435
0.57518
0.586535
0.601404
0.620039
0.642517
0.66857
0.696145
0.719873
0.737533
0.750798
0.760894
0.768506
0.773716
0.776395
0.777198
0.777165
0.520009
0.520077
0.52322
0.530578
0.542547
0.559168
0.579838
0.604499
0.63298
0.664804
0.697526
0.725158
0.74556
0.760884
0.772605
0.781473
0.787426
0.790328
0.791136
0.791069
0.459537
0.460775
0.468465
0.482297
0.501978
0.526904
0.555686
0.588029
0.623633
0.661932
0.700169
0.731856
0.755055
0.772481
0.785862
0.79601
0.802609
0.805638
0.806345
0.806232
0.387157
0.389115
0.403727
0.427602
0.458184
0.492852
0.530543
0.571142
0.614473
0.660043
0.704852
0.741775
0.768872
0.789353
0.805114
0.816849
0.824424
0.827822
0.828703
0.828706
0.312532
0.319053
0.340488
0.374507
0.415281
0.459514
0.506098
0.555006
0.606148
0.659111
0.710694
0.753076
0.784276
0.80804
0.8265
0.840203
0.848787
0.851907
0.852665
0.852804
0.252032
0.260572
0.286667
0.327613
0.376262
0.42858
0.483141
0.539784
0.59835
0.658366
0.716365
0.763833
0.798732
0.825255
0.845624
0.860598
0.869608
0.873545
0.87494
0.875163
0.202783
0.211882
0.241447
0.287424
0.342124
0.400944
0.462209
0.52566
0.590958
0.657532
0.721504
0.773603
0.811714
0.840437
0.862343
0.878427
0.888553
0.893201
0.894876
0.895141
0.161636
0.170941
0.202818
0.252619
0.31219
0.376369
0.443318
0.5127
0.584022
0.656563
0.726023
0.782291
0.823179
0.853768
0.876936
0.893926
0.904878
0.910088
0.911999
0.912294
0.12614
0.135509
0.169105
0.221962
0.285442
0.354127
0.426019
0.500645
0.577393
0.655399
0.729892
0.789932
0.833229
0.865344
0.889471
0.907195
0.91873
0.924442
0.926476
0.926787
0.0946591
0.104043
0.138915
0.194313
0.26101
0.333541
0.409768
0.489102
0.570815
0.65387
0.733053
0.796552
0.841992
0.875386
0.90027
0.918476
0.930364
0.936418
0.93857
0.938901
0.0659031
0.0753282
0.111284
0.168784
0.238203
0.314058
0.394127
0.477724
0.564003
0.651798
0.735425
0.802214
0.849656
0.884216
0.90976
0.928313
0.940452
0.946712
0.948884
0.949226
0.0390089
0.0484852
0.0854466
0.144704
0.216521
0.295279
0.378767
0.466234
0.55675
0.649027
0.73695
0.806966
0.856388
0.892087
0.918264
0.937143
0.949407
0.95577
0.957917
0.958193
0.0133936
0.0229774
0.060838
0.121617
0.195595
0.276913
0.363467
0.454459
0.548904
0.64544
0.737574
0.810851
0.862327
0.89924
0.926075
0.945278
0.957683
0.964017
0.966165
0.966362
-0.0114051
-0.00161809
0.0370269
0.0992935
0.175158
0.258765
0.348079
0.442279
0.540371
0.64096
0.737251
0.813905
0.867587
0.90585
0.933443
0.953012
0.965546
0.971853
0.973916
0.974122
-0.0356053
-0.0255804
0.0138443
0.0775428
0.155066
0.240716
0.332512
0.429631
0.531092
0.635533
0.735947
0.816129
0.872244
0.91204
0.940519
0.960531
0.973203
0.979453
0.98139
0.981554
-0.0592759
-0.0490131
-0.0087497
0.0561982
0.135241
0.222722
0.316735
0.416492
0.521046
0.629121
0.733614
0.817503
0.876313
0.91788
0.947394
0.9679
0.980677
0.986795
0.988572
0.988661
-0.0825373
-0.0719373
-0.0309419
0.0352234
0.11565
0.204767
0.300757
0.402877
0.510247
0.621719
0.730195
0.817947
0.879762
0.923403
0.954133
0.975165
0.987982
0.993891
0.995442
0.99544
-0.105339
-0.0944388
-0.0526578
0.0146106
0.0963026
0.186879
0.284623
0.388838
0.498735
0.613328
0.725639
0.817363
0.882522
0.928621
0.960814
0.982399
0.995106
1.00064
1.00192
1.00185
-0.127704
-0.116472
-0.0738777
-0.00559506
0.0772353
0.1691
0.268386
0.374444
0.486572
0.60398
0.71991
0.815658
0.884472
0.933488
0.967535
0.989743
1.00211
1.00702
1.00796
1.0078
-0.149433
-0.137943
-0.0945702
-0.0253457
0.0585083
0.151513
0.25212
0.359776
0.473843
0.593744
0.713003
0.812732
0.885444
0.93789
0.974389
0.997493
1.00922
1.01305
1.01345
1.01322
-0.170657
-0.158804
-0.114696
-0.0446073
0.0401619
0.134163
0.235924
0.344924
0.460647
0.582714
0.704939
0.808478
0.88524
0.941596
0.981353
1.00609
1.01711
1.01909
1.01842
1.01806
-0.191199
-0.179016
-0.134213
-0.0633213
0.022281
0.117137
0.219881
0.330011
0.447101
0.57097
0.695773
0.802818
0.883649
0.944248
0.988125
1.01586
1.02707
1.02665
1.02351
1.0221
-0.211111
-0.198614
-0.153061
-0.081428
0.00490861
0.100508
0.204078
0.315123
0.433323
0.558658
0.685597
0.795692
0.880476
0.945381
0.993937
1.02636
1.0403
1.03927
1.03206
1.02239
-0.230305
-0.217552
-0.171333
-0.0990779
-0.0121648
0.0839887
0.188171
0.299845
0.418846
0.545248
0.673843
0.786472
0.875129
0.944392
0.997637
1.03613
1.05624
1.05806
1.04831
1.04004
-0.248725
-0.235744
-0.189026
-0.116225
-0.0289258
0.0675783
0.172182
0.284164
0.403635
0.530639
0.660345
0.774824
0.86693
0.940525
0.996797
1.03964
1.06273
1.06979
1.03291
0.979597
-0.26608
-0.252412
-0.206025
-0.132801
-0.0454766
0.0511404
0.156067
0.268199
0.387754
0.514903
0.645063
0.760604
0.854902
0.933442
0.989404
1.0258
1.04988
1.03822
0.981378
0.916941
-0.2827
-0.268109
-0.22214
-0.148163
-0.0614724
0.0351556
0.139601
0.252011
0.371351
0.498215
0.628025
0.743677
0.837964
0.924248
0.973732
1.02549