/*--------------------------------*- C++ -*----------------------------------*\
  =========                 |
  \\      /  F ield         | OpenFOAM: The Open Source CFD Toolbox
   \\    /   O peration     | Website:  https://openfoam.org
    \\  /    A nd           | Version:  7
     \\/     M anipulation  |
\*---------------------------------------------------------------------------*/
FoamFile
{
    version     2.0;
    format      ascii;
    class       volScalarField;
    location    "8.6";
    object      p;
}
// * * * * * * * * * * * * * * * * * * * * * * * * * * * * * * * * * * * * * //

dimensions      [1 -1 -2 0 0 0 0];

internalField   nonuniform List<scalar> 
19968
(
1
1
1
1
1
1
1
1
1
1
1
1
1
1
1
1
1
1
1
1
1
1
1
1
1
1
1
1
1
1
1
1
1
1
1
1
1
1
1
1
1
1
1
1
1
1
1
1
1.57281
8.07664
10.4214
10.4568
10.519
10.5764
10.6365
10.6945
10.7507
10.8042
10.8544
10.9044
10.9572
11.0129
11.0684
11.1189
11.1642
11.2081
11.2538
11.3023
11.3527
11.4019
11.4456
11.4824
11.5143
11.5454
11.5797
11.619
11.6606
11.6998
11.733
11.7603
11.7842
11.8082
11.8345
11.8629
11.8912
11.9173
11.9403
11.9603
11.9781
11.9941
12.0076
12.0176
12.0235
12.0255
12.0258
12.0249
1
1
1
1
1
1
1
1
1
1
1
1
1
1
1
1
1
1
1
1
1
1
1
1
1
1
1
1
1
1
1
1
1
1
1
1
1
1
1
1
1
1
1
1
1
1
1
1
1.54029
8.00699
10.4121
10.4573
10.5185
10.5759
10.6354
10.6927
10.7478
10.8009
10.8514
10.902
10.9552
11.0105
11.0655
11.1156
11.161
11.205
11.2505
11.2988
11.349
11.3977
11.4412
11.4778
11.5098
11.5411
11.5756
11.6148
11.6561
11.695
11.7281
11.7554
11.7795
11.8037
11.8301
11.8585
11.8868
11.9128
11.9355
11.9551
11.9722
11.9874
12.0003
12.01
12.0159
12.0184
12.0191
12.0188
1
1
1
1
1
1
1
1
1
1
1
1
1
1
1
1
1
1
1
1
1
1
1
1
1
1
1
1
1
1
1
1
1
1
1
1
1
1
1
1
1
1
1
1
1
1
1
1
1.46862
7.85629
10.4105
10.4449
10.5097
10.5677
10.6277
10.685
10.7399
10.7932
10.844
10.8953
10.9491
11.004
11.0588
11.1084
11.1541
11.198
11.2435
11.2914
11.3412
11.3896
11.4328
11.4695
11.5017
11.5333
11.5679
11.6066
11.6473
11.6856
11.7185
11.7461
11.7705
11.7951
11.8217
11.8503
11.8787
11.9046
11.9271
11.9461
11.9625
11.977
11.9894
11.9991
12.0053
12.0083
12.0093
12.0097
1
1
1
1
1
1
1
1
1
1
1
1
1
1
1
1
1
1
1
1
1
1
1
1
1
1
1
1
1
1
1
1
1
1
1
1
1
1
1
1
1
1
1
1
1
1
1
1
1.36711
7.61199
10.4013
10.4319
10.4979
10.5567
10.6174
10.6752
10.7307
10.7847
10.8358
10.8877
10.9418
10.9959
11.05
11.0989
11.1445
11.1882
11.2333
11.2807
11.33
11.3779
11.4208
11.4576
11.4901
11.5221
11.5567
11.5949
11.6346
11.672
11.7046
11.7323
11.7572
11.7821
11.809
11.8375
11.8655
11.8909
11.9125
11.9304
11.9455
11.9588
11.9707
11.9806
11.9878
11.9921
11.9943
11.9961
1
1
1
1
1
1
1
1
1
1
1
1
1
1
1
1
1
1
1
1
1
1
1
1
1
1
1
1
1
1
1
1
1
1
1
1
1
1
1
1
1
1
1
1
1
1
1
1
1.23687
7.27604
10.4001
10.4245
10.488
10.5466
10.6065
10.6642
10.7197
10.7738
10.8251
10.8771
10.9313
10.9846
11.038
11.0865
11.1323
11.1757
11.2203
11.267
11.3157
11.3633
11.4061
11.4432
11.4763
11.5087
11.5433
11.5808
11.6193
11.6557
11.6878
11.7157
11.7413
11.767
11.7944
11.823
11.8507
11.8753
11.8955
11.9115
11.9244
11.9354
11.9455
11.9547
11.9623
11.9676
11.9705
11.9735
1
1
1
1
1
1
1
1
1
1
1
1
1
1
1
1
1
1
1
1
1
1
1
1
1
1
1
1
1
1
1
1
1
1
1
1
1
1
1
1
1
1
1
1
1
1
1
1
1.02458
6.74976
10.3924
10.4234
10.4802
10.5392
10.5989
10.6572
10.7135
10.7675
10.8185
10.87
10.9232
10.9749
11.0271
11.0745
11.1196
11.1622
11.2053
11.2503
11.2974
11.3436
11.3856
11.4221
11.4551
11.4875
11.5216
11.5577
11.5943
11.6289
11.6598
11.6873
11.7133
11.7397
11.7677
11.7966
11.8243
11.8484
11.8679
11.8828
11.8943
11.9041
11.9137
11.9234
11.9324
11.9396
11.9439
11.9485
1
1
1
1
1
1
1
1
1
1
1
1
1
1
1
1
1
1
1
1
1
1
1
1
1
1
1
1
1
1
1
1
1
1
1
1
1
1
1
1
1
1
1
1
1
1
1
1
1.00018
6.02568
10.2921
10.3797
10.4356
10.4994
10.5608
10.6205
10.6781
10.7329
10.7844
10.8356
10.8881
10.9388
10.9899
11.0369
11.0819
11.1247
11.1676
11.212
11.2584
11.3041
11.3458
11.3828
11.4168
11.4504
11.4852
11.5209
11.5562
11.5892
11.6189
11.6462
11.6726
11.7
11.729
11.7586
11.7865
11.8104
11.8291
11.8428
11.8529
11.8614
11.8704
11.8805
11.8907
11.8997
11.9054
11.9112
1
1
1
1
1
1
1
1
1
1
1
1
1
1
1
1
1
1
1
1
1
1
1
1
1
1
1
1
1
1
1
1
1
1
1
1
1
1
1
1
1
1
1
1
1
1
1
1
1
5.08612
10.1442
10.3481
10.4048
10.4735
10.5363
10.5972
10.655
10.7094
10.76
10.8096
10.8602
10.9093
10.9587
11.0052
11.05
11.0926
11.1346
11.1776
11.2224
11.2666
11.3072
11.3436
11.3776
11.4116
11.4466
11.4816
11.5153
11.5462
11.5742
11.6003
11.6264
11.654
11.6834
11.7132
11.7411
11.7644
11.7821
11.7944
11.8028
11.8099
11.8183
11.8287
11.8398
11.8502
11.8572
11.8639
1
1
1
1
1
1
1
1
1
1
1
1
1
1
1
1
1
1
1
1
1
1
1
1
1
1
1
1
1
1
1
1
1
1
1
1
1
1
1
1
1
1
1
1
1
1
1
1
1
4.00437
9.85569
10.3182
10.3734
10.444
10.5073
10.5683
10.6258
10.6798
10.73
10.7779
10.8261
10.8733
10.9205
10.966
11.0098
11.0514
11.0915
11.1321
11.1744
11.2162
11.2551
11.2903
11.324
11.3579
11.3927
11.4271
11.4595
11.4886
11.5145
11.5388
11.5634
11.5902
11.6195
11.6496
11.6776
11.7007
11.7178
11.7291
11.7367
11.7431
11.7514
11.7621
11.774
11.7856
11.7938
11.8012
1
1
1
1
1
1
1
1
1
1
1
1
1
1
1
1
1
1
1
1
1
1
1
1
1
1
1
1
1
1
1
1
1
1
1
1
1
1
1
1
1
1
1
1
1
1
1
1
1
2.87695
9.31932
10.3018
10.3655
10.4332
10.4914
10.5467
10.5997
10.6512
10.7003
10.7467
10.7923
10.8373
10.882
10.926
10.9685
11.0091
11.0472
11.0853
11.1248
11.1638
11.2006
11.2336
11.2651
11.2969
11.3297
11.3619
11.3919
11.4183
11.4412
11.4624
11.4844
11.5098
11.5389
11.5697
11.5984
11.6217
11.6381
11.6483
11.6546
11.6598
11.6667
11.6762
11.6876
11.6994
11.7081
11.7156
1
1
1
1
1
1
1
1
1
1
1
1
1
1
1
1
1
1
1
1
1
1
1
1
1
1
1
1
1
1
1
1
1
1
1
1
1
1
1
1
1
1
1
1
1
1
1
1
1
1.84697
8.39415
10.3302
10.3312
10.3997
10.45
10.5026
10.5547
10.6058
10.6551
10.7019
10.7465
10.7913
10.8357
10.8789
10.9202
10.9599
10.9969
11.0336
11.0714
11.1081
11.143
11.174
11.2033
11.2324
11.2624
11.2921
11.3194
11.3424
11.361
11.3771
11.394
11.4148
11.4404
11.4687
11.4954
11.5167
11.5312
11.5396
11.5447
11.5491
11.5553
11.5643
11.5755
11.5877
11.5972
11.6053
1
1
1
1
1
1
1
1
1
1
1
1
1
1
1
1
1
1
1
1
1
1
1
1
1
1
1
1
1
1
1
1
1
1
1
1
1
1
1
1
1
1
1
1
1
1
1
1
1
1.03314
6.72893
10.3558
10.373
10.4052
10.4443
10.4877
10.5323
10.5769
10.6211
10.6646
10.7051
10.7452
10.7853
10.824
10.8616
10.8982
10.9322
10.9652
10.9997
11.0332
11.0649
11.093
11.1187
11.1441
11.1705
11.1973
11.2221
11.2428
11.2585
11.2709
11.2835
11.3001
11.3223
11.3485
11.3744
11.3953
11.4086
11.415
11.4168
11.4166
11.4163
11.4181
11.4231
11.4306
11.4372
11.4438
1
1
1
1
1
1
1
1
1
1
1
1
1
1
1
1
1
1
1
1
1
1
1
1
1
1
1
1
1
1
1
1
1
1
1
1
1
1
1
1
1
1
1
1
1
1
1
1
1
1.00006
4.63922
9.92308
10.1941
10.2587
10.324
10.3794
10.4305
10.4776
10.5218
10.5644
10.6049
10.6434
10.6825
10.7209
10.757
10.7921
10.8256
10.8579
10.8915
10.9245
10.9549
10.9818
11.0052
11.0277
11.0507
11.0744
11.0968
11.1155
11.1292
11.1385
11.1465
11.1563
11.1706
11.1894
11.2092
11.224
11.2307
11.2309
11.2254
11.2178
11.2129
11.2127
11.2171
11.2249
11.2305
11.2367
1
1
1
1
1
1
1
1
1
1
1
1
1
1
1
1
1
1
1
1
1
1
1
1
1
1
1
1
1
1
1
1
1
1
1
1
1
1
1
1
1
1
1
1
1
1
1
1
1
1
2.41303
8.80172
10.1405
10.1869
10.2674
10.3266
10.378
10.4239
10.4657
10.5049
10.5424
10.5773
10.6123
10.6476
10.6803
10.7114
10.7413
10.7696
10.7984
10.8275
10.8535
10.876
10.8943
10.9107
10.9267
10.9432
10.9596
10.9741
10.9843
10.9899
10.9918
10.9921
10.9945
11.002
11.0132
11.0225
11.0267
11.0231
11.0104
10.9943
10.9777
10.9628
10.9458
10.9262
10.9036
10.8844
1
1
1
1
1
1
1
1
1
1
1
1
1
1
1
1
1
1
1
1
1
1
1
1
1
1
1
1
1
1
1
1
1
1
1
1
1
1
1
1
1
1
1
1
1
1
1
1
1
1
1.06073
6.41183
10.222
10.2363
10.2586
10.2895
10.3211
10.3541
10.388
10.4213
10.4545
10.4858
10.5157
10.5461
10.5749
10.6017
10.6273
10.6512
10.6743
10.6979
10.7197
10.7379
10.7516
10.7615
10.7693
10.7767
10.785
10.7934
10.8005
10.8036
10.7982
10.7868
10.7737
10.7639
10.7574
10.7504
10.7368
10.7102
10.6691
10.618
10.5638
10.5119
10.4698
10.4329
10.413
10.4023
1
1
1
1
1
1
1
1
1
1
1
1
1
1
1
1
1
1
1
1
1
1
1
1
1
1
1
1
1
1
1
1
1
1
1
1
1
1
1
1
1
1
1
1
1
1
1
1
1
1
1.00009
3.31608
9.31952
10.0575
10.0991
10.1455
10.1874
10.2296
10.2713
10.3095
10.3426
10.3713
10.3966
10.422
10.4486
10.4744
10.4986
10.5205
10.54
10.5583
10.575
10.5878
10.596
10.5999
10.5985
10.5946
10.5899
10.5867
10.585
10.581
10.5682
10.5447
10.5138
10.4806
10.4478
10.4142
10.3747
10.3241
10.2602
10.1865
10.1085
10.0309
9.94377
9.86097
9.74581
9.83539
1
1
1
1
1
1
1
1
1
1
1
1
1
1
1
1
1
1
1
1
1
1
1
1
1
1
1
1
1
1
1
1
1
1
1
1
1
1
1
1
1
1
1
1
1
1
1
1
1
1
1
1.26325
7.3882
10.0685
10.0629
10.0841
10.1148
10.1507
10.19
10.227
10.2569
10.2812
10.3009
10.3186
10.3381
10.3592
10.38
10.3989
10.4147
10.4275
10.4377
10.4447
10.4477
10.4451
10.4365
10.4225
10.4057
10.3891
10.3746
10.3594
10.3373
10.3038
10.258
10.2026
10.1411
10.0747
9.99899
9.90832
9.79272
9.64706
9.4534
9.19816
8.82112
8.26565
7.34192
5.45772
1
1
1
1
1
1
1
1
1
1
1
1
1
1
1
1
1
1
1
1
1
1
1
1
1
1
1
1
1
1
1
1
1
1
1
1
1
1
1
1
1
1
1
1
1
1
1
1
1
1
1
1.00239
4.70177
9.6199
9.89889
9.94781
9.99603
10.0414
10.0895
10.1325
10.163
10.1832
10.1971
10.2096
10.2247
10.243
10.2616
10.278
10.2917
10.3024
10.3097
10.3127
10.3103
10.3025
10.289
10.2697
10.2459
10.2189
10.1909
10.1616
10.1276
10.084
10.0263
9.95387
9.86767
9.77037
9.65761
9.52684
9.3605
9.15298
8.8698
8.50544
7.9868
7.34334
6.09968
4.49941
1
1
1
1
1
1
1
1
1
1
1
1
1
1
1
1
1
1
1
1
1
1
1
1
1
1
1
1
1
1
1
1
1
1
1
1
1
1
1
1
1
1
1
1
1
1
1
1
1
1
1
0.999995
1.98083
8.23559
9.85695
9.87745
9.93021
9.97159
10.0202
10.0619
10.0885
10.1053
10.1159
10.1248
10.1352
10.1479
10.1608
10.1715
10.18
10.186
10.1886
10.1862
10.1772
10.1622
10.1417
10.116
10.0853
10.0492
10.0081
9.96335
9.91405
9.85698
9.78595
9.69807
9.59003
9.4654
9.31912
9.15161
8.94584
8.69101
8.36304
7.93728
7.40918
6.64343
5.62833
4.53237
1
1
1
1
1
1
1
1
1
1
1
1
1
1
1
1
1
1
1
1
1
1
1
1
1
1
1
1
1
1
1
1
1
1
1
1
1
1
1
1
1
1
1
1
1
1
1
1
1
1
1
0.999999
1.03518
5.40957
9.67281
9.85209
9.88426
9.90982
9.93862
9.96262
9.98232
10.0021
10.0173
10.0288
10.0389
10.0489
10.0562
10.0598
10.0605
10.059
10.0558
10.0489
10.0355
10.0152
9.9883
9.95561
9.91727
9.8726
9.82087
9.76365
9.70016
9.62968
9.54531
9.44399
9.31896
9.17302
9.00194
8.80569
8.57405
8.29362
7.9507
7.51844
6.99059
6.32148
5.5503
4.72307
1
1
1
1
1
1
1
1
1
1
1
1
1
1
1
1
1
1
1
1
1
1
1
1
1
1
1
1
1
1
1
1
1
1
1
1
1
1
1
1
1
1
1
1
1
1
1
1
1
1
1
1
1.00001
2.18941
8.38634
9.84961
9.81207
9.8445
9.8693
9.88631
9.89798
9.91196
9.92474
9.93558
9.94578
9.95381
9.9566
9.95298
9.94395
9.93173
9.91986
9.90696
9.89025
9.86755
9.83724
9.79902
9.75232
9.69785
9.63537
9.56761
9.49292
9.41101
9.31494
9.20145
9.06414
8.90387
8.71832
8.5061
8.26163
7.97352
7.63724
7.22315
6.74126
6.19267
5.58254
4.93138
1
1
1
1
1
1
1
1
1
1
1
1
1
1
1
1
1
1
1
1
1
1
1
1
1
1
1
1
1
1
1
1
1
1
1
1
1
1
1
1
1
1
1
1
1
1
1
1
1
1
1
1
1
1.04627
5.45478
9.69105
9.74605
9.77394
9.79023
9.80402
9.81551
9.82704
9.83677
9.84421
9.85146
9.85664
9.85705
9.84878
9.83293
9.81138
9.78777
9.76413
9.74027
9.71473
9.68324
9.6426
9.59012
9.52737
9.45543
9.37859
9.29505
9.20355
9.09771
8.97442
8.82928
8.66153
8.47011
8.25267
8.0063
7.72316
7.40128
7.0252
6.60158
6.14524
5.64957
5.11292
1
1
1
1
1
1
1
1
1
1
1
1
1
1
1
1
1
1
1
1
1
1
1
1
1
1
1
1
1
1
1
1
1
1
1
1
1
1
1
1
1
1
1
1
1
1
1
1
1
1
1
1
1
1.00004
2.02762
8.17946
9.74414
9.71331
9.72412
9.72866
9.73275
9.73745
9.74126
9.74479
9.7462
9.74734
9.74562
9.73369
9.71566
9.69073
9.65887
9.6252
9.59151
9.56019
9.52596
9.4831
9.42717
9.35959
9.28204
9.19951
9.11008
9.01112
8.8973
8.76665
8.61694
8.44698
8.25615
8.04102
7.80468
7.53082
7.23286
6.89529
6.52394
6.14142
5.71269
5.26418
1
1
1
1
1
1
1
1
1
1
1
1
1
1
1
1
1
1
1
1
1
1
1
1
1
1
1
1
1
1
1
1
1
1
1
1
1
1
1
1
1
1
1
1
1
1
1
1
1
1
1
1
1
1
1.03297
4.8616
9.42114
9.62782
9.63261
9.64131
9.657
9.66503
9.66846
9.66793
9.66221
9.65579
9.64777
9.63056
9.6102
9.58368
9.54716
9.50554
9.46034
9.41837
9.37603
9.32738
9.26755
9.19781
9.11924
9.03471
8.94157
8.83679
8.71624
8.58005
8.42799
8.25932
8.0733
7.86496
7.6431
7.38132
7.10808
6.80915
6.48438
6.14344
5.77814
5.39706
1
1
1
1
1
1
1
1
1
1
1
1
1
1
1
1
1
1
1
1
1
1
1
1
1
1
1
1
1
1
1
1
1
1
1
1
1
1
1
1
1
1
1
1
1
1
1
1
1
1
1
1
1
1
1.00002
1.53252
7.58969
9.67242
9.61378
9.59588
9.58425
9.58044
9.57719
9.56986
9.55803
9.54556
9.53216
9.51112
9.48855
9.46257
9.42659
9.38396
9.33366
9.28414
9.23321
9.17699
9.11235
9.04075
8.96276
8.8786
8.78449
8.67723
8.55361
8.41464
8.26193
8.09563
7.91655
7.71695
7.5081
7.26434
7.0163
6.75298
6.45701
6.15434
5.84334
5.51547
1
1
1
1
1
1
1
1
1
1
1
1
1
1
1
1
1
1
1
1
1
1
1
1
1
1
1
1
1
1
1
1
1
1
1
1
1
1
1
1
1
1
1
1
1
1
1
1
1
1
1
1
1
1
1
1.0084
3.86894
8.99742
9.42428
9.45852
9.47328
9.47059
9.46314
9.45222
9.44063
9.42912
9.41614
9.39347
9.36828
9.34075
9.30573
9.26479
9.21447
9.16143
9.10251
9.03778
8.9675
8.89385
8.81514
8.7306
8.63628
8.52895
8.40657
8.26894
8.11874
7.95574
7.7847
7.59233
7.39475
7.17233
6.94788
6.70572
6.43641
6.1749
5.90055
5.6096
1
1
1
1
1
1
1
1
1
1
1
1
1
1
1
1
1
1
1
1
1
1
1
1
1
1
1
1
1
1
1
1
1
1
1
1
1
1
1
1
1
1
1
1
1
1
1
1
1
1
1
1
1
1
1
1
1.21688
6.27995
9.38717
9.41162
9.39079
9.37748
9.36856
9.35703
9.34524
9.33149
9.31623
9.28883
9.25772
9.22577
9.18986
9.1498
9.10136
9.04713
8.98501
8.91551
8.84044
8.76225
8.68071
8.59396
8.49823
8.39108
8.2724
8.13918
7.99462
7.83577
7.67301
7.48713
7.30115
7.09881
6.88897
6.66403
6.42905
6.19759
5.94036
5.68033
1
1
1
1
1
1
1
1
1
1
1
1
1
1
1
1
1
1
1
1
1
1
1
1
1
1
1
1
1
1
1
1
1
1
1
1
1
1
1
1
1
1
1
1
1
1
1
1
1
1
1
1
1
1
1
1
1.00142
2.19734
8.04081
9.30045
9.25543
9.26522
9.26678
9.25939
9.24748
9.23173
9.21375
9.18624
9.15178
9.1165
9.07868
9.03744
8.98994
8.93479
8.87283
8.80315
8.7249
8.64214
8.55745
8.46647
8.3698
8.26254
8.14745
8.02078
7.88622
7.73183
7.57616
7.40048
7.22664
7.03752
6.83941
6.63617
6.42719
6.20815
5.96935
5.74318
1
1
1
1
1
1
1
1
1
1
1
1
1
1
1
1
1
1
1
1
1
1
1
1
1
1
1
1
1
1
1
1
1
1
1
1
1
1
1
1
1
1
1
1
1
1
1
1
1
1
1
1
1
1
1
1
1
1.04062
4.18745
8.88313
9.17047
9.18226
9.18239
9.17587
9.16438
9.14438
9.12034
9.09197
9.05511
9.01757
8.97879
8.93586
8.8874
8.83121
8.76671
8.69815
8.61858
8.53452
8.44652
8.35707
8.25818
8.15198
8.03841
7.91753
7.78963
7.64252
7.49371
7.33059
7.16687
6.9866
6.80379
6.61769
6.42008
6.21288
6.00203
5.79806
1
1
1
1
1
1
1
1
1
1
1
1
1
1
1
1
1
1
1
1
1
1
1
1
1
1
1
1
1
1
1
1
1
1
1
1
1
1
1
1
1
1
1
1
1
1
1
1
1
1
1
1
1
1
1
1
1
1.00008
1.25977
5.74506
9.00207
9.15509
9.13561
9.12217
9.10601
9.07638
9.04363
9.00896
8.96891
8.92742
8.88612
8.84085
8.79046
8.73263
8.66566
8.59785
8.5187
8.4352
8.34697
8.25454
8.15858
8.053
7.94237
7.82477
7.69884
7.56309
7.42103
7.26957
7.11421
6.94404
6.77638
6.60166
6.41251
6.22382
6.03478
5.84227
1
1
1
1
1
1
1
1
1
1
1
1
1
1
1
1
1
1
1
1
1
1
1
1
1
1
1
1
1
1
1
1
1
1
1
1
1
1
1
1
1
1
1
1
1
1
1
1
1
1
1
1
1
1
1
1
1
1
1.00211
1.6336
7.25298
9.16274
9.11805
9.07096
9.02744
8.9862
8.94645
8.90792
8.86837
8.82796
8.78598
8.74217
8.6925
8.63517
8.56833
8.4988
8.42312
8.33953
8.25345
8.16235
8.06751
7.96603
7.85916
7.7457
7.62448
7.4959
7.36015
7.21745
7.06825
6.90939
6.75291
6.58708
6.40944
6.2388
6.06332
5.88055
1
1
1
1
1
1
1
1
1
1
1
1
1
1
1
1
1
1
1
1
1
1
1
1
1
1
1
1
1
1
1
1
1
1
1
1
1
1
1
1
1
1
1
1
1
1
1
1
1
1
1
1
1
1
1
1
1
1
1
1.01155
3.05372
8.32438
8.94926
8.89106
8.86423
8.84014
8.81842
8.79312
8.76466
8.73148
8.69193
8.64621
8.59724
8.54143
8.47521
8.40687
8.3351
8.25424
8.17055
8.08165
7.98803
7.88794
7.78372
7.67491
7.55846
7.43469
7.30485
7.16881
7.02596
6.87839
6.72991
6.57229
6.40651
6.25062
6.08494
5.91174
1
1
1
1
1
1
1
1
1
1
1
1
1
1
1
1
1
1
1
1
1
1
1
1
1
1
1
1
1
1
1
1
1
1
1
1
1
1
1
1
1
1
1
1
1
1
1
1
1
1
1
1
1
1
1
1
1
1
1
1.00002
1.11013
4.377
8.599
8.79133
8.76753
8.76835
8.75378
8.7309
8.70104
8.66545
8.62359
8.5747
8.52286
8.46776
8.40023
8.33276
8.26132
8.18182
8.09889
8.0113
7.91876
7.82104
7.71863
7.61324
7.50074
7.38131
7.25705
7.12675
6.99117
6.85341
6.71047
6.55979
6.40497
6.25871
6.10175
5.9384
1
1
1
1
1
1
1
1
1
1
1
1
1
1
1
1
1
1
1
1
1
1
1
1
1
1
1
1
1
1
1
1
1
1
1
1
1
1
1
1
1
1
1
1
1
1
1
1
1
1
1
1
1
1
1
1
1
1
1
1
1.00052
1.29659
5.19569
8.58579
8.71783
8.71733
8.70559
8.6793
8.64613
8.60688
8.56139
8.50928
8.45399
8.39611
8.32933
8.26193
8.18961
8.11198
8.03048
7.94473
7.85369
7.75781
7.6584
7.55519
7.44582
7.33084
7.21149
7.08632
6.95811
6.82873
6.69108
6.54768
6.40439
6.26625
6.12006
5.96858
1
1
1
1
1
1
1
1
1
1
1
1
1
1
1
1
1
1
1
1
1
1
1
1
1
1
1
1
1
1
1
1
1
1
1
1
1
1
1
1
1
1
1
1
1
1
1
1
1
1
1
1
1
1
1
1
1
1
1
1
1
1.00287
1.49322
5.87935
8.58815
8.69234
8.66407
8.63136
8.59432
8.55071
8.50249
8.44962
8.3943
8.3346
8.26974
8.20146
8.1285
8.05113
7.97012
7.88568
7.79648
7.70228
7.60497
7.50375
7.3967
7.28533
7.17038
7.05086
6.92921
6.80552
6.67319
6.54026
6.41127
6.28592
6.15921
6.02796
1
1
1
1
1
1
1
1
1
1
1
1
1
1
1
1
1
1
1
1
1
1
1
1
1
1
1
1
1
1
1
1
1
1
1
1
1
1
1
1
1
1
1
1
1
1
1
1
1
1
1
1
1
1
1
1
1
1
1
1
1
1
1.00729
1.7229
6.46534
8.56805
8.61417
8.58418
8.5414
8.49587
8.44479
8.39061
8.33353
8.2734
8.20928
8.14019
8.06701
7.99046
7.91072
7.82781
7.74066
7.64873
7.55306
7.45344
7.34979
7.2423
7.13099
7.01594
6.90056
6.7853
6.66546
6.55368
6.45222
6.35143
6.26048
6.17253
1
1
1
1
1
1
1
1
1
1
1
1
1
1
1
1
1
1
1
1
1
1
1
1
1
1
1
1
1
1
1
1
1
1
1
1
1
1
1
1
1
1
1
1
1
1
1
1
1
1
1
1
1
1
1
1
1
1
1
1
1
1
1.00001
1.01478
1.98721
6.9087
8.53958
8.54474
8.50585
8.4531
8.39857
8.34049
8.27844
8.21611
8.15073
8.08126
8.00886
7.93396
7.85623
7.77538
7.69005
7.60008
7.50568
7.40782
7.30785
7.20361
7.09702
6.99002
6.88785
6.79395
6.70568
6.63517
6.57671
6.52425
6.48468
6.43965
1
1
1
1
1
1
1
1
1
1
1
1
1
1
1
1
1
1
1
1
1
1
1
1
1
1
1
1
1
1
1
1
1
1
1
1
1
1
1
1
1
1
1
1
1
1
1
1
1
1
1
1
1
1
1
1
1
1
1
1
1
1
1
1.00004
1.02666
2.24989
7.30158
8.50122
8.45912
8.40972
8.34565
8.2841
8.22112
8.15765
8.09083
8.02245
7.95185
7.8791
7.80319
7.72372
7.63905
7.55038
7.45838
7.36248
7.26735
7.17108
7.07977
6.99814
6.93509
6.89039
6.85442
6.84491
6.83399
6.82021
6.79419
6.7513
1
1
1
1
1
1
1
1
1
1
1
1
1
1
1
1
1
1
1
1
1
1
1
1
1
1
1
1
1
1
1
1
1
1
1
1
1
1
1
1
1
1
1
1
1
1
1
1
1
1
1
1
1
1
1
1
1
1
1
1
1
1
1
1
1.00008
1.04205
2.65916
7.53263
8.38705
8.3332
8.28821
8.2274
8.16374
8.10058
8.03721
7.97243
7.90515
7.83367
7.75828
7.67699
7.59111
7.50312
7.41414
7.32512
7.24348
7.17285
7.12896
7.10528
7.10815
7.12494
7.14072
7.17404
7.15233
7.12103
7.06577
6.99769
1
1
1
1
1
1
1
1
1
1
1
1
1
1
1
1
1
1
1
1
1
1
1
1
1
1
1
1
1
1
1
1
1
1
1
1
1
1
1
1
1
1
1
1
1
1
1
1
1
1
1
1
1
1
1
1
1
1
1
1
1
1
1
1
1
1.00015
1.0727
2.94337
7.57715
8.27168
8.21884
8.16259
8.10857
8.05202
7.99325
7.93097
7.86367
7.79168
7.7139
7.63133
7.54651
7.46313
7.38392
7.32148
7.2911
7.28871
7.32029
7.37863
7.43879
7.47051
7.49417
7.48421
7.41104
7.34319
7.26197
7.17264
1
1
1
1
1
1
1
1
1
1
1
1
1
1
1
1
1
1
1
1
1
1
1
1
1
1
1
1
1
1
1
1
1
1
1
1
1
1
1
1
1
1
1
1
1
1
1
1
1
1
1
1
1
1
1
1
1
1
1
1
1
1
1
1
1
1
1.00034
1.10078
3.03534
7.50028
8.16147
8.11172
8.06292
8.01228
7.95785
7.89738
7.82957
7.75374
7.67199
7.59015
7.51316
7.45452
7.42336
7.43517
7.49404
7.58453
7.68937
7.76746
7.79229
7.78537
7.75812
7.68593
7.58061
7.50046
7.41315
7.31666
1
1
1
1
1
1
1
1
1
1
1
1
1
1
1
1
1
1
1
1
1
1
1
1
1
1
1
1
1
1
1
1
1
1
1
1
1
1
1
1
1
1
1
1
1
1
1
1
1
1
1
1
1
1
1
1
1
1
1
1
1
1
1
1
1
1
1
1.00058
1.11287
2.97304
7.36943
8.07662
8.0329
7.98394
7.92647
7.86227
7.79117
7.7153
7.63354
7.57187
7.53645
7.54959
7.62867
7.7594
7.91004
8.02498
8.0994
8.10913
8.05704
7.99966
7.92786
7.82049
7.71376
7.63999
7.55194
7.45632
1
1
1
1
1
1
1
1
1
1
1
1
1
1
1
1
1
1
1
1
1
1
1
1
1
1
1
1
1
1
1
1
1
1
1
1
1
1
1
1
1
1
1
1
1
1
1
1
1
1
1
1
1
1
1
1
1
1
1
1
1
1
1
1
1
1
1
1
1.00072
1.10787
2.88974
7.18919
7.98456
7.94943
7.88891
7.82139
7.74417
7.67661
7.62873
7.63274
7.71786
7.87019
8.08171
8.26363
8.36103
8.40924
8.38819
8.31176
8.22019
8.14761
8.05982
7.94757
7.85354
7.78871
7.70183
7.61014
1
1
1
1
1
1
1
1
1
1
1
1
1
1
1
1
1
1
1
1
1
1
1
1
1
1
1
1
1
1
1
1
1
1
1
1
1
1
1
1
1
1
1
1
1
1
1
1
1
1
1
1
1
1
1
1
1
1
1
1
1
1
1
1
1
1
1
1
1
1.00068
1.0993
2.75609
6.94425
7.8845
7.85389
7.77853
7.71152
7.69051
7.75902
7.93444
8.19567
8.45276
8.62948
8.68511
8.68228
8.64102
8.5557
8.44377
8.34779
8.27738
8.19101
8.08273
8.00041
7.94121
7.85729
7.77057
1
1
1
1
1
1
1
1
1
1
1
1
1
1
1
1
1
1
1
1
1
1
1
1
1
1
1
1
1
1
1
1
1
1
1
1
1
1
1
1
1
1
1
1
1
1
1
1
1
1
1
1
1
1
1
1
1
1
1
1
1
1
1
1
1
1
1
1
1
1
1.0006
1.08587
2.56689
6.61598
7.74767
7.72548
7.77142
7.9458
8.26691
8.60299
8.84926
8.96647
8.97995
8.91764
8.85317
8.7745
8.66863
8.56062
8.48269
8.4227
8.33966
8.23739
8.16363
8.10461
8.0202
7.9339
1
1
1
1
1
1
1
1
1
1
1
1
1
1
1
1
1
1
1
1
1
1
1
1
1
1
1
1
1
1
1
1
1
1
1
1
1
1
1
1
1
1
1
1
1
1
1
1
1
1
1
1
1
1
1
1
1
1
1
1
1
1
1
1
1
1
1
1
1
1
1
1.00049
1.06847
2.33461
6.11971
7.77499
8.28388
8.63286
9.03581
9.22939
9.29853
9.25418
9.15527
9.04793
8.96592
8.87714
8.77194
8.68286
8.62666
8.56898
8.48088
8.38823
8.3271
8.26688
8.17781
8.09295
1
1
1
1
1
1
1
1
1
1
1
1
1
1
1
1
1
1
1
1
1
1
1
1
1
1
1
1
1
1
1
1
1
1
1
1
1
1
1
1
1
1
1
1
1
1
1
1
1
1
1
1
1
1
1
1
1
1
1
1
1
1
1
1
1
1
1
1
1
1
1
1
1.00035
1.05031
2.02652
6.53867
9.17205
9.44612
9.55744
9.54747
9.47868
9.37882
9.26722
9.16989
9.09017
9.00801
8.91493
8.84276
8.79129
8.72242
8.622
8.5371
8.48447
8.41728
8.3196
8.24126
1
1
1
1
1
1
1
1
1
1
1
1
1
1
1
1
1
1
1
1
1
1
1
1
1
1
1
1
1
1
1
1
1
1
1
1
1
1
1
1
1
1
1
1
1
1
1
1
1
1
1
1
1
1
1
1
1
1
1
1
1
1
1
1
1
1
1
1
1
1
1
1
1
1.00024
1.02961
3.20864
9.38025
10.016
9.86006
9.732
9.60178
9.48087
9.35959
9.26046
9.19085
9.11772
9.03726
8.9816
8.93661
8.8663
8.77436
8.70222
8.64968
8.57046
8.46624
8.39577
1
1
1
1
1
1
1
1
1
1
1
1
1
1
1
1
1
1
1
1
1
1
1
1
1
1
1
1
1
1
1
1
1
1
1
1
1
1
1
1
1
1
1
1
1
1
1
1
1
1
1
1
1
1
1
1
1
1
1
1
1
1
1
1
1
1
1
1
1
1
1
1
1
1
1.00009
1.21989
7.39272
10.0996
9.80907
9.67873
9.56563
9.48182
9.40919
9.36071
9.32496
9.26505
9.20076
9.14666
9.09273
9.01034
8.91762
8.8465
8.78846
8.70658
8.61883
8.55805
1
1
1
1
1
1
1
1
1
1
1
1
1
1
1
1
1
1
1
1
1
1
1
1
1
1
1
1
1
1
1
1
1
1
1
1
1
1
1
1
1
1
1
1
1
1
1
1
1
1
1
1
1
1
1
1
1
1
1
1
1
1
1
1
1
1
1
1
1
1
1
1
1
1
1
1.00144
4.08011
9.39713
9.75703
9.72173
9.68852
9.64847
9.60392
9.55558
9.49907
9.43556
9.37467
9.30982
9.23559
9.14436
9.05179
8.98043
8.92482
8.84561
8.76591
8.70307
1
1
1
1
1
1
1
1
1
1
1
1
1
1
1
1
1
1
1
1
1
1
1
1
1
1
1
1
1
1
1
1
1
1
1
1
1
1
1
1
1
1
1
1
1
1
1
1
1
1
1
1
1
1
1
1
1
1
1
1
1
1
1
1
1
1
1
1
1
1
1
1
1
1
1
1
1.53086
7.8821
9.94391
9.85858
9.80433
9.75574
9.70936
9.65327
9.59041
9.52213
9.45136
9.37904
9.30333
9.22808
9.15997
9.10823
9.06007
8.98893
8.91431
8.84937
1
1
1
1
1
1
1
1
1
1
1
1
1
1
1
1
1
1
1
1
1
1
1
1
1
1
1
1
1
1
1
1
1
1
1
1
1
1
1
1
1
1
1
1
1
1
1
1
1
1
1
1
1
1
1
1
1
1
1
1
1
1
1
1
1
1
1
1
1
1
1
1
1
1
1
1
1.00866
5.08149
9.68055
9.86638
9.82522
9.79051
9.74755
9.69874
9.64889
9.59637
9.5411
9.48321
9.4237
9.36504
9.31185
9.25603
9.19042
9.11793
9.04863
8.98665
1
1
1
1
1
1
1
1
1
1
1
1
1
1
1
1
1
1
1
1
1
1
1
1
1
1
1
1
1
1
1
1
1
1
1
1
1
1
1
1
1
1
1
1
1
1
1
1
1
1
1
1
1
1
1
1
1
1
1
1
1
1
1
1
1
1
1
1
1
1
1
1
1
1
1
1
0.999997
2.31714
8.62719
9.95978
9.89836
9.85659
9.81463
9.76778
9.71978
9.67103
9.62199
9.57167
9.521
9.46923
9.41483
9.35338
9.2863
9.21933
9.1549
9.0903
1
1
1
1
1
1
1
1
1
1
1
1
1
1
1
1
1
1
1
1
1
1
1
1
1
1
1
1
1
1
1
1
1
1
1
1
1
1
1
1
1
1
1
1
1
1
1
1
1
1
1
1
1
1
1
1
1
1
1
1
1
1
1
1
1
1
1
1
1
1
1
1
1
1
1
1
0.999999
1.06012
6.39781
9.95414
9.97965
9.90612
9.86009
9.81427
9.76945
9.72267
9.67375
9.62372
9.57284
9.52045
9.46678
9.41092
9.35376
9.29739
9.24155
9.18403
1
1
1
1
1
1
1
1
1
1
1
1
1
1
1
1
1
1
1
1
1
1
1
1
1
1
1
1
1
1
1
1
1
1
1
1
1
1
1
1
1
1
1
1
1
1
1
1
1
1
1
1
1
1
1
1
1
1
1
1
1
1
1
1
1
1
1
1
1
1
1
1
1
1
1
1
1
1.00007
3.67227
9.35366
9.97049
9.9197
9.88713
9.84721
9.8049
9.76092
9.71596
9.66935
9.62136
9.57088
9.51973
9.46821
9.41624
9.36396
9.31075
9.25655
1
1
1
1
1
1
1
1
1
1
1
1
1
1
1
1
1
1
1
1
1
1
1
1
1
1
1
1
1
1
1
1
1
1
1
1
1
1
1
1
1
1
1
1
1
1
1
1
1
1
1
1
1
1
1
1
1
1
1
1
1
1
1
1
1
1
1
1
1
1
1
1
1
1
1
1
1
1
1.6541
8.1023
10.1116
10.0053
9.94826
9.89845
9.85263
9.80815
9.76392
9.71878
9.67319
9.62737
9.58101
9.53412
9.48582
9.43614
9.38397
9.32804
1
1
1
1
1
1
1
1
1
1
1
1
1
1
1
1
1
1
1
1
1
1
1
1
1
1
1
1
1
1
1
1
1
1
1
1
1
1
1
1
1
1
1
1
1
1
1
1
1
1
1
1
1
1
1
1
1
1
1
1
1
1
1
1
1
1
1
1
1
1
1
1
1
1
1
1
1
1
1.01531
6.03522
10.0145
10.054
9.99901
9.95198
9.90375
9.8569
9.8107
9.76452
9.7183
9.67192
9.62486
9.57733
9.52869
9.47889
9.42829
9.37656
1
1
1
1
1
1
1
1
1
1
1
1
1
1
1
1
1
1
1
1
1
1
1
1
1
1
1
1
1
1
1
1
1
1
1
1
1
1
1
1
1
1
1
1
1
1
1
1
1
1
1
1
1
1
1
1
1
1
1
1
1
1
1
1
1
1
1
1
1
1
1
1
1
1
1
1
1
1
0.999997
3.71845
9.44002
10.0323
9.98223
9.95475
9.91905
9.88064
9.84011
9.79767
9.75403
9.70921
9.66339
9.61671
9.56915
9.52054
9.47149
9.42141
1
1
1
1
1
1
1
1
1
1
1
1
1
1
1
1
1
1
1
1
1
1
1
1
1
1
1
1
1
1
1
1
1
1
1
1
1
1
1
1
1
1
1
1
1
1
1
1
1
1
1
1
1
1
1
1
1
1
1
1
1
1
1
1
1
1
1
1
1
1
1
1
1
1
1
1
1
1
0.999999
1.93419
8.3989
10.2029
10.1069
10.0561
10.0059
9.95769
9.91053
9.86335
9.81641
9.76902
9.72131
9.67301
9.62433
9.57501
9.52524
9.47489
1
1
1
1
1
1
1
1
1
1
1
1
1
1
1
1
1
1
1
1
1
1
1
1
1
1
1
1
1
1
1
1
1
1
1
1
1
1
1
1
1
1
1
1
1
1
1
1
1
1
1
1
1
1
1
1
1
1
1
1
1
1
1
1
1
1
1
1
1
1
1
1
1
1
1
1
1
1
1
1.03835
6.71043
10.2062
10.1583
10.0891
10.0375
9.989
9.94344
9.89736
9.85123
9.80468
9.75773
9.71027
9.66238
9.61403
9.56506
9.51569
1
1
1
1
1
1
1
1
1
1
1
1
1
1
1
1
1
1
1
1
1
1
1
1
1
1
1
1
1
1
1
1
1
1
1
1
1
1
1
1
1
1
1
1
1
1
1
1
1
1
1
1
1
1
1
1
1
1
1
1
1
1
1
1
1
1
1
1
1
1
1
1
1
1
1
1
1
1
1
1.00002
4.82136
9.87277
10.1232
10.0865
10.0579
10.0187
9.97696
9.9325
9.88718
9.84132
9.79479
9.74778
9.70029
9.65239
9.60392
9.5551
1
1
1
1
1
1
1
1
1
1
1
1
1
1
1
1
1
1
1
1
1
1
1
1
1
1
1
1
1
1
1
1
1
1
1
1
1
1
1
1
1
1
1
1
1
1
1
1
1
1
1
1
1
1
1
1
1
1
1
1
1
1
1
1
1
1
1
1
1
1
1
1
1
1
1
1
1
1
1
1
3.10131
9.22131
10.1752
10.1109
10.0815
10.0404
9.998
9.9544
9.91009
9.86544
9.82035
9.77472
9.72855
9.68183
9.63467
9.58709
1
1
1
1
1
1
1
1
1
1
1
1
1
1
1
1
1
1
1
1
1
1
1
1
1
1
1
1
1
1
1
1
1
1
1
1
1
1
1
1
1
1
1
1
1
1
1
1
1
1
1
1
1
1
1
1
1
1
1
1
1
1
1
1
1
1
1
1
1
1
1
1
1
1
1
1
1
1
1
1
1.79974
8.29687
10.2965
10.1998
10.1494
10.0974
10.049
10.0019
9.95604
9.91078
9.86546
9.81981
9.77371
9.72706
9.68
9.63241
1
1
1
1
1
1
1
1
1
1
1
1
1
1
1
1
1
1
1
1
1
1
1
1
1
1
1
1
1
1
1
1
1
1
1
1
1
1
1
1
1
1
1
1
1
1
1
1
1
1
1
1
1
1
1
1
1
1
1
1
1
1
1
1
1
1
1
1
1
1
1
1
1
1
1
1
1
1
1
1
1.04417
6.96567
10.314
10.2325
10.1648
10.1121
10.0651
10.0205
9.97716
9.93378
9.89011
9.8458
9.80082
9.75513
9.70895
9.66217
1
1
1
1
1
1
1
1
1
1
1
1
1
1
1
1
1
1
1
1
1
1
1
1
1
1
1
1
1
1
1
1
1
1
1
1
1
1
1
1
1
1
1
1
1
1
1
1
1
1
1
1
1
1
1
1
1
1
1
1
1
1
1
1
1
1
1
1
1
1
1
1
1
1
1
1
1
1
1
1
1.00008
5.5416
10.095
10.1938
10.1518
10.1208
10.0828
10.0429
10.0011
9.95811
9.91469
9.87071
9.82606
9.78078
9.73508
9.68891
1
1
1
1
1
1
1
1
1
1
1
1
1
1
1
1
1
1
1
1
1
1
1
1
1
1
1
1
1
1
1
1
1
1
1
1
1
1
1
1
1
1
1
1
1
1
1
1
1
1
1
1
1
1
1
1
1
1
1
1
1
1
1
1
1
1
1
1
1
1
1
1
1
1
1
1
1
1
1
1
1
4.19872
9.76233
10.2182
10.17
10.1444
10.1083
10.0707
10.0298
9.98692
9.94325
9.89912
9.8543
9.80903
9.76344
9.71749
1
1
1
1
1
1
1
1
1
1
1
1
1
1
1
1
1
1
1
1
1
1
1
1
1
1
1
1
1
1
1
1
1
1
1
1
1
1
1
1
1
1
1
1
1
1
1
1
1
1
1
1
1
1
1
1
1
1
1
1
1
1
1
1
1
1
1
1
1
1
1
1
1
1
1
1
1
1
1
1
1
3.01217
9.29545
10.2577
10.1932
10.1629
10.1223
10.0823
10.0409
9.99833
9.95482
9.91108
9.86699
9.8228
9.77827
9.73335
1
1
1
1
1
1
1
1
1
1
1
1
1
1
1
1
1
1
1
1
1
1
1
1
1
1
1
1
1
1
1
1
1
1
1
1
1
1
1
1
1
1
1
1
1
1
1
1
1
1
1
1
1
1
1
1
1
1
1
1
1
1
1
1
1
1
1
1
1
1
1
1
1
1
1
1
1
1
1
1
1
2.07334
8.66748
10.3166
10.2382
10.2004
10.1574
10.1161
10.0743
10.0319
9.9887
9.94517
9.90126
9.85729
9.81308
9.76835
1
1
1
1
1
1
1
1
1
1
1
1
1
1
1
1
1
1
1
1
1
1
1
1
1
1
1
1
1
1
1
1
1
1
1
1
1
1
1
1
1
1
1
1
1
1
1
1
1
1
1
1
1
1
1
1
1
1
1
1
1
1
1
1
1
1
1
1
1
1
1
1
1
1
1
1
1
1
1
1
1
1.44845
7.82311
10.368
10.2739
10.2218
10.1747
10.1311
10.0882
10.0459
10.0028
9.95946
9.9163
9.87318
9.82966
9.78567
1
1
1
1
1
1
1
1
1
1
1
1
1
1
1
1
1
1
1
1
1
1
1
1
1
1
1
1
1
1
1
1
1
1
1
1
1
1
1
1
1
1
1
1
1
1
1
1
1
1
1
1
1
1
1
1
1
1
1
1
1
1
1
1
1
1
1
1
1
1
1
1
1
1
1
1
1
1
1
1
1
1.08603
6.96865
10.3432
10.2929
10.2384
10.1928
10.1492
10.1057
10.0631
10.0201
9.97681
9.93379
9.89076
9.84731
9.80339
1
1
1
1
1
1
1
1
1
1
1
1
1
1
1
1
1
1
1
1
1
1
1
1
1
1
1
1
1
1
1
1
1
1
1
1
1
1
1
1
1
1
1
1
1
1
1
1
1
1
1
1
1
1
1
1
1
1
1
1
1
1
1
1
1
1
1
1
1
1
1
1
1
1
1
1
1
1
1
1
1
1.00083
6.13496
10.2359
10.2865
10.2322
10.1973
10.157
10.1166
10.0759
10.0347
9.99291
9.95082
9.90827
9.8652
9.82157
1
1
1
1
1
1
1
1
1
1
1
1
1
1
1
1
1
1
1
1
1
1
1
1
1
1
1
1
1
1
1
1
1
1
1
1
1
1
1
1
1
1
1
1
1
1
1
1
1
1
1
1
1
1
1
1
1
1
1
1
1
1
1
1
1
1
1
1
1
1
1
1
1
1
1
1
1
1
1
1
1
1
5.27943
10.1125
10.2918
10.2374
10.2071
10.1688
10.1306
10.0911
10.0515
10.0107
9.96926
9.92707
9.88452
9.84107
1
1
1
1
1
1
1
1
1
1
1
1
1
1
1
1
1
1
1
1
1
1
1
1
1
1
1
1
1
1
1
1
1
1
1
1
1
1
1
1
1
1
1
1
1
1
1
1
1
1
1
1
1
1
1
1
1
1
1
1
1
1
1
1
1
1
1
1
1
1
1
1
1
1
1
1
1
1
1
1
1
1
4.52624
9.95929
10.3125
10.2526
10.2224
10.1845
10.147
10.1076
10.0681
10.0273
9.98587
9.94359
9.90104
9.85742
1
1
1
1
1
1
1
1
1
1
1
1
1
1
1
1
1
1
1
1
1
1
1
1
1
1
1
1
1
1
1
1
1
1
1
1
1
1
1
1
1
1
1
1
1
1
1
1
1
1
1
1
1
1
1
1
1
1
1
1
1
1
1
1
1
1
1
1
1
1
1
1
1
1
1
1
1
1
1
1
1
1
3.9087
9.77381
10.3392
10.2676
10.2342
10.1947
10.1562
10.1165
10.0769
10.0363
9.99512
9.95332
9.91123
9.86801
1
1
1
1
1
1
1
1
1
1
1
1
1
1
1
1
1
1
1
1
1
1
1
1
1
1
1
1
1
1
1
1
1
1
1
1
1
1
1
1
1
1
1
1
1
1
1
1
1
1
1
1
1
1
1
1
1
1
1
1
1
1
1
1
1
1
1
1
1
1
1
1
1
1
1
1
1
1
1
1
1
1
3.41112
9.57233
10.3591
10.2815
10.247
10.2066
10.1671
10.1268
10.0867
10.046
10.0045
9.96262
9.92033
9.87707
1
1
1
1
1
1
1
1
1
1
1
1
1
1
1
1
1
1
1
1
1
1
1
1
1
1
1
1
1
1
1
1
1
1
1
1
1
1
1
1
1
1
1
1
1
1
1
1
1
1
1
1
1
1
1
1
1
1
1
1
1
1
1
1
1
1
1
1
1
1
1
1
1
1
1
1
1
1
1
1
1
1
2.99656
9.42883
10.3726
10.2913
10.2551
10.2142
10.1745
10.1341
10.0935
10.0529
10.0111
9.96928
9.92683
9.88368
1
1
1
1
1
1
1
1
1
1
1
1
1
1
1
1
1
1
1
1
1
1
1
1
1
1
1
1
1
1
1
1
1
1
1
1
1
1
1
1
1
1
1
1
1
1
1
1
1
1
1
1
1
1
1
1
1
1
1
1
1
1
1
1
1
1
1
1
1
1
1
1
1
1
1
1
1
1
1
1
1
1
2.70181
9.27807
10.3799
10.2984
10.262
10.221
10.1811
10.1407
10.0996
10.0589
10.0171
9.97538
9.93277
9.88976
1
1
1
1
1
1
1
1
1
1
1
1
1
1
1
1
1
1
1
1
1
1
1
1
1
1
1
1
1
1
1
1
1
1
1
1
1
1
1
1
1
1
1
1
1
1
1
1
1
1
1
1
1
1
1
1
1
1
1
1
1
1
1
1
1
1
1
1
1
1
1
1
1
1
1
1
1
1
1
1
1
1
2.50279
9.14869
10.3826
10.3021
10.2659
10.2251
10.1855
10.1453
10.1042
10.0636
10.022
9.98042
9.93771
9.89491
1
1
1
1
1
1
1
1
1
1
1
1
1
1
1
1
1
1
1
1
1
1
1
1
1
1
1
1
1
1
1
1
1
1
1
1
1
1
1
1
1
1
1
1
1
1
1
1
1
1
1
1
1
1
1
1
1
1
1
1
1
1
1
1
1