/*--------------------------------*- C++ -*----------------------------------*\
  =========                 |
  \\      /  F ield         | OpenFOAM: The Open Source CFD Toolbox
   \\    /   O peration     | Website:  https://openfoam.org
    \\  /    A nd           | Version:  7
     \\/     M anipulation  |
\*---------------------------------------------------------------------------*/
FoamFile
{
    version     2.0;
    format      ascii;
    class       volScalarField;
    location    "8.6";
    object      rho;
}
// * * * * * * * * * * * * * * * * * * * * * * * * * * * * * * * * * * * * * //

dimensions      [1 -3 0 0 0 0 0];

internalField   nonuniform List<scalar> 
19968
(
1.40001
1.40001
1.40001
1.40001
1.40001
1.40001
1.40001
1.40001
1.40001
1.40001
1.40001
1.40001
1.40001
1.40001
1.40001
1.40001
1.40001
1.40001
1.40001
1.40001
1.40001
1.40001
1.40001
1.40001
1.40001
1.40001
1.40001
1.40001
1.40001
1.40001
1.40001
1.40001
1.40001
1.40001
1.40001
1.40001
1.40001
1.40001
1.40001
1.40001
1.40001
1.40001
1.40001
1.40001
1.40001
1.40001
1.40001
1.40001
1.72066
4.59264
5.42305
5.439
5.46279
5.48241
5.50199
5.52109
5.54121
5.5624
5.58358
5.60441
5.62478
5.64422
5.66216
5.67846
5.69439
5.71146
5.72989
5.74891
5.76745
5.78421
5.79853
5.81089
5.82248
5.83449
5.84781
5.86251
5.87754
5.89133
5.90296
5.91263
5.92127
5.92996
5.93941
5.9495
5.95954
5.96884
5.97709
5.98434
5.99077
5.9965
6.00132
6.00483
6.00689
6.00761
6.00772
6.00738
1.40001
1.40001
1.40001
1.40001
1.40001
1.40001
1.40001
1.40001
1.40001
1.40001
1.40001
1.40001
1.40001
1.40001
1.40001
1.40001
1.40001
1.40001
1.40001
1.40001
1.40001
1.40001
1.40001
1.40001
1.40001
1.40001
1.40001
1.40001
1.40001
1.40001
1.40001
1.40001
1.40001
1.40001
1.40001
1.40001
1.40001
1.40001
1.40001
1.40001
1.40001
1.40001
1.40001
1.40001
1.40001
1.40001
1.40001
1.40001
1.7026
4.56649
5.42002
5.43911
5.46214
5.48181
5.50139
5.52055
5.54053
5.56164
5.58277
5.60365
5.624
5.64321
5.66099
5.67723
5.6933
5.7104
5.72878
5.7477
5.7661
5.78272
5.79692
5.80925
5.82089
5.83298
5.84635
5.86102
5.87594
5.88962
5.90119
5.91088
5.91957
5.92833
5.93783
5.94795
5.95799
5.96724
5.9754
5.98247
5.98866
5.99413
5.99872
6.00214
6.00422
6.00507
6.00532
6.0052
1.40001
1.40001
1.40001
1.40001
1.40001
1.40001
1.40001
1.40001
1.40001
1.40001
1.40001
1.40001
1.40001
1.40001
1.40001
1.40001
1.40001
1.40001
1.40001
1.40001
1.40001
1.40001
1.40001
1.40001
1.40001
1.40001
1.40001
1.40001
1.40001
1.40001
1.40001
1.40001
1.40001
1.40001
1.40001
1.40001
1.40001
1.40001
1.40001
1.40001
1.40001
1.40001
1.40001
1.40001
1.40001
1.40001
1.40001
1.40001
1.66384
4.51298
5.42061
5.43405
5.45782
5.47789
5.49832
5.51837
5.53887
5.56011
5.58088
5.60135
5.62138
5.64026
5.65813
5.67451
5.6909
5.70809
5.7264
5.74512
5.7633
5.77976
5.79391
5.80629
5.81803
5.83022
5.84357
5.85805
5.87271
5.8862
5.89774
5.90752
5.91635
5.92523
5.93481
5.94498
5.95506
5.96432
5.97239
5.97928
5.98522
5.99042
5.99485
5.99825
6.00044
6.00147
6.00184
6.00199
1.40001
1.40001
1.40001
1.40001
1.40001
1.40001
1.40001
1.40001
1.40001
1.40001
1.40001
1.40001
1.40001
1.40001
1.40001
1.40001
1.40001
1.40001
1.40001
1.40001
1.40001
1.40001
1.40001
1.40001
1.40001
1.40001
1.40001
1.40001
1.40001
1.40001
1.40001
1.40001
1.40001
1.40001
1.40001
1.40001
1.40001
1.40001
1.40001
1.40001
1.40001
1.40001
1.40001
1.40001
1.40001
1.40001
1.40001
1.40001
1.60795
4.42335
5.41799
5.42843
5.45203
5.47292
5.49467
5.51606
5.5374
5.55872
5.57877
5.59835
5.61777
5.63632
5.65434
5.67095
5.68763
5.70477
5.72282
5.74118
5.75908
5.77539
5.78957
5.80206
5.81392
5.82618
5.83946
5.8537
5.86801
5.88123
5.89267
5.90251
5.9115
5.92053
5.93018
5.94034
5.95031
5.95938
5.96715
5.97365
5.97913
5.98393
5.98816
5.99166
5.99421
5.99574
5.99649
5.99714
1.40001
1.40001
1.40001
1.40001
1.40001
1.40001
1.40001
1.40001
1.40001
1.40001
1.40001
1.40001
1.40001
1.40001
1.40001
1.40001
1.40001
1.40001
1.40001
1.40001
1.40001
1.40001
1.40001
1.40001
1.40001
1.40001
1.40001
1.40001
1.40001
1.40001
1.40001
1.40001
1.40001
1.40001
1.40001
1.40001
1.40001
1.40001
1.40001
1.40001
1.40001
1.40001
1.40001
1.40001
1.40001
1.40001
1.40001
1.40001
1.53581
4.30065
5.4184
5.42491
5.44725
5.46875
5.49123
5.51326
5.53475
5.55559
5.57478
5.59359
5.6126
5.63096
5.64929
5.66631
5.68332
5.70032
5.71794
5.73579
5.7534
5.76974
5.78413
5.79688
5.80892
5.82124
5.83441
5.84833
5.86223
5.87513
5.88647
5.89642
5.90565
5.91497
5.92482
5.93504
5.94492
5.95371
5.96103
5.96687
5.97157
5.97555
5.97917
5.98243
5.98511
5.987
5.98804
5.98912
1.40001
1.40001
1.40001
1.40001
1.40001
1.40001
1.40001
1.40001
1.40001
1.40001
1.40001
1.40001
1.40001
1.40001
1.40001
1.40001
1.40001
1.40001
1.40001
1.40001
1.40001
1.40001
1.40001
1.40001
1.40001
1.40001
1.40001
1.40001
1.40001
1.40001
1.40001
1.40001
1.40001
1.40001
1.40001
1.40001
1.40001
1.40001
1.40001
1.40001
1.40001
1.40001
1.40001
1.40001
1.40001
1.40001
1.40001
1.40001
1.41567
4.10485
5.41509
5.42301
5.44313
5.46574
5.4891
5.51177
5.53309
5.5529
5.57113
5.58926
5.60781
5.62585
5.64441
5.6618
5.67888
5.69532
5.71195
5.7288
5.74581
5.76201
5.77649
5.78927
5.80123
5.81335
5.82617
5.83956
5.85283
5.86517
5.87616
5.88603
5.89541
5.90498
5.91507
5.92542
5.93531
5.94399
5.95106
5.95653
5.96077
5.96434
5.96779
5.97124
5.97443
5.97701
5.97856
5.9802
1.40001
1.40001
1.40001
1.40001
1.40001
1.40001
1.40001
1.40001
1.40001
1.40001
1.40001
1.40001
1.40001
1.40001
1.40001
1.40001
1.40001
1.40001
1.40001
1.40001
1.40001
1.40001
1.40001
1.40001
1.40001
1.40001
1.40001
1.40001
1.40001
1.40001
1.40001
1.40001
1.40001
1.40001
1.40001
1.40001
1.40001
1.40001
1.40001
1.40001
1.40001
1.40001
1.40001
1.40001
1.40001
1.40001
1.40001
1.40001
1.40014
3.8086
5.37296
5.40532
5.42684
5.45194
5.47619
5.49927
5.5206
5.54009
5.55801
5.5758
5.59415
5.61216
5.63092
5.64865
5.66578
5.68193
5.69789
5.71412
5.73087
5.74719
5.76202
5.77518
5.78744
5.79977
5.81261
5.82576
5.83861
5.85051
5.86122
5.87106
5.88064
5.89054
5.90099
5.91161
5.92162
5.93025
5.93707
5.94212
5.94586
5.94898
5.95226
5.95589
5.95956
5.96276
5.96482
5.96692
1.40001
1.40001
1.40001
1.40001
1.40001
1.40001
1.40001
1.40001
1.40001
1.40001
1.40001
1.40001
1.40001
1.40001
1.40001
1.40001
1.40001
1.40001
1.40001
1.40001
1.40001
1.40001
1.40001
1.40001
1.40001
1.40001
1.40001
1.40001
1.40001
1.40001
1.40001
1.40001
1.40001
1.40001
1.40001
1.40001
1.40001
1.40001
1.40001
1.40001
1.40001
1.40001
1.40001
1.40001
1.40001
1.40001
1.40001
1.40001
1.40001
3.41155
5.31827
5.39661
5.41907
5.44559
5.4695
5.49217
5.51327
5.53267
5.55047
5.56786
5.5858
5.60352
5.62172
5.63904
5.65562
5.67114
5.68626
5.7017
5.71783
5.73379
5.74842
5.76142
5.77357
5.78575
5.79837
5.81113
5.82341
5.83469
5.84489
5.85439
5.86384
5.8738
5.88439
5.89514
5.90516
5.91362
5.9201
5.92465
5.92782
5.93048
5.93357
5.93732
5.94135
5.94507
5.94759
5.95002
1.40001
1.40001
1.40001
1.40001
1.40001
1.40001
1.40001
1.40001
1.40001
1.40001
1.40001
1.40001
1.40001
1.40001
1.40001
1.40001
1.40001
1.40001
1.40001
1.40001
1.40001
1.40001
1.40001
1.40001
1.40001
1.40001
1.40001
1.40001
1.40001
1.40001
1.40001
1.40001
1.40001
1.40001
1.40001
1.40001
1.40001
1.40001
1.40001
1.40001
1.40001
1.40001
1.40001
1.40001
1.40001
1.40001
1.40001
1.40001
1.40001
2.93607
5.22836
5.39543
5.41488
5.44063
5.46358
5.48552
5.50609
5.52532
5.54318
5.56026
5.57755
5.59458
5.61157
5.62785
5.64334
5.65791
5.67193
5.68633
5.7015
5.71662
5.73062
5.7431
5.75485
5.76669
5.77897
5.79132
5.80311
5.8138
5.82331
5.83214
5.84105
5.8507
5.86124
5.87209
5.88219
5.8906
5.89685
5.90108
5.90396
5.90642
5.90949
5.9134
5.91776
5.92195
5.9249
5.92755
1.40001
1.40001
1.40001
1.40001
1.40001
1.40001
1.40001
1.40001
1.40001
1.40001
1.40001
1.40001
1.40001
1.40001
1.40001
1.40001
1.40001
1.40001
1.40001
1.40001
1.40001
1.40001
1.40001
1.40001
1.40001
1.40001
1.40001
1.40001
1.40001
1.40001
1.40001
1.40001
1.40001
1.40001
1.40001
1.40001
1.40001
1.40001
1.40001
1.40001
1.40001
1.40001
1.40001
1.40001
1.40001
1.40001
1.40001
1.40001
1.40001
2.4016
5.05481
5.40016
5.42039
5.44408
5.46495
5.48446
5.50287
5.52069
5.53792
5.55446
5.57077
5.58676
5.60229
5.61724
5.63152
5.64518
5.65822
5.67161
5.68572
5.69969
5.7127
5.72412
5.73482
5.74561
5.75689
5.76825
5.77905
5.7887
5.79708
5.80473
5.81263
5.82169
5.83211
5.84318
5.85355
5.86202
5.86807
5.8719
5.87432
5.87635
5.87897
5.88253
5.8867
5.89097
5.89411
5.89682
1.40001
1.40001
1.40001
1.40001
1.40001
1.40001
1.40001
1.40001
1.40001
1.40001
1.40001
1.40001
1.40001
1.40001
1.40001
1.40001
1.40001
1.40001
1.40001
1.40001
1.40001
1.40001
1.40001
1.40001
1.40001
1.40001
1.40001
1.40001
1.40001
1.40001
1.40001
1.40001
1.40001
1.40001
1.40001
1.40001
1.40001
1.40001
1.40001
1.40001
1.40001
1.40001
1.40001
1.40001
1.40001
1.40001
1.40001
1.40001
1.40001
1.87974
4.74076
5.41533
5.41159
5.43502
5.45368
5.47288
5.49118
5.50884
5.526
5.54261
5.55859
5.57445
5.58973
5.60407
5.61754
5.63058
5.6431
5.6559
5.6693
5.68226
5.69434
5.70476
5.71439
5.72396
5.73403
5.74426
5.75387
5.76209
5.76873
5.77439
5.78027
5.78756
5.79664
5.80676
5.81639
5.82412
5.8294
5.83258
5.83457
5.83637
5.83879
5.84216
5.8463
5.85071
5.85412
5.85704
1.40001
1.40001
1.40001
1.40001
1.40001
1.40001
1.40001
1.40001
1.40001
1.40001
1.40001
1.40001
1.40001
1.40001
1.40001
1.40001
1.40001
1.40001
1.40001
1.40001
1.40001
1.40001
1.40001
1.40001
1.40001
1.40001
1.40001
1.40001
1.40001
1.40001
1.40001
1.40001
1.40001
1.40001
1.40001
1.40001
1.40001
1.40001
1.40001
1.40001
1.40001
1.40001
1.40001
1.40001
1.40001
1.40001
1.40001
1.40001
1.40001
1.42438
4.09942
5.41155
5.42095
5.43522
5.45119
5.46805
5.48451
5.50035
5.51586
5.53137
5.54607
5.56059
5.57469
5.58775
5.60001
5.61196
5.62331
5.63471
5.64679
5.65838
5.66911
5.67824
5.68636
5.69442
5.70301
5.71198
5.72044
5.72749
5.73277
5.73683
5.74097
5.74655
5.75425
5.76351
5.77275
5.78022
5.78501
5.78742
5.78827
5.78837
5.78847
5.78926
5.79118
5.79393
5.79631
5.7987
1.40001
1.40001
1.40001
1.40001
1.40001
1.40001
1.40001
1.40001
1.40001
1.40001
1.40001
1.40001
1.40001
1.40001
1.40001
1.40001
1.40001
1.40001
1.40001
1.40001
1.40001
1.40001
1.40001
1.40001
1.40001
1.40001
1.40001
1.40001
1.40001
1.40001
1.40001
1.40001
1.40001
1.40001
1.40001
1.40001
1.40001
1.40001
1.40001
1.40001
1.40001
1.40001
1.40001
1.40001
1.40001
1.40001
1.40001
1.40001
1.40001
1.40005
3.2157
5.24726
5.36105
5.38757
5.41202
5.43215
5.45037
5.46684
5.48212
5.49713
5.51177
5.52593
5.54012
5.55357
5.56569
5.57735
5.58855
5.59954
5.61115
5.62245
5.63257
5.64115
5.64836
5.65533
5.6626
5.67025
5.67755
5.68355
5.6877
5.69032
5.69246
5.69535
5.69997
5.70637
5.7132
5.7183
5.7206
5.72065
5.71873
5.71613
5.71456
5.71461
5.71634
5.71952
5.72201
5.72454
1.40001
1.40001
1.40001
1.40001
1.40001
1.40001
1.40001
1.40001
1.40001
1.40001
1.40001
1.40001
1.40001
1.40001
1.40001
1.40001
1.40001
1.40001
1.40001
1.40001
1.40001
1.40001
1.40001
1.40001
1.40001
1.40001
1.40001
1.40001
1.40001
1.40001
1.40001
1.40001
1.40001
1.40001
1.40001
1.40001
1.40001
1.40001
1.40001
1.40001
1.40001
1.40001
1.40001
1.40001
1.40001
1.40001
1.40001
1.40001
1.40001
1.4
2.1825
4.89501
5.36273
5.37429
5.40111
5.42114
5.43837
5.45335
5.46678
5.47958
5.49246
5.505
5.51782
5.53048
5.5417
5.55202
5.56183
5.57123
5.58093
5.59069
5.59917
5.6062
5.61161
5.61635
5.62106
5.62597
5.63087
5.635
5.63753
5.63835
5.6379
5.63707
5.63713
5.63914
5.64262
5.64541
5.64656
5.64508
5.64029
5.63439
5.62835
5.62303
5.61745
5.61177
5.60565
5.6001
1.40001
1.40001
1.40001
1.40001
1.40001
1.40001
1.40001
1.40001
1.40001
1.40001
1.40001
1.40001
1.40001
1.40001
1.40001
1.40001
1.40001
1.40001
1.40001
1.40001
1.40001
1.40001
1.40001
1.40001
1.40001
1.40001
1.40001
1.40001
1.40001
1.40001
1.40001
1.40001
1.40001
1.40001
1.40001
1.40001
1.40001
1.40001
1.40001
1.40001
1.40001
1.40001
1.40001
1.40001
1.40001
1.40001
1.40001
1.40001
1.40001
1.40001
1.44419
3.98508
5.38667
5.3951
5.40451
5.41594
5.42624
5.43593
5.44529
5.45471
5.46505
5.47587
5.4868
5.49785
5.50781
5.51645
5.52443
5.53187
5.53923
5.54692
5.5539
5.55943
5.56321
5.56561
5.56733
5.5689
5.57065
5.57234
5.57332
5.57289
5.56981
5.56434
5.55835
5.55367
5.55031
5.54686
5.54098
5.5306
5.51516
5.4962
5.47614
5.45701
5.44205
5.43013
5.42518
5.42274
1.40001
1.40001
1.40001
1.40001
1.40001
1.40001
1.40001
1.40001
1.40001
1.40001
1.40001
1.40001
1.40001
1.40001
1.40001
1.40001
1.40001
1.40001
1.40001
1.40001
1.40001
1.40001
1.40001
1.40001
1.40001
1.40001
1.40001
1.40001
1.40001
1.40001
1.40001
1.40001
1.40001
1.40001
1.40001
1.40001
1.40001
1.40001
1.40001
1.40001
1.40001
1.40001
1.40001
1.40001
1.40001
1.40001
1.40001
1.40001
1.40001
1.40001
1.40006
2.63313
5.08856
5.34206
5.35571
5.37274
5.38727
5.40025
5.41177
5.42196
5.4314
5.44067
5.44965
5.45876
5.46771
5.47564
5.48253
5.48865
5.49427
5.4998
5.50487
5.5084
5.51008
5.51017
5.50858
5.50583
5.5027
5.50005
5.49778
5.49469
5.48854
5.47816
5.46528
5.45166
5.43816
5.42438
5.4085
5.38865
5.36411
5.33625
5.3072
5.27845
5.24368
5.20465
5.14952
5.1686
1.40001
1.40001
1.40001
1.40001
1.40001
1.40001
1.40001
1.40001
1.40001
1.40001
1.40001
1.40001
1.40001
1.40001
1.40001
1.40001
1.40001
1.40001
1.40001
1.40001
1.40001
1.40001
1.40001
1.40001
1.40001
1.40001
1.40001
1.40001
1.40001
1.40001
1.40001
1.40001
1.40001
1.40001
1.40001
1.40001
1.40001
1.40001
1.40001
1.40001
1.40001
1.40001
1.40001
1.40001
1.40001
1.40001
1.40001
1.40001
1.40001
1.40001
1.40001
1.57103
4.39943
5.35749
5.35414
5.36184
5.37226
5.38273
5.39288
5.40189
5.40932
5.41607
5.42221
5.42791
5.43382
5.4395
5.44449
5.44885
5.45258
5.4557
5.45818
5.45936
5.45894
5.45666
5.45222
5.44548
5.43778
5.43025
5.42328
5.41597
5.40592
5.39164
5.37299
5.35081
5.32622
5.29968
5.2697
5.23416
5.18937
5.13347
5.05961
4.96205
4.81451
4.58725
4.17988
3.27452
1.40001
1.40001
1.40001
1.40001
1.40001
1.40001
1.40001
1.40001
1.40001
1.40001
1.40001
1.40001
1.40001
1.40001
1.40001
1.40001
1.40001
1.40001
1.40001
1.40001
1.40001
1.40001
1.40001
1.40001
1.40001
1.40001
1.40001
1.40001
1.40001
1.40001
1.40001
1.40001
1.40001
1.40001
1.40001
1.40001
1.40001
1.40001
1.40001
1.40001
1.40001
1.40001
1.40001
1.40001
1.40001
1.40001
1.40001
1.40001
1.40001
1.40001
1.4
1.40157
3.25273
5.17417
5.30563
5.32466
5.34081
5.35417
5.36732
5.37816
5.3851
5.38956
5.39274
5.39579
5.39954
5.40362
5.40711
5.40979
5.4121
5.41394
5.41491
5.41439
5.41175
5.40718
5.40058
5.39167
5.3812
5.36971
5.35766
5.34493
5.33035
5.31219
5.2889
5.26002
5.22581
5.18725
5.1427
5.09123
5.02611
4.94519
4.83483
4.69207
4.48474
4.21807
3.67494
2.9155
1.40001
1.40001
1.40001
1.40001
1.40001
1.40001
1.40001
1.40001
1.40001
1.40001
1.40001
1.40001
1.40001
1.40001
1.40001
1.40001
1.40001
1.40001
1.40001
1.40001
1.40001
1.40001
1.40001
1.40001
1.40001
1.40001
1.40001
1.40001
1.40001
1.40001
1.40001
1.40001
1.40001
1.40001
1.40001
1.40001
1.40001
1.40001
1.40001
1.40001
1.40001
1.40001
1.40001
1.40001
1.40001
1.40001
1.40001
1.40001
1.40001
1.40001
1.40001
1.4
1.97744
4.73466
5.31686
5.31508
5.32989
5.34206
5.35576
5.36552
5.3701
5.37258
5.37397
5.37517
5.37657
5.37788
5.37839
5.37802
5.37754
5.37694
5.3756
5.37252
5.36697
5.35922
5.34942
5.33776
5.32439
5.30913
5.29198
5.27331
5.25286
5.22953
5.20097
5.16599
5.1232
5.07386
5.01592
4.94954
4.86802
4.76706
4.63668
4.46609
4.25077
3.93025
3.48658
2.97429
1.40001
1.40001
1.40001
1.40001
1.40001
1.40001
1.40001
1.40001
1.40001
1.40001
1.40001
1.40001
1.40001
1.40001
1.40001
1.40001
1.40001
1.40001
1.40001
1.40001
1.40001
1.40001
1.40001
1.40001
1.40001
1.40001
1.40001
1.40001
1.40001
1.40001
1.40001
1.40001
1.40001
1.40001
1.40001
1.40001
1.40001
1.40001
1.40001
1.40001
1.40001
1.40001
1.40001
1.40001
1.40001
1.40001
1.40001
1.40001
1.40001
1.40001
1.40001
1.4
1.42625
3.56935
5.22095
5.31015
5.32432
5.33262
5.33872
5.341
5.34252
5.34599
5.34926
5.35146
5.35247
5.35217
5.34998
5.34615
5.34183
5.33754
5.33329
5.32794
5.32024
5.30987
5.29695
5.28203
5.26518
5.24616
5.22457
5.20091
5.17488
5.14625
5.11235
5.07194
5.02232
4.96439
4.89633
4.818
4.72521
4.61249
4.47383
4.29744
4.07854
3.79504
3.45826
3.07876
1.40001
1.40001
1.40001
1.40001
1.40001
1.40001
1.40001
1.40001
1.40001
1.40001
1.40001
1.40001
1.40001
1.40001
1.40001
1.40001
1.40001
1.40001
1.40001
1.40001
1.40001
1.40001
1.40001
1.40001
1.40001
1.40001
1.40001
1.40001
1.40001
1.40001
1.40001
1.40001
1.40001
1.40001
1.40001
1.40001
1.40001
1.40001
1.40001
1.40001
1.40001
1.40001
1.40001
1.40001
1.40001
1.40001
1.40001
1.40001
1.40001
1.40001
1.40001
1.40001
1.4
2.09612
4.8108
5.3259
5.30815
5.31776
5.321
5.32084
5.32043
5.32277
5.32606
5.32861
5.32984
5.32878
5.32462
5.31744
5.30854
5.2994
5.29128
5.28318
5.27367
5.2618
5.24682
5.22891
5.20803
5.18451
5.15819
5.13002
5.09931
5.06592
5.02711
4.98161
4.92683
4.86291
4.7887
4.70341
4.60457
4.4874
4.34955
4.17818
3.97581
3.74104
3.47338
3.17892
1.40001
1.40001
1.40001
1.40001
1.40001
1.40001
1.40001
1.40001
1.40001
1.40001
1.40001
1.40001
1.40001
1.40001
1.40001
1.40001
1.40001
1.40001
1.40001
1.40001
1.40001
1.40001
1.40001
1.40001
1.40001
1.40001
1.40001
1.40001
1.40001
1.40001
1.40001
1.40001
1.40001
1.40001
1.40001
1.40001
1.40001
1.40001
1.40001
1.40001
1.40001
1.40001
1.40001
1.40001
1.40001
1.40001
1.40001
1.40001
1.40001
1.40001
1.40001
1.40001
1.4
1.43471
3.60044
5.24884
5.27956
5.29192
5.29492
5.29576
5.29685
5.29956
5.30266
5.30464
5.30537
5.30385
5.29905
5.28986
5.27777
5.26462
5.25183
5.23936
5.22678
5.21329
5.19713
5.17736
5.15328
5.12563
5.0948
5.06242
5.02768
4.99
4.94681
4.8969
4.83847
4.77108
4.694
4.60602
4.50566
4.38947
4.25618
4.09888
3.91933
3.72265
3.50475
3.26292
1.40001
1.40001
1.40001
1.40001
1.40001
1.40001
1.40001
1.40001
1.40001
1.40001
1.40001
1.40001
1.40001
1.40001
1.40001
1.40001
1.40001
1.40001
1.40001
1.40001
1.40001
1.40001
1.40001
1.40001
1.40001
1.40001
1.40001
1.40001
1.40001
1.40001
1.40001
1.40001
1.40001
1.40001
1.40001
1.40001
1.40001
1.40001
1.40001
1.40001
1.40001
1.40001
1.40001
1.40001
1.40001
1.40001
1.40001
1.40001
1.40001
1.40001
1.40001
1.40001
1.40001
1.40003
2.01504
4.75811
5.29608
5.27763
5.27639
5.27296
5.27157
5.27231
5.27384
5.275
5.27433
5.27216
5.26717
5.25684
5.24393
5.22973
5.21352
5.19732
5.18107
5.16512
5.1475
5.12614
5.09973
5.06915
5.03516
4.9997
4.96188
4.92052
4.87342
4.81981
4.75876
4.68972
4.61219
4.52449
4.42751
4.31436
4.19006
4.0478
3.88935
3.72418
3.53555
3.33376
1.40001
1.40001
1.40001
1.40001
1.40001
1.40001
1.40001
1.40001
1.40001
1.40001
1.40001
1.40001
1.40001
1.40001
1.40001
1.40001
1.40001
1.40001
1.40001
1.40001
1.40001
1.40001
1.40001
1.40001
1.40001
1.40001
1.40001
1.40001
1.40001
1.40001
1.40001
1.40001
1.40001
1.40001
1.40001
1.40001
1.40001
1.40001
1.40001
1.40001
1.40001
1.40001
1.40001
1.40001
1.40001
1.40001
1.40001
1.40001
1.40001
1.40001
1.40001
1.40001
1.40001
1.40001
1.42472
3.3505
5.1565
5.2491
5.24614
5.24557
5.24885
5.25119
5.25258
5.25224
5.24919
5.24474
5.238
5.22624
5.21303
5.19862
5.18075
5.16193
5.14176
5.122
5.10119
5.07723
5.04859
5.01627
4.98095
4.94384
4.90375
4.85928
4.80864
4.75186
4.68885
4.61929
4.54275
4.45697
4.36517
4.25629
4.1416
4.01493
3.87575
3.72783
3.567
3.39615
1.40001
1.40001
1.40001
1.40001
1.40001
1.40001
1.40001
1.40001
1.40001
1.40001
1.40001
1.40001
1.40001
1.40001
1.40001
1.40001
1.40001
1.40001
1.40001
1.40001
1.40001
1.40001
1.40001
1.40001
1.40001
1.40001
1.40001
1.40001
1.40001
1.40001
1.40001
1.40001
1.40001
1.40001
1.40001
1.40001
1.40001
1.40001
1.40001
1.40001
1.40001
1.40001
1.40001
1.40001
1.40001
1.40001
1.40001
1.40001
1.40001
1.40001
1.40001
1.40001
1.40001
1.40001
1.40002
1.73743
4.53324
5.28232
5.25493
5.2418
5.23227
5.22813
5.22559
5.22185
5.21587
5.20875
5.20012
5.1874
5.17407
5.16019
5.14291
5.12419
5.10274
5.08076
5.05702
5.03017
4.99941
4.96585
4.93012
4.89249
4.85133
4.80517
4.75249
4.69361
4.62919
4.55938
4.48446
4.40118
4.31383
4.21162
4.10681
3.99462
3.86734
3.73551
3.59848
3.45191
1.40001
1.40001
1.40001
1.40001
1.40001
1.40001
1.40001
1.40001
1.40001
1.40001
1.40001
1.40001
1.40001
1.40001
1.40001
1.40001
1.40001
1.40001
1.40001
1.40001
1.40001
1.40001
1.40001
1.40001
1.40001
1.40001
1.40001
1.40001
1.40001
1.40001
1.40001
1.40001
1.40001
1.40001
1.40001
1.40001
1.40001
1.40001
1.40001
1.40001
1.40001
1.40001
1.40001
1.40001
1.40001
1.40001
1.40001
1.40001
1.40001
1.40001
1.40001
1.40001
1.40001
1.40001
1.40001
1.40619
2.92643
5.03191
5.19301
5.19969
5.20103
5.19716
5.192
5.18576
5.17884
5.17113
5.16189
5.14852
5.13452
5.12015
5.10354
5.08579
5.06484
5.04221
5.01602
4.98629
4.95354
4.91915
4.88291
4.84478
4.80316
4.75653
4.70377
4.64465
4.58023
4.51054
4.43762
4.35603
4.27225
4.17795
4.08228
3.97842
3.86215
3.74805
3.62698
3.49695
1.40001
1.40001
1.40001
1.40001
1.40001
1.40001
1.40001
1.40001
1.40001
1.40001
1.40001
1.40001
1.40001
1.40001
1.40001
1.40001
1.40001
1.40001
1.40001
1.40001
1.40001
1.40001
1.40001
1.40001
1.40001
1.40001
1.40001
1.40001
1.40001
1.40001
1.40001
1.40001
1.40001
1.40001
1.40001
1.40001
1.40001
1.40001
1.40001
1.40001
1.40001
1.40001
1.40001
1.40001
1.40001
1.40001
1.40001
1.40001
1.40001
1.40001
1.40001
1.40001
1.40001
1.40001
1.40001
1.40001
1.55019
3.98353
5.18108
5.18964
5.18089
5.1738
5.16832
5.16133
5.15336
5.14341
5.13192
5.11593
5.09912
5.08278
5.06576
5.04822
5.02803
5.0053
4.9784
4.94737
4.91318
4.87729
4.84006
4.80104
4.75881
4.71217
4.66074
4.60302
4.54021
4.47124
4.40055
4.32038
4.24024
4.15325
4.06285
3.96559
3.86349
3.76199
3.6482
3.53191
1.40001
1.40001
1.40001
1.40001
1.40001
1.40001
1.40001
1.40001
1.40001
1.40001
1.40001
1.40001
1.40001
1.40001
1.40001
1.40001
1.40001
1.40001
1.40001
1.40001
1.40001
1.40001
1.40001
1.40001
1.40001
1.40001
1.40001
1.40001
1.40001
1.40001
1.40001
1.40001
1.40001
1.40001
1.40001
1.40001
1.40001
1.40001
1.40001
1.40001
1.40001
1.40001
1.40001
1.40001
1.40001
1.40001
1.40001
1.40001
1.40001
1.40001
1.40001
1.40001
1.40001
1.40001
1.40001
1.40001
1.40109
2.11745
4.75696
5.17653
5.15175
5.15139
5.14709
5.13942
5.1297
5.11757
5.10356
5.08611
5.06725
5.04896
5.0307
5.01216
4.9919
4.96863
4.94188
4.91103
4.87589
4.83846
4.80019
4.75966
4.71722
4.67075
4.62097
4.56599
4.50708
4.43944
4.37087
4.29391
4.21777
4.13529
4.04895
3.96022
3.86854
3.77179
3.66585
3.56424
1.40001
1.40001
1.40001
1.40001
1.40001
1.40001
1.40001
1.40001
1.40001
1.40001
1.40001
1.40001
1.40001
1.40001
1.40001
1.40001
1.40001
1.40001
1.40001
1.40001
1.40001
1.40001
1.40001
1.40001
1.40001
1.40001
1.40001
1.40001
1.40001
1.40001
1.40001
1.40001
1.40001
1.40001
1.40001
1.40001
1.40001
1.40001
1.40001
1.40001
1.40001
1.40001
1.40001
1.40001
1.40001
1.40001
1.40001
1.40001
1.40001
1.40001
1.40001
1.40001
1.40001
1.40001
1.40001
1.40001
1.40001
1.43068
3.09556
5.03604
5.13651
5.13438
5.12941
5.12166
5.11169
5.09746
5.08033
5.06153
5.0411
5.02118
5.00184
4.9819
4.96052
4.9362
4.908
4.87732
4.84151
4.80349
4.7639
4.72408
4.6809
4.63513
4.58637
4.53416
4.47828
4.41366
4.34765
4.27533
4.20268
4.12311
4.04252
3.96042
3.87295
3.78082
3.68663
3.59451
1.40001
1.40001
1.40001
1.40001
1.40001
1.40001
1.40001
1.40001
1.40001
1.40001
1.40001
1.40001
1.40001
1.40001
1.40001
1.40001
1.40001
1.40001
1.40001
1.40001
1.40001
1.40001
1.40001
1.40001
1.40001
1.40001
1.40001
1.40001
1.40001
1.40001
1.40001
1.40001
1.40001
1.40001
1.40001
1.40001
1.40001
1.40001
1.40001
1.40001
1.40001
1.40001
1.40001
1.40001
1.40001
1.40001
1.40001
1.40001
1.40001
1.40001
1.40001
1.40001
1.40001
1.40001
1.40001
1.40001
1.40001
1.40007
1.57772
3.78785
5.08643
5.13414
5.12429
5.11437
5.10237
5.08443
5.06413
5.04289
5.02076
4.99869
4.97771
4.95614
4.93322
4.90738
4.87738
4.84627
4.81
4.7717
4.73163
4.69036
4.64831
4.60289
4.55562
4.50522
4.45066
4.39111
4.32807
4.26048
4.19097
4.11516
4.04045
3.96268
3.87846
3.79397
3.70875
3.62161
1.40001
1.40001
1.40001
1.40001
1.40001
1.40001
1.40001
1.40001
1.40001
1.40001
1.40001
1.40001
1.40001
1.40001
1.40001
1.40001
1.40001
1.40001
1.40001
1.40001
1.40001
1.40001
1.40001
1.40001
1.40001
1.40001
1.40001
1.40001
1.40001
1.40001
1.40001
1.40001
1.40001
1.40001
1.40001
1.40001
1.40001
1.40001
1.40001
1.40001
1.40001
1.40001
1.40001
1.40001
1.40001
1.40001
1.40001
1.40001
1.40001
1.40001
1.40001
1.40001
1.40001
1.40001
1.40001
1.40001
1.40001
1.40001
1.40166
1.80284
4.4809
5.17458
5.14557
5.11674
5.09069
5.06617
5.04226
5.01907
4.99656
4.97439
4.95241
4.93067
4.90722
4.88068
4.84977
4.81702
4.78122
4.74204
4.70213
4.66081
4.61883
4.5749
4.5292
4.48075
4.42855
4.37244
4.31238
4.24863
4.18166
4.11042
4.04017
3.9659
3.88642
3.80967
3.73025
3.64702
1.40001
1.40001
1.40001
1.40001
1.40001
1.40001
1.40001
1.40001
1.40001
1.40001
1.40001
1.40001
1.40001
1.40001
1.40001
1.40001
1.40001
1.40001
1.40001
1.40001
1.40001
1.40001
1.40001
1.40001
1.40001
1.40001
1.40001
1.40001
1.40001
1.40001
1.40001
1.40001
1.40001
1.40001
1.40001
1.40001
1.40001
1.40001
1.40001
1.40001
1.40001
1.40001
1.40001
1.40001
1.40001
1.40001
1.40001
1.40001
1.40001
1.40001
1.40001
1.40001
1.40001
1.40001
1.40001
1.40001
1.40001
1.40001
1.40001
1.40886
2.57839
4.90544
5.09937
5.06998
5.05016
5.03081
5.01274
4.99384
4.97455
4.95474
4.93301
4.90928
4.88488
4.85773
4.82587
4.79247
4.75717
4.71805
4.67815
4.63691
4.59476
4.55089
4.50597
4.45934
4.40923
4.35535
4.29802
4.23725
4.17301
4.10646
4.03947
3.96858
3.89416
3.82388
3.74894
3.67002
1.40001
1.40001
1.40001
1.40001
1.40001
1.40001
1.40001
1.40001
1.40001
1.40001
1.40001
1.40001
1.40001
1.40001
1.40001
1.40001
1.40001
1.40001
1.40001
1.40001
1.40001
1.40001
1.40001
1.40001
1.40001
1.40001
1.40001
1.40001
1.40001
1.40001
1.40001
1.40001
1.40001
1.40001
1.40001
1.40001
1.40001
1.40001
1.40001
1.40001
1.40001
1.40001
1.40001
1.40001
1.40001
1.40001
1.40001
1.40001
1.40001
1.40001
1.40001
1.40001
1.40001
1.40001
1.40001
1.40001
1.40001
1.40001
1.40001
1.40002
1.48086
3.21148
4.98186
5.03413
5.02134
5.01774
5.00644
4.9907
4.97163
4.95077
4.92747
4.90142
4.87451
4.84616
4.81226
4.77782
4.74137
4.70157
4.66088
4.61917
4.57657
4.53291
4.4881
4.44242
4.39365
4.34145
4.28643
4.22805
4.16681
4.10429
4.03948
3.97142
3.90168
3.83568
3.7649
3.69075
1.40001
1.40001
1.40001
1.40001
1.40001
1.40001
1.40001
1.40001
1.40001
1.40001
1.40001
1.40001
1.40001
1.40001
1.40001
1.40001
1.40001
1.40001
1.40001
1.40001
1.40001
1.40001
1.40001
1.40001
1.40001
1.40001
1.40001
1.40001
1.40001
1.40001
1.40001
1.40001
1.40001
1.40001
1.40001
1.40001
1.40001
1.40001
1.40001
1.40001
1.40001
1.40001
1.40001
1.40001
1.40001
1.40001
1.40001
1.40001
1.40001
1.40001
1.40001
1.40001
1.40001
1.40001
1.40001
1.40001
1.40001
1.40001
1.40001
1.40001
1.40044
1.60246
3.59362
4.98319
5.01026
5.0055
4.99793
4.98392
4.96624
4.94549
4.92172
4.89482
4.86623
4.83605
4.80158
4.76623
4.72849
4.68858
4.64758
4.60571
4.56275
4.51888
4.47437
4.42875
4.38058
4.32969
4.2763
4.21972
4.16124
4.10192
4.03903
3.97382
3.90899
3.84656
3.78066
3.71199
1.40001
1.40001
1.40001
1.40001
1.40001
1.40001
1.40001
1.40001
1.40001
1.40001
1.40001
1.40001
1.40001
1.40001
1.40001
1.40001
1.40001
1.40001
1.40001
1.40001
1.40001
1.40001
1.40001
1.40001
1.40001
1.40001
1.40001
1.40001
1.40001
1.40001
1.40001
1.40001
1.40001
1.40001
1.40001
1.40001
1.40001
1.40001
1.40001
1.40001
1.40001
1.40001
1.40001
1.40001
1.40001
1.40001
1.40001
1.40001
1.40001
1.40001
1.40001
1.40001
1.40001
1.40001
1.40001
1.40001
1.40001
1.40001
1.40001
1.40001
1.40001
1.40229
1.72472
3.91445
5.01132
5.0094
4.99445
4.97718
4.95827
4.93653
4.91254
4.88612
4.85811
4.8276
4.79418
4.75866
4.72074
4.68092
4.63992
4.59815
4.55522
4.51109
4.46641
4.42055
4.37231
4.32199
4.26961
4.2147
4.15838
4.10093
4.03985
3.97877
3.91973
3.86255
3.80448
3.74484
1.40001
1.40001
1.40001
1.40001
1.40001
1.40001
1.40001
1.40001
1.40001
1.40001
1.40001
1.40001
1.40001
1.40001
1.40001
1.40001
1.40001
1.40001
1.40001
1.40001
1.40001
1.40001
1.40001
1.40001
1.40001
1.40001
1.40001
1.40001
1.40001
1.40001
1.40001
1.40001
1.40001
1.40001
1.40001
1.40001
1.40001
1.40001
1.40001
1.40001
1.40001
1.40001
1.40001
1.40001
1.40001
1.40001
1.40001
1.40001
1.40001
1.40001
1.40001
1.40001
1.40001
1.40001
1.40001
1.40001
1.40001
1.40001
1.40001
1.40001
1.40001
1.40001
1.40575
1.8623
4.1974
5.01904
5.00269
4.97985
4.95545
4.93049
4.90373
4.87597
4.847
4.81647
4.78387
4.74874
4.71156
4.67284
4.63293
4.59203
4.54981
4.50611
4.46133
4.41518
4.36736
4.31763
4.2658
4.21188
4.15757
4.10324
4.04676
3.99406
3.94564
3.89833
3.85637
3.81615
1.40001
1.40001
1.40001
1.40001
1.40001
1.40001
1.40001
1.40001
1.40001
1.40001
1.40001
1.40001
1.40001
1.40001
1.40001
1.40001
1.40001
1.40001
1.40001
1.40001
1.40001
1.40001
1.40001
1.40001
1.40001
1.40001
1.40001
1.40001
1.40001
1.40001
1.40001
1.40001
1.40001
1.40001
1.40001
1.40001
1.40001
1.40001
1.40001
1.40001
1.40001
1.40001
1.40001
1.40001
1.40001
1.40001
1.40001
1.40001
1.40001
1.40001
1.40001
1.40001
1.40001
1.40001
1.40001
1.40001
1.40001
1.40001
1.40001
1.40001
1.40001
1.40001
1.40002
1.41155
2.01738
4.40412
5.02983
5.00322
4.97234
4.93972
4.90812
4.87572
4.84214
4.80897
4.77494
4.73943
4.70287
4.66542
4.62697
4.5874
4.5462
4.50331
4.45877
4.41283
4.36593
4.31689
4.26654
4.21561
4.16609
4.12008
4.07582
4.03948
4.0097
3.98325
3.96352
3.94208
1.40001
1.40001
1.40001
1.40001
1.40001
1.40001
1.40001
1.40001
1.40001
1.40001
1.40001
1.40001
1.40001
1.40001
1.40001
1.40001
1.40001
1.40001
1.40001
1.40001
1.40001
1.40001
1.40001
1.40001
1.40001
1.40001
1.40001
1.40001
1.40001
1.40001
1.40001
1.40001
1.40001
1.40001
1.40001
1.40001
1.40001
1.40001
1.40001
1.40001
1.40001
1.40001
1.40001
1.40001
1.40001
1.40001
1.40001
1.40001
1.40001
1.40001
1.40001
1.40001
1.40001
1.40001
1.40001
1.40001
1.40001
1.40001
1.40001
1.40001
1.40001
1.40001
1.40001
1.40004
1.42063
2.16707
4.58825
5.02674
4.99532
4.96061
4.92069
4.88238
4.84528
4.80878
4.7716
4.73462
4.6975
4.66014
4.62198
4.58272
4.54163
4.49915
4.45543
4.41008
4.36514
4.31958
4.27538
4.23505
4.20159
4.17459
4.15255
4.14365
4.13386
4.12334
4.10915
4.08842
1.40001
1.40001
1.40001
1.40001
1.40001
1.40001
1.40001
1.40001
1.40001
1.40001
1.40001
1.40001
1.40001
1.40001
1.40001
1.40001
1.40001
1.40001
1.40001
1.40001
1.40001
1.40001
1.40001
1.40001
1.40001
1.40001
1.40001
1.40001
1.40001
1.40001
1.40001
1.40001
1.40001
1.40001
1.40001
1.40001
1.40001
1.40001
1.40001
1.40001
1.40001