/*--------------------------------*- C++ -*----------------------------------*\
  =========                 |
  \\      /  F ield         | OpenFOAM: The Open Source CFD Toolbox
   \\    /   O peration     | Website:  https://openfoam.org
    \\  /    A nd           | Version:  7
     \\/     M anipulation  |
\*---------------------------------------------------------------------------*/
FoamFile
{
    version     2.0;
    format      ascii;
    class       volScalarField;
    location    "8.6";
    object      T;
}
// * * * * * * * * * * * * * * * * * * * * * * * * * * * * * * * * * * * * * //

dimensions      [0 0 0 1 0 0 0];

internalField   nonuniform List<scalar> 
19968
(
1
1
1
1
1
1
1
1
1
1
1
1
1
1
1
1
1
1
1
1
1
1
1
1
1
1
1
1
1
1
1
1
1
1
1
1
1
1
1
1
1
1
1
1
1
1
1
1
1.27971
2.46205
2.69036
2.6916
2.69581
2.70081
2.7065
2.71185
2.7162
2.71931
2.7216
2.72398
2.72724
2.73166
2.73673
2.74132
2.74479
2.74736
2.74969
2.75239
2.75579
2.7597
2.76345
2.76644
2.76859
2.77035
2.77227
2.77469
2.7775
2.78031
2.78272
2.78463
2.78622
2.78781
2.78957
2.79151
2.79346
2.79523
2.79675
2.79805
2.79921
2.80026
2.80117
2.80186
2.80227
2.80241
2.80244
2.80237
1
1
1
1
1
1
1
1
1
1
1
1
1
1
1
1
1
1
1
1
1
1
1
1
1
1
1
1
1
1
1
1
1
1
1
1
1
1
1
1
1
1
1
1
1
1
1
1
1.26654
2.4548
2.68949
2.69167
2.69601
2.70098
2.70653
2.71166
2.71581
2.71887
2.72122
2.72374
2.72712
2.73157
2.73659
2.74111
2.74454
2.74709
2.74942
2.75212
2.75552
2.75941
2.76314
2.76611
2.76826
2.77004
2.77198
2.7744
2.7772
2.77999
2.78238
2.78429
2.7859
2.7875
2.78927
2.79122
2.79316
2.79493
2.79643
2.7977
2.79881
2.79981
2.80068
2.80135
2.80176
2.80193
2.80198
2.80196
1
1
1
1
1
1
1
1
1
1
1
1
1
1
1
1
1
1
1
1
1
1
1
1
1
1
1
1
1
1
1
1
1
1
1
1
1
1
1
1
1
1
1
1
1
1
1
1
1.23574
2.43716
2.68875
2.69097
2.6959
2.70084
2.70608
2.71077
2.71461
2.71768
2.72029
2.72319
2.72688
2.73138
2.7363
2.74064
2.74399
2.7465
2.74883
2.75156
2.75498
2.75885
2.76255
2.7655
2.76767
2.76947
2.77144
2.77384
2.77661
2.77936
2.78174
2.78367
2.7853
2.78692
2.78871
2.79067
2.79262
2.79438
2.79586
2.79709
2.79815
2.79911
2.79995
2.80061
2.80105
2.80125
2.80132
2.80135
1
1
1
1
1
1
1
1
1
1
1
1
1
1
1
1
1
1
1
1
1
1
1
1
1
1
1
1
1
1
1
1
1
1
1
1
1
1
1
1
1
1
1
1
1
1
1
1
1.19031
2.40922
2.68768
2.69042
2.6957
2.70047
2.70523
2.70943
2.71301
2.7162
2.71927
2.72273
2.7268
2.73127
2.73596
2.74002
2.74322
2.74569
2.74806
2.75083
2.75427
2.7581
2.76173
2.76465
2.76684
2.76871
2.7707
2.7731
2.7758
2.77849
2.78084
2.78276
2.78443
2.78608
2.78788
2.78983
2.79175
2.79347
2.79489
2.79604
2.79702
2.79789
2.79869
2.79937
2.79987
2.80017
2.80031
2.80043
1
1
1
1
1
1
1
1
1
1
1
1
1
1
1
1
1
1
1
1
1
1
1
1
1
1
1
1
1
1
1
1
1
1
1
1
1
1
1
1
1
1
1
1
1
1
1
1
1.1275
2.36859
2.68717
2.69025
2.69553
2.69993
2.70416
2.708
2.71154
2.715
2.71852
2.72241
2.72669
2.73105
2.73544
2.7392
2.74227
2.74476
2.74723
2.75008
2.75351
2.75725
2.76077
2.76364
2.76589
2.76784
2.7699
2.77227
2.77489
2.77748
2.77977
2.7817
2.78341
2.78512
2.78696
2.78891
2.7908
2.79245
2.79377
2.7948
2.79561
2.79633
2.79701
2.79763
2.79815
2.79851
2.79871
2.79891
1
1
1
1
1
1
1
1
1
1
1
1
1
1
1
1
1
1
1
1
1
1
1
1
1
1
1
1
1
1
1
1
1
1
1
1
1
1
1
1
1
1
1
1
1
1
1
1
1.01325
2.30208
2.68683
2.6909
2.69556
2.69953
2.70327
2.70697
2.71077
2.71471
2.71864
2.72273
2.72701
2.73114
2.73509
2.73842
2.7413
2.74384
2.74644
2.74935
2.75268
2.75619
2.75945
2.76219
2.76444
2.76648
2.76859
2.77091
2.77338
2.7758
2.77797
2.77986
2.78159
2.78335
2.78523
2.7872
2.78907
2.79069
2.79195
2.7929
2.79362
2.79425
2.79488
2.79553
2.79614
2.79663
2.79692
2.79722
1
1
1
1
1
1
1
1
1
1
1
1
1
1
1
1
1
1
1
1
1
1
1
1
1
1
1
1
1
1
1
1
1
1
1
1
1
1
1
1
1
1
1
1
1
1
1
1
1.00008
2.21498
2.68177
2.68839
2.69216
2.69615
2.69989
2.70377
2.70792
2.71225
2.71648
2.72068
2.72489
2.72879
2.73239
2.73546
2.73833
2.74108
2.74396
2.74703
2.75033
2.75365
2.75671
2.75939
2.76176
2.764
2.76628
2.76863
2.771
2.77325
2.77529
2.77714
2.77891
2.78074
2.7827
2.7847
2.78659
2.78818
2.78939
2.79024
2.79086
2.79139
2.79198
2.79265
2.79334
2.79394
2.79432
2.79471
1
1
1
1
1
1
1
1
1
1
1
1
1
1
1
1
1
1
1
1
1
1
1
1
1
1
1
1
1
1
1
1
1
1
1
1
1
1
1
1
1
1
1
1
1
1
1
1
1
2.0872
2.6704
2.68453
2.68805
2.69262
2.69695
2.70131
2.70566
2.70994
2.71402
2.71801
2.72196
2.72562
2.7291
2.73226
2.73534
2.73836
2.74142
2.74456
2.74778
2.75093
2.75382
2.75644
2.75891
2.76133
2.76375
2.76613
2.76838
2.77045
2.77232
2.77408
2.77584
2.7777
2.77969
2.78172
2.78359
2.78514
2.78628
2.78703
2.78753
2.78796
2.78849
2.78917
2.78991
2.7906
2.79106
2.79151
1
1
1
1
1
1
1
1
1
1
1
1
1
1
1
1
1
1
1
1
1
1
1
1
1
1
1
1
1
1
1
1
1
1
1
1
1
1
1
1
1
1
1
1
1
1
1
1
1
1.9094
2.63907
2.67736
2.68202
2.6875
2.69242
2.69721
2.70176
2.70605
2.71002
2.71375
2.71743
2.72098
2.7245
2.72793
2.73132
2.73459
2.73771
2.74079
2.74387
2.74686
2.74966
2.75227
2.75483
2.75741
2.75998
2.76241
2.76461
2.76654
2.76826
2.76988
2.77157
2.77341
2.77542
2.77747
2.77935
2.78089
2.78198
2.78268
2.78311
2.78349
2.78399
2.78468
2.78547
2.78624
2.78678
2.78727
1
1
1
1
1
1
1
1
1
1
1
1
1
1
1
1
1
1
1
1
1
1
1
1
1
1
1
1
1
1
1
1
1
1
1
1
1
1
1
1
1
1
1
1
1
1
1
1
1
1.67711
2.58113
2.67077
2.67726
2.68302
2.68768
2.69222
2.69672
2.70106
2.70507
2.70872
2.71223
2.71576
2.7194
2.72312
2.7268
2.73026
2.73339
2.73635
2.73929
2.74215
2.74491
2.74751
2.75008
2.75267
2.75524
2.75763
2.75974
2.76153
2.76308
2.76453
2.76609
2.76789
2.76993
2.77205
2.774
2.77556
2.77663
2.77725
2.7776
2.77787
2.77827
2.77887
2.77961
2.78039
2.78097
2.78148
1
1
1
1
1
1
1
1
1
1
1
1
1
1
1
1
1
1
1
1
1
1
1
1
1
1
1
1
1
1
1
1
1
1
1
1
1
1
1
1
1
1
1
1
1
1
1
1
1
1.37559
2.4789
2.67062
2.67274
2.67885
2.68259
2.68665
2.69098
2.69535
2.69946
2.7032
2.70666
2.71019
2.71391
2.71775
2.72154
2.7251
2.72824
2.73114
2.73402
2.73683
2.7396
2.74221
2.74476
2.74729
2.7498
2.75214
2.75417
2.75584
2.75719
2.75839
2.75967
2.76122
2.76308
2.76508
2.76694
2.7684
2.76935
2.76987
2.77014
2.77035
2.7707
2.77125
2.77198
2.7728
2.77346
2.77402
1
1
1
1
1
1
1
1
1
1
1
1
1
1
1
1
1
1
1
1
1
1
1
1
1
1
1
1
1
1
1
1
1
1
1
1
1
1
1
1
1
1
1
1
1
1
1
1
1
1.01546
2.29802
2.6791
2.6789
2.68018
2.68236
2.68521
2.68853
2.69215
2.69579
2.69924
2.70231
2.70535
2.70857
2.71195
2.71541
2.71875
2.72172
2.72443
2.72715
2.72984
2.73252
2.73506
2.73747
2.73984
2.74219
2.74446
2.74648
2.74814
2.74944
2.75052
2.75162
2.75298
2.7547
2.75664
2.75852
2.76001
2.76094
2.76134
2.76138
2.76127
2.76117
2.76123
2.76151
2.76201
2.76247
2.76293
1
1
1
1
1
1
1
1
1
1
1
1
1
1
1
1
1
1
1
1
1
1
1
1
1
1
1
1
1
1
1
1
1
1
1
1
1
1
1
1
1
1
1
1
1
1
1
1
1
1.00003
2.01976
2.64754
2.66212
2.66582
2.67065
2.67504
2.67921
2.68322
2.68702
2.69054
2.69367
2.69654
2.69951
2.70265
2.70583
2.709
2.71196
2.7147
2.71746
2.72023
2.72291
2.72544
2.72775
2.72997
2.73215
2.73431
2.73632
2.73805
2.7394
2.74045
2.74138
2.7424
2.74369
2.74523
2.74679
2.74795
2.7485
2.74852
2.74809
2.74748
2.74704
2.74696
2.7472
2.74759
2.74777
2.74808
1
1
1
1
1
1
1
1
1
1
1
1
1
1
1
1
1
1
1
1
1
1
1
1
1
1
1
1
1
1
1
1
1
1
1
1
1
1
1
1
1
1
1
1
1
1
1
1
1
1
1.54789
2.51735
2.64729
2.65368
2.66139
2.66685
2.67162
2.67606
2.6802
2.68394
2.68721
2.68996
2.69261
2.69537
2.69816
2.701
2.70375
2.70632
2.70884
2.71138
2.71378
2.71601
2.71796
2.71975
2.72146
2.72317
2.7249
2.7265
2.72781
2.7288
2.72948
2.72996
2.73054
2.73142
2.73252
2.73346
2.73395
2.73379
2.73295
2.7318
2.7306
2.72947
2.72797
2.72583
2.72318
2.72105
1
1
1
1
1
1
1
1
1
1
1
1
1
1
1
1
1
1
1
1
1
1
1
1
1
1
1
1
1
1
1
1
1
1
1
1
1
1
1
1
1
1
1
1
1
1
1
1
1
1
1.02828
2.25255
2.65673
2.65627
2.65743
2.65982
2.6629
2.66666
2.67078
2.67473
2.67816
2.68089
2.68317
2.68551
2.68798
2.69057
2.69317
2.6956
2.69785
2.70008
2.70218
2.70408
2.70568
2.707
2.70813
2.70924
2.71046
2.71175
2.71307
2.71404
2.71418
2.71398
2.71363
2.71343
2.71343
2.71337
2.71279
2.71115
2.70831
2.70465
2.7007
2.69683
2.69342
2.68983
2.68714
2.68559
1
1
1
1
1
1
1
1
1
1
1
1
1
1
1
1
1
1
1
1
1
1
1
1
1
1
1
1
1
1
1
1
1
1
1
1
1
1
1
1
1
1
1
1
1
1
1
1
1
1
1.00005
1.76312
2.56406
2.63579
2.63994
2.64368
2.64743
2.652
2.65714
2.66202
2.66593
2.66877
2.67088
2.67293
2.67535
2.67809
2.68091
2.68349
2.68571
2.68768
2.68946
2.69097
2.69224
2.69318
2.69362
2.69396
2.69431
2.69479
2.69547
2.69596
2.69572
2.6948
2.69326
2.69146
2.68969
2.68785
2.68553
2.68227
2.67785
2.6725
2.66654
2.66051
2.65488
2.65251
2.6496
2.66408
1
1
1
1
1
1
1
1
1
1
1
1
1
1
1
1
1
1
1
1
1
1
1
1
1
1
1
1
1
1
1
1
1
1
1
1
1
1
1
1
1
1
1
1
1
1
1
1
1
1
1
1.12573
2.35111
2.63108
2.63125
2.63301
2.63591
2.64011
2.64534
2.65051
2.65464
2.65759
2.65967
2.66144
2.66357
2.66622
2.66912
2.67185
2.67409
2.67583
2.67725
2.67845
2.67944
2.67989
2.67985
2.67957
2.67903
2.67848
2.67816
2.67787
2.67712
2.67551
2.67286
2.66945
2.66561
2.6614
2.65644
2.65022
2.64191
2.63096
2.61577
2.59519
2.56508
2.52263
2.4591
2.33342
1
1
1
1
1
1
1
1
1
1
1
1
1
1
1
1
1
1
1
1
1
1
1
1
1
1
1
1
1
1
1
1
1
1
1
1
1
1
1
1
1
1
1
1
1
1
1
1
1
1
1
1.00127
2.02368
2.60291
2.61204
2.61556
2.62029
2.62561
2.63172
2.63763
2.64215
2.64521
2.64727
2.649
2.6511
2.65382
2.65691
2.65985
2.66227
2.66412
2.66552
2.66657
2.66724
2.66748
2.66725
2.66664
2.66563
2.6643
2.66296
2.66163
2.66
2.65759
2.65403
2.64932
2.64357
2.63696
2.6291
2.61973
2.60733
2.59125
2.5684
2.53783
2.49325
2.4373
2.32373
2.16059
1
1
1
1
1
1
1
1
1
1
1
1
1
1
1
1
1
1
1
1
1
1
1
1
1
1
1
1
1
1
1
1
1
1
1
1
1
1
1
1
1
1
1
1
1
1
1
1
1
1
1
0.999999
1.40241
2.4352
2.59547
2.60175
2.60837
2.61328
2.61929
2.62541
2.63011
2.63326
2.63534
2.63708
2.6391
2.64177
2.64488
2.64785
2.65029
2.65214
2.65349
2.65438
2.65478
2.65469
2.65421
2.65326
2.65185
2.64994
2.64766
2.64516
2.64232
2.63883
2.6342
2.62822
2.62065
2.61174
2.60108
2.58858
2.57275
2.5524
2.52515
2.48814
2.44024
2.36648
2.26001
2.1334
1
1
1
1
1
1
1
1
1
1
1
1
1
1
1
1
1
1
1
1
1
1
1
1
1
1
1
1
1
1
1
1
1
1
1
1
1
1
1
1
1
1
1
1
1
1
1
1
1
1
1
1
1.01613
2.12179
2.59378
2.59747
2.59902
2.60168
2.60627
2.61144
2.61586
2.61935
2.62173
2.62364
2.62579
2.62855
2.63155
2.63438
2.6367
2.63841
2.63967
2.6405
2.64082
2.64063
2.63995
2.63874
2.63699
2.63463
2.63166
2.62823
2.62427
2.61969
2.61396
2.60682
2.59773
2.58688
2.57392
2.55874
2.54036
2.51732
2.48803
2.44933
2.3996
2.33202
2.24692
2.14772
1
1
1
1
1
1
1
1
1
1
1
1
1
1
1
1
1
1
1
1
1
1
1
1
1
1
1
1
1
1
1
1
1
1
1
1
1
1
1
1
1
1
1
1
1
1
1
1
1
1
1
1
1.00001
1.46231
2.44054
2.58914
2.5879
2.59176
2.59671
2.60126
2.60453
2.60706
2.60881
2.61041
2.61249
2.61512
2.61789
2.62047
2.62248
2.62378
2.62467
2.62527
2.62557
2.62545
2.62487
2.62362
2.62159
2.61877
2.61518
2.61104
2.60626
2.6008
2.59413
2.58593
2.57566
2.56337
2.54885
2.5319
2.51192
2.48763
2.45823
2.4203
2.37381
2.31747
2.25014
2.17179
1
1
1
1
1
1
1
1
1
1
1
1
1
1
1
1
1
1
1
1
1
1
1
1
1
1
1
1
1
1
1
1
1
1
1
1
1
1
1
1
1
1
1
1
1
1
1
1
1
1
1
1
1
1.02096
2.12105
2.58486
2.5844
2.58575
2.58859
2.59182
2.59433
2.59605
2.5971
2.59809
2.59965
2.60176
2.60423
2.60656
2.60833
2.60911
2.60917
2.60907
2.60895
2.60884
2.60847
2.60745
2.60537
2.60229
2.59827
2.59364
2.58829
2.58217
2.57476
2.56575
2.55474
2.5416
2.52625
2.50841
2.48773
2.46327
2.43454
2.39952
2.35812
2.31109
2.25677
2.19378
1
1
1
1
1
1
1
1
1
1
1
1
1
1
1
1
1
1
1
1
1
1
1
1
1
1
1
1
1
1
1
1
1
1
1
1
1
1
1
1
1
1
1
1
1
1
1
1
1
1
1
1
1
1.00003
1.40874
2.40669
2.57584
2.57667
2.58014
2.58302
2.58479
2.58568
2.58594
2.5863
2.587
2.58837
2.59037
2.59228
2.59385
2.59422
2.59373
2.59274
2.59178
2.59129
2.59085
2.58994
2.588
2.58494
2.58083
2.57603
2.57043
2.56388
2.55596
2.54644
2.53506
2.52164
2.50611
2.48812
2.46789
2.44374
2.41668
2.38486
2.34835
2.3087
2.26211
2.21068
1
1
1
1
1
1
1
1
1
1
1
1
1
1
1
1
1
1
1
1
1
1
1
1
1
1
1
1
1
1
1
1
1
1
1
1
1
1
1
1
1
1
1
1
1
1
1
1
1
1
1
1
1
1
1.01505
2.03142
2.55787
2.56787
2.57059
2.5732
2.57577
2.57676
2.577
2.57702
2.577
2.57747
2.57864
2.57984
2.5809
2.58092
2.57995
2.57807
2.57587
2.57434
2.57322
2.57195
2.56995
2.56704
2.56316
2.55846
2.55279
2.54596
2.53767
2.52788
2.51645
2.50321
2.48807
2.47051
2.45131
2.4279
2.40278
2.37435
2.3423
2.3072
2.26785
2.22484
1
1
1
1
1
1
1
1
1
1
1
1
1
1
1
1
1
1
1
1
1
1
1
1
1
1
1
1
1
1
1
1
1
1
1
1
1
1
1
1
1
1
1
1
1
1
1
1
1
1
1
1
1
1
1.00002
1.23489
2.34393
2.56354
2.56128
2.56291
2.56447
2.56548
2.56586
2.56573
2.5655
2.56565
2.5663
2.56691
2.56742
2.56728
2.56611
2.56384
2.56081
2.55825
2.55616
2.55415
2.55177
2.54883
2.54515
2.54065
2.53504
2.52815
2.51975
2.50991
2.49865
2.48585
2.47147
2.45474
2.43667
2.41478
2.39185
2.36673
2.33748
2.30654
2.27338
2.23693
1
1
1
1
1
1
1
1
1
1
1
1
1
1
1
1
1
1
1
1
1
1
1
1
1
1
1
1
1
1
1
1
1
1
1
1
1
1
1
1
1
1
1
1
1
1
1
1
1
1
1
1
1
1
1
1.00396
1.8509
2.50331
2.54073
2.54669
2.55
2.55118
2.5517
2.55182
2.5521
2.55279
2.55384
2.55431
2.5544
2.55405
2.55275
2.55039
2.54703
2.54374
2.54057
2.53754
2.53446
2.53122
2.52743
2.5229
2.51727
2.51035
2.50208
2.49245
2.4816
2.46934
2.45596
2.44013
2.42324
2.40341
2.38275
2.35974
2.33316
2.3065
2.2776
2.2458
1
1
1
1
1
1
1
1
1
1
1
1
1
1
1
1
1
1
1
1
1
1
1
1
1
1
1
1
1
1
1
1
1
1
1
1
1
1
1
1
1
1
1
1
1
1
1
1
1
1
1
1
1
1
1
1
1.09899
2.20708
2.53655
2.53896
2.53762
2.5375
2.53777
2.53808
2.53881
2.53997
2.5415
2.54194
2.54178
2.54116
2.53976
2.53748
2.53418
2.53052
2.52673
2.52291
2.51907
2.51517
2.51093
2.50603
2.50011
2.49302
2.48489
2.47553
2.4652
2.45348
2.44112
2.42618
2.41063
2.39291
2.37385
2.35266
2.32968
2.3064
2.27963
2.25161
1
1
1
1
1
1
1
1
1
1
1
1
1
1
1
1
1
1
1
1
1
1
1
1
1
1
1
1
1
1
1
1
1
1
1
1
1
1
1
1
1
1
1
1
1
1
1
1
1
1
1
1
1
1
1
1
1.00065
1.45283
2.36646
2.51533
2.51519
2.51803
2.52056
2.52231
2.52384
2.52551
2.52751
2.52861
2.5285
2.52788
2.52653
2.52435
2.52128
2.51755
2.51362
2.50955
2.50516
2.5006
2.49583
2.49033
2.48404
2.4766
2.46841
2.4593
2.44965
2.43828
2.42667
2.41289
2.39874
2.38256
2.36486
2.346
2.32597
2.30433
2.27973
2.25588
1
1
1
1
1
1
1
1
1
1
1
1
1
1
1
1
1
1
1
1
1
1
1
1
1
1
1
1
1
1
1
1
1
1
1
1
1
1
1
1
1
1
1
1
1
1
1
1
1
1
1
1
1
1
1
1
1
1.01831
1.89382
2.46949
2.4995
2.50375
2.50621
2.50822
2.50997
2.51148
2.51332
2.51481
2.51477
2.51428
2.51314
2.51114
2.50828
2.50471
2.5007
2.49675
2.49221
2.48743
2.48224
2.47666
2.46993
2.46224
2.45375
2.44468
2.43521
2.42419
2.41309
2.40048
2.38744
2.37231
2.35629
2.33935
2.32075
2.30058
2.27928
2.25825
1
1
1
1
1
1
1
1
1
1
1
1
1
1
1
1
1
1
1
1
1
1
1
1
1
1
1
1
1
1
1
1
1
1
1
1
1
1
1
1
1
1
1
1
1
1
1
1
1
1
1
1
1
1
1
1
1
1.00003
1.11787
2.1234
2.47776
2.49646
2.49594
2.4971
2.49854
2.49919
2.50016
2.50107
2.50092
2.50034
2.49927
2.49736
2.49466
2.49129
2.4874
2.48377
2.47947
2.47487
2.46972
2.46386
2.45725
2.44938
2.4408
2.43156
2.42176
2.41131
2.40049
2.3888
2.37652
2.36241
2.34799
2.33235
2.31472
2.29664
2.27805
2.25844
1
1
1
1
1
1
1
1
1
1
1
1
1
1
1
1
1
1
1
1
1
1
1
1
1
1
1
1
1
1
1
1
1
1
1
1
1
1
1
1
1
1
1
1
1
1
1
1
1
1
1
1
1
1
1
1
1
1
1.00093
1.26858
2.26611
2.47902
2.48084
2.48193
2.48266
2.48328
2.48402
2.48475
2.48486
2.48456
2.48373
2.48223
2.47993
2.47697
2.47346
2.47007
2.4664
2.4621
2.45737
2.45179
2.44533
2.43775
2.42932
2.42014
2.41034
2.4001
2.38946
2.37829
2.36643
2.35333
2.34003
2.32531
2.30888
2.29268
2.27563
2.2574
1
1
1
1
1
1
1
1
1
1
1
1
1
1
1
1
1
1
1
1
1
1
1
1
1
1
1
1
1
1
1
1
1
1
1
1
1
1
1
1
1
1
1
1
1
1
1
1
1
1
1
1
1
1
1
1
1
1
1
1.00519
1.6581
2.37576
2.45697
2.45514
2.45734
2.46009
2.46289
2.46512
2.46667
2.46715
2.4668
2.46569
2.46397
2.46165
2.45869
2.45586
2.45296
2.44931
2.44516
2.44006
2.43392
2.42659
2.4184
2.40953
2.39994
2.38984
2.37943
2.3686
2.35714
2.34503
2.33246
2.31852
2.30323
2.28849
2.27236
2.25516
1
1
1
1
1
1
1
1
1
1
1
1
1
1
1
1
1
1
1
1
1
1
1
1
1
1
1
1
1
1
1
1
1
1
1
1
1
1
1
1
1
1
1
1
1
1
1
1
1
1
1
1
1
1
1
1
1
1
1
1.00001
1.04952
1.9081
2.4165
2.44489
2.44448
2.44647
2.44791
2.44921
2.4502
2.45046
2.45016
2.44921
2.44785
2.44625
2.44384
2.44168
2.43936
2.43633
2.43269
2.42811
2.4224
2.41555
2.40773
2.39928
2.39006
2.38028
2.37025
2.35983
2.34896
2.33775
2.32572
2.31246
2.29824
2.2844
2.26898
2.2526
1
1
1
1
1
1
1
1
1
1
1
1
1
1
1
1
1
1
1
1
1
1
1
1
1
1
1
1
1
1
1
1
1
1
1
1
1
1
1
1
1
1
1
1
1
1
1
1
1
1
1
1
1
1
1
1
1
1
1
1
1.00021
1.13278
2.02414
2.41214
2.436
2.43818
2.43858
2.43805
2.43738
2.4365
2.43532
2.4338
2.4322
2.43062
2.4286
2.42681
2.42477
2.42223
2.41905
2.41497
2.40977
2.40347
2.39627
2.38833
2.37964
2.37043
2.36095
2.35108
2.34098
2.33068
2.31926
2.30679
2.29373
2.28068
2.26631
2.2511
1
1
1
1
1
1
1
1
1
1
1
1
1
1
1
1
1
1
1
1
1
1
1
1
1
1
1
1
1
1
1
1
1
1
1
1
1
1
1
1
1
1
1
1
1
1
1
1
1
1
1
1
1
1
1
1
1
1
1
1
1
1.00124
1.21209
2.10275
2.39926
2.4293
2.42865
2.42787
2.42667
2.42499
2.42309
2.42104
2.41906
2.41704
2.41494
2.41288
2.41062
2.40799
2.40483
2.40097
2.39617
2.39038
2.38379
2.37647
2.36841
2.35991
2.35117
2.3421
2.33286
2.32332
2.31259
2.30131
2.2899
2.27837
2.26652
2.25355
1
1
1
1
1
1
1
1
1
1
1
1
1
1
1
1
1
1
1
1
1
1
1
1
1
1
1
1
1
1
1
1
1
1
1
1
1
1
1
1
1
1
1
1
1
1
1
1
1
1
1
1
1
1
1
1
1
1
1
1
1
1
1.00318
1.29521
2.15646
2.38996
2.41068
2.4133
2.4131
2.41239
2.41097
2.40914
2.40705
2.40483
2.40245
2.39986
2.39705
2.39398
2.3905
2.38652
2.38185
2.37639
2.37022
2.3634
2.35605
2.34834
2.34034
2.33206
2.32367
2.31511
2.30596
2.29721
2.2894
2.28099
2.27278
2.26447
1
1
1
1
1
1
1
1
1
1
1
1
1
1
1
1
1
1
1
1
1
1
1
1
1
1
1
1
1
1
1
1
1
1
1
1
1
1
1
1
1
1
1
1
1
1
1
1
1
1
1
1
1
1
1
1
1
1
1
1
1
1
1
1.00648
1.37907
2.19617
2.37691
2.391
2.3949
2.39576
2.39563
2.39487
2.39354
2.3919
2.38978
2.38717
2.38417
2.38083
2.3771
2.37293
2.36816
2.36274
2.3567
2.35019
2.34338
2.33619
2.32879
2.32139
2.31464
2.30859
2.30334
2.29962
2.29629
2.2931
2.29054
2.287
1
1
1
1
1
1
1
1
1
1
1
1
1
1
1
1
1
1
1
1
1
1
1
1
1
1
1
1
1
1
1
1
1
1
1
1
1
1
1
1
1
1
1
1
1
1
1
1
1
1
1
1
1
1
1
1
1
1
1
1
1
1
1
1.00001
1.01175
1.45351
2.22792
2.36769
2.37078
2.37343
2.37445
2.37544
2.37543
2.37498
2.37388
2.3722
2.36991
2.36705
2.3636
2.35957
2.35482
2.34946
2.3436
2.33726
2.33081
2.32419
2.31832
2.31342
2.31083
2.31079
2.31092
2.31267
2.31445
2.31568
2.31481
2.31186
1
1
1
1
1
1
1
1
1
1
1
1
1
1
1
1
1
1
1
1
1
1
1
1
1
1
1
1
1
1
1
1
1
1
1
1
1
1
1
1
1
1
1
1
1
1
1
1
1
1
1
1
1
1
1
1
1
1
1
1
1
1
1
1
1.00003
1.01862
1.55539
2.25477
2.35435
2.35276
2.35367
2.35391
2.35427
2.35475
2.35479
2.35443
2.35343
2.35158
2.34893
2.34533
2.34099
2.3361
2.33073
2.32483
2.31968
2.31485
2.31481
2.31633
2.31961
2.32419
2.32912
2.33617
2.33606
2.33587
2.33316
2.32823
1
1
1
1
1
1
1
1
1
1
1
1
1
1
1
1
1
1
1
1
1
1
1
1
1
1
1
1
1
1
1
1
1
1
1
1
1
1
1
1
1
1
1
1
1
1
1
1
1
1
1
1
1
1
1
1
1
1
1
1
1
1
1
1
1
1.00005
1.03235
1.61941
2.26422
2.3412
2.33838
2.33656
2.33584
2.33557
2.33554
2.33539
2.33483
2.33371
2.3318
2.3291
2.32568
2.32183
2.31784
2.31445
2.31539
2.31828
2.32404
2.33247
2.34118
2.34712
2.3536
2.35486
2.35093
2.34737
2.34234
2.33594
1
1
1
1
1
1
1
1
1
1
1
1
1
1
1
1
1
1
1
1
1
1
1
1
1
1
1
1
1
1
1
1
1
1
1
1
1
1
1
1
1
1
1
1
1
1
1
1
1
1
1
1
1
1
1
1
1
1
1
1
1
1
1
1
1
1
1.00013
1.04483
1.63845
2.25655
2.32861
2.32562
2.32353
2.32187
2.32047
2.31909
2.31756
2.31569
2.31347
2.31118
2.30885
2.30823
2.30994
2.3147
2.32379
2.33519
2.34751
2.35753
2.36392
2.36701
2.36702
2.36356
2.35701
2.3522
2.34647
2.3396
1
1
1
1
1
1
1
1
1
1
1
1
1
1
1
1
1
1
1
1
1
1
1
1
1
1
1
1
1
1
1
1
1
1
1
1
1
1
1
1
1
1
1
1
1
1
1
1
1
1
1
1
1
1
1
1
1
1
1
1
1
1
1
1
1
1
1
1.00022
1.05005
1.62375
2.23861
2.31734
2.31503
2.31272
2.31
2.30705
2.30396
2.30069
2.29702
2.29582
2.29751
2.30273
2.31496
2.33041
2.34716
2.36102
2.37114
2.37691
2.37573
2.37429
2.37106
2.36457
2.35804
2.35401
2.34848
2.3421
1
1
1
1
1
1
1
1
1
1
1
1
1
1
1
1
1
1
1
1
1
1
1
1
1
1
1
1
1
1
1
1
1
1
1
1
1
1
1
1
1
1
1
1
1
1
1
1
1
1
1
1
1
1
1
1
1
1
1
1
1
1
1
1
1
1
1
1
1.00027
1.04765
1.60422
2.21659
2.3051
2.30367
2.30057
2.29693
2.29244
2.28857
2.28767
2.29066
2.30223
2.31881
2.33997
2.35878
2.37035
2.38059
2.3814
2.37875
2.37488
2.37255
2.36891
2.36287
2.35785
2.35514
2.35034
2.34475
1
1
1
1
1
1
1
1
1
1
1
1
1
1
1
1
1
1
1
1
1
1
1
1
1
1
1
1
1
1
1
1
1
1
1
1
1
1
1
1
1
1
1
1
1
1
1
1
1
1
1
1
1
1
1
1
1
1
1
1
1
1
1
1
1
1
1
1
1
1.00025
1.04375
1.57306
2.18786
2.29183
2.291
2.28698
2.28259
2.28368
2.2921
2.30919
2.3329
2.35622
2.37312
2.38108
2.38494
2.38425
2.38065
2.37552
2.37151
2.36936
2.36589
2.36039
2.35694
2.35509
2.35103
2.34634
1
1
1
1
1
1
1
1
1
1
1
1
1
1
1
1
1
1
1
1
1
1
1
1
1
1
1
1
1
1
1
1
1
1
1
1
1
1
1
1
1
1
1
1
1
1
1
1
1
1
1
1
1
1
1
1
1
1
1
1
1
1
1
1
1
1
1
1
1
1
1.00022
1.03768
1.52779
2.14922
2.27462
2.27504
2.28105
2.29835
2.32677
2.35567
2.37723
2.38786
2.39302
2.39005
2.38712
2.38331
2.37789
2.37247
2.36952
2.36795
2.36466
2.3598
2.35712
2.35534
2.35141
2.34703
1
1
1
1
1
1
1
1
1
1
1
1
1
1
1
1
1
1
1
1
1
1
1
1
1
1
1
1
1
1
1
1
1
1
1
1
1
1
1
1
1
1
1
1
1
1
1
1
1
1
1
1
1
1
1
1
1
1
1
1
1
1
1
1
1
1
1
1
1
1
1
1.00018
1.02985
1.46913
2.09081
2.26657
2.31171
2.34218
2.37538
2.39127
2.40146
2.39974
2.39454
2.38871
2.38502
2.38077
2.37519
2.37105
2.3695
2.36778
2.36382
2.35947
2.35753
2.35558
2.35123
2.34707
1
1
1
1
1
1
1
1
1
1
1
1
1
1
1
1
1
1
1
1
1
1
1
1
1
1
1
1
1
1
1
1
1
1
1
1
1
1
1
1
1
1
1
1
1
1
1
1
1
1
1
1
1
1
1
1
1
1
1
1
1
1
1
1
1
1
1
1
1
1
1
1
1.00012
1.02171
1.38051
2.12696
2.38381
2.39911
2.40666
2.40702
2.40384
2.39868
2.39279
2.3877
2.38412
2.38059
2.37609
2.37307
2.37161
2.36894
2.36372
2.35963
2.3581
2.35548
2.35028
2.34654
1
1
1
1
1
1
1
1
1
1
1
1
1
1
1
1
1
1
1
1
1
1
1
1
1
1
1
1
1
1
1
1
1
1
1
1
1
1
1
1
1
1
1
1
1
1
1
1
1
1
1
1
1
1
1
1
1
1
1
1
1
1
1
1
1
1
1
1
1
1
1
1
1
1.00008
1.0127
1.68507
2.47542
2.47308
2.45648
2.44121
2.4257
2.41234
2.40091
2.39253
2.38735
2.38248
2.37775
2.37528
2.3737
2.37033
2.3652
2.36181
2.36005
2.35627
2.35027
2.34692
1
1
1
1
1
1
1
1
1
1
1
1
1
1
1
1
1
1
1
1
1
1
1
1
1
1
1
1
1
1
1
1
1
1
1
1
1
1
1
1
1
1
1
1
1
1
1
1
1
1
1
1
1
1
1
1
1
1
1
1
1
1
1
1
1
1
1
1
1
1
1
1
1
1
1.00003
1.10563
2.34779
2.55843
2.52275
2.49216
2.46649
2.44646
2.43035
2.41885
2.41001
2.40064
2.393
2.38744
2.38265
2.37643
2.37007
2.36566
2.36248
2.35758
2.35229
2.34929
1
1
1
1
1
1
1
1
1
1
1
1
1
1
1
1
1
1
1
1
1
1
1
1
1
1
1
1
1
1
1
1
1
1
1
1
1
1
1
1
1
1
1
1
1
1
1
1
1
1
1
1
1
1
1
1
1
1
1
1
1
1
1
1
1
1
1
1
1
1
1
1
1
1
1
1.00075
1.9243
2.57065
2.56704
2.55289
2.53473
2.51499
2.49564
2.47748
2.46086
2.44577
2.4324
2.42008
2.40843
2.397
2.38684
2.37916
2.37325
2.36619
2.35989
2.35515
1
1
1
1
1
1
1
1
1
1
1
1
1
1
1
1
1
1
1
1
1
1
1
1
1
1
1
1
1
1
1
1
1
1
1
1
1
1
1
1
1
1
1
1
1
1
1
1
1
1
1
1
1
1
1
1
1
1
1
1
1
1
1
1
1
1
1
1
1
1
1
1
1
1
1
1
1.24243
2.4164
2.60803
2.59718
2.58453
2.57046
2.55511
2.53782
2.51951
2.50089
2.48292
2.46567
2.44937
2.4346
2.42172
2.41125
2.40177
2.39138
2.38181
2.37358
1
1
1
1
1
1
1
1
1
1
1
1
1
1
1
1
1
1
1
1
1
1
1
1
1
1
1
1
1
1
1
1
1
1
1
1
1
1
1
1
1
1
1
1
1
1
1
1
1
1
1
1
1
1
1
1
1
1
1
1
1
1
1
1
1
1
1
1
1
1
1
1
1
1
1
1
1.00422
2.08502
2.60791
2.60634
2.6007
2.59452
2.58662
2.57678
2.56518
2.55192
2.53738
2.522
2.5063
2.49085
2.47625
2.46194
2.44771
2.43399
2.42132
2.40991
1
1
1
1
1
1
1
1
1
1
1
1
1
1
1
1
1
1
1
1
1
1
1
1
1
1
1
1
1
1
1
1
1
1
1
1
1
1
1
1
1
1
1
1
1
1
1
1
1
1
1
1
1
1
1
1
1
1
1
1
1
1
1
1
1
1
1
1
1
1
1
1
1
1
1
1
1
1.50946
2.48646
2.61654
2.61223
2.6085
2.60371
2.5977
2.59079
2.5829
2.57401
2.56403
2.55308
2.54116
2.52828
2.51427
2.49963
2.48505
2.47083
2.45686
1
1
1
1
1
1
1
1
1
1
1
1
1
1
1
1
1
1
1
1
1
1
1
1
1
1
1
1
1
1
1
1
1
1
1
1
1
1
1
1
1
1
1
1
1
1
1
1
1
1
1
1
1
1
1
1
1
1
1
1
1
1
1
1
1
1
1
1
1
1
1
1
1
1
1
1
1
1.02721
2.24997
2.62759
2.6253
2.61777
2.6127
2.60768
2.60259
2.59709
2.59123
2.58492
2.57794
2.57009
2.56132
2.55157
2.54097
2.52982
2.51826
2.50615
1
1
1
1
1
1
1
1
1
1
1
1
1
1
1
1
1
1
1
1
1
1
1
1
1
1
1
1
1
1
1
1
1
1
1
1
1
1
1
1
1
1
1
1
1
1
1
1
1
1
1
1
1
1
1
1
1
1
1
1
1
1
1
1
1
1
1
1
1
1
1
1
1
1
1
1
1
1.00004
1.83504
2.56858
2.62111
2.61698
2.61444
2.61129
2.60773
2.60384
2.59964
2.59509
2.59015
2.58472
2.57893
2.57273
2.56601
2.55874
2.55081
2.5422
1
1
1
1
1
1
1
1
1
1
1
1
1
1
1
1
1
1
1
1
1
1
1
1
1
1
1
1
1
1
1
1
1
1
1
1
1
1
1
1
1
1
1
1
1
1
1
1
1
1
1
1
1
1
1
1
1
1
1
1
1
1
1
1
1
1
1
1
1
1
1
1
1
1
1
1
1
1
1.29006
2.41719
2.62702
2.62143
2.61915
2.61613
2.61267
2.60904
2.60535
2.60157
2.59774
2.59384
2.58976
2.58544
2.58077
2.57565
2.56994
2.56364
1
1
1
1
1
1
1
1
1
1
1
1
1
1
1
1
1
1
1
1
1
1
1
1
1
1
1
1
1
1
1
1
1
1
1
1
1
1
1
1
1
1
1
1
1
1
1
1
1
1
1
1
1
1
1
1
1
1
1
1
1
1
1
1
1
1
1
1
1
1
1
1
1
1
1
1
1
1
1.00728
2.21045
2.63815
2.63504
2.62854
2.6234
2.61866
2.61442
2.61046
2.60666
2.60295
2.59929
2.5956
2.59184
2.58791
2.58377
2.57941
2.5748
1
1
1
1
1
1
1
1
1
1
1
1
1
1
1
1
1
1
1
1
1
1
1
1
1
1
1
1
1
1
1
1
1
1
1
1
1
1
1
1
1
1
1
1
1
1
1
1
1
1
1
1
1
1
1
1
1
1
1
1
1
1
1
1
1
1
1
1
1
1
1
1
1
1
1
1
1
1
1
1.85487
2.59364
2.63349
2.62861
2.62553
2.62212
2.61866
2.61511
2.61148
2.60784
2.60422
2.60062
2.59701
2.59334
2.58957
2.58571
2.58172
1
1
1
1
1
1
1
1
1
1
1
1
1
1
1
1
1
1
1
1
1
1
1
1
1
1
1
1
1
1
1
1
1
1
1
1
1
1
1
1
1
1
1
1
1
1
1
1
1
1
1
1
1
1
1
1
1
1
1
1
1
1
1
1
1
1
1
1
1
1
1
1
1
1
1
1
1
1
1
1.39538
2.46328
2.64415
2.63841
2.63558
2.6321
2.62826
2.62425
2.62016
2.61608
2.61205
2.60808
2.60413
2.60019
2.59622
2.5922
2.58813
1
1
1
1
1
1
1
1
1
1
1
1
1
1
1
1
1
1
1
1
1
1
1
1
1
1
1
1
1
1
1
1
1
1
1
1
1
1
1
1
1
1
1
1
1
1
1
1
1
1
1
1
1
1
1
1
1
1
1
1
1
1
1
1
1
1
1
1
1
1
1
1
1
1
1
1
1
1
1
1.01748
2.28862
2.65543
2.65084
2.64464
2.63996
2.63563
2.63153
2.62737
2.62321
2.61904
2.61487
2.61069
2.60649
2.60226
2.598
2.59373
1
1
1
1
1
1
1
1
1
1
1
1
1
1
1
1
1
1
1
1
1
1
1
1
1
1
1
1
1
1
1
1
1
1
1
1
1
1
1
1
1
1
1
1
1
1
1
1
1
1
1
1
1
1
1
1
1
1
1
1
1
1
1
1
1
1
1
1
1
1
1
1
1
1
1
1
1
1
1
1.00002
2.04681
2.64056
2.65032
2.64715
2.6444
2.64084
2.63712
2.63321
2.62925
2.62523
2.62112
2.61693
2.61266
2.60833
2.60396
2.59958
1
1
1
1
1
1
1
1
1
1
1
1
1
1
1
1
1
1
1
1
1
1
1
1
1
1
1
1
1
1
1
1
1
1
1
1
1
1
1
1
1
1
1
1
1
1
1
1
1
1
1
1
1
1
1
1
1
1
1
1
1
1
1
1
1
1
1
1
1
1
1
1
1
1
1
1
1
1
1
1
1.72657
2.57259
2.65274
2.6476
2.64532
2.64223
2.63907
2.63581
2.6324
2.62886
2.62516
2.62129
2.6173
2.6132
2.60905
2.60485
1
1
1
1
1
1
1
1
1
1
1
1
1
1
1
1
1
1
1
1
1
1
1
1
1
1
1
1
1
1
1
1
1
1
1
1
1
1
1
1
1
1
1
1
1
1
1
1
1
1
1
1
1
1
1
1
1
1
1
1
1
1
1
1
1
1
1
1
1
1
1
1
1
1
1
1
1
1
1
1
1.35319
2.45705
2.65769
2.65199
2.64954
2.64646
2.64331
2.64006
2.63678
2.63341
2.62992
2.6263
2.62257
2.61873
2.61483
2.61087
1
1
1
1
1
1
1
1
1
1
1
1
1
1
1
1
1
1
1
1
1
1
1
1
1
1
1
1
1
1
1
1
1
1
1
1
1
1
1
1
1
1
1
1
1
1
1
1
1
1
1
1
1
1
1
1
1
1
1
1
1
1
1
1
1
1
1
1
1
1
1
1
1
1
1
1
1
1
1
1
1.02164
2.31795
2.66659
2.66021
2.65482
2.6507
2.64707
2.64365
2.64032
2.63697
2.63356
2.63008
2.62653
2.62291
2.61924
2.61552
1
1
1
1
1
1
1
1
1
1
1
1
1
1
1
1
1
1
1
1
1
1
1
1
1
1
1
1
1
1
1
1
1
1
1
1
1
1
1
1
1
1
1
1
1
1
1
1
1
1
1
1
1
1
1
1
1
1
1
1
1
1
1
1
1
1
1
1
1
1
1
1
1
1
1
1
1
1
1
1
1.00004
2.151
2.66168
2.66131
2.65775
2.6551
2.65198
2.64877
2.64537
2.64183
2.63821
2.63457
2.63092
2.62726
2.6236
2.61991
1
1
1
1
1
1
1
1
1
1
1
1
1
1
1
1
1
1
1
1
1
1
1
1
1
1
1
1
1
1
1
1
1
1
1
1
1
1
1
1
1
1
1
1
1
1
1
1
1
1
1
1
1
1
1
1
1
1
1
1
1
1
1
1
1
1
1
1
1
1
1
1
1
1
1
1
1
1
1
1
1
1.94452
2.63427
2.6659
2.66177
2.65928
2.65615
2.65299
2.6496
2.64601
2.64234
2.63864
2.63494
2.63125
2.62757
2.62387
1
1
1
1
1
1
1
1
1
1
1
1
1
1
1
1
1
1
1
1
1
1
1
1
1
1
1
1
1
1
1
1
1
1
1
1
1
1
1
1
1
1
1
1
1
1
1
1
1
1
1
1
1
1
1
1
1
1
1
1
1
1
1
1
1
1
1
1
1
1
1
1
1
1
1
1
1
1
1
1
1
1.70861
2.5818
2.66745
2.66238
2.65971
2.65631
2.65306
2.64979
2.64649
2.64315
2.63979
2.63639
2.63297
2.62949
2.62597
1
1
1
1
1
1
1
1
1
1
1
1
1
1
1
1
1
1
1
1
1
1
1
1
1
1
1
1
1
1
1
1
1
1
1
1
1
1
1
1
1
1
1
1
1
1
1
1
1
1
1
1
1
1
1
1
1
1
1
1
1
1
1
1
1
1
1
1
1
1
1
1
1
1
1
1
1
1
1
1
1
1.45345
2.50856
2.66703
2.66182
2.65981
2.65713
2.65435
2.65144
2.64845
2.64539
2.64228
2.63909
2.63584
2.63252
2.62913
1
1
1
1
1
1
1
1
1
1
1
1
1
1
1
1
1
1
1
1
1
1
1
1
1
1
1
1
1
1
1
1
1
1
1
1
1
1
1
1
1
1
1
1
1
1
1
1
1
1
1
1
1
1
1
1
1
1
1
1
1
1
1
1
1
1
1
1
1
1
1
1
1
1
1
1
1
1
1
1
1
1.22163
2.41807
2.67135
2.66495
2.66178
2.65881
2.65592
2.65298
2.65002
2.64695
2.64384
2.64071
2.63754
2.63432
2.63104
1
1
1
1
1
1
1
1
1
1
1
1
1
1
1
1
1
1
1
1
1
1
1
1
1
1
1
1
1
1
1
1
1
1
1
1
1
1
1
1
1
1
1
1
1
1
1
1
1
1
1
1
1
1
1
1
1
1
1
1
1
1
1
1
1
1
1
1
1
1
1
1
1
1
1
1
1
1
1
1
1
1.0478
2.3273
2.67655
2.67209
2.66735
2.66354
2.66003
2.65665
2.65339
2.65014
2.64689
2.64365
2.64041
2.63714
2.63383
1
1
1
1
1
1
1
1
1
1
1
1
1
1
1
1
1
1
1
1
1
1
1
1
1
1
1
1
1
1
1
1
1
1
1
1
1
1
1
1
1
1
1
1
1
1
1
1
1
1
1
1
1
1
1
1
1
1
1
1
1
1
1
1
1
1
1
1
1
1
1
1
1
1
1
1
1
1
1
1
1
1.00044
2.22769
2.67373
2.67417
2.66996
2.66704
2.66374
2.66048
2.65726
2.65406
2.65081
2.64754
2.64423
2.64087
2.63748
1
1
1
1
1
1
1
1
1
1
1
1
1
1
1
1
1
1
1
1
1
1
1
1
1
1
1
1
1
1
1
1
1
1
1
1
1
1
1
1
1
1
1
1
1
1
1
1
1
1
1
1
1
1
1
1
1
1
1
1
1
1
1
1
1
1
1
1
1
1
1
1
1
1
1
1
1
1
1
1
1
1
2.11172
2.66254
2.67569
2.67157
2.66924
2.66633
2.66341
2.66041
2.65738
2.65425
2.65104
2.64775
2.6444
2.64097
1
1
1
1
1
1
1
1
1
1
1
1
1
1
1
1
1
1
1
1
1
1
1
1
1
1
1
1
1
1
1
1
1
1
1
1
1
1
1
1
1
1
1
1
1
1
1
1
1
1
1
1
1
1
1
1
1
1
1
1
1
1
1
1
1
1
1
1
1
1
1
1
1
1
1
1
1
1
1
1
1
1
1.99649
2.6455
2.6772
2.67279
2.67061
2.66784
2.66509
2.66219
2.65927
2.65622
2.65309
2.64986
2.64656
2.64313
1
1
1
1
1
1
1
1
1
1
1
1
1
1
1
1
1
1
1
1
1
1
1
1
1
1
1
1
1
1
1
1
1
1
1
1
1
1
1
1
1
1
1
1
1
1
1
1
1
1
1
1
1
1
1
1
1
1
1
1
1
1
1
1
1
1
1
1
1
1
1
1
1
1
1
1
1
1
1
1
1
1
1.89188
2.62847
2.67888
2.67362
2.67122
2.66837
2.6656
2.66273
2.65985
2.65688
2.65383
2.65068
2.64745
2.64408
1
1
1
1
1
1
1
1
1
1
1
1
1
1
1
1
1
1
1
1
1
1
1
1
1
1
1
1
1
1
1
1
1
1
1
1
1
1
1
1
1
1
1
1
1
1
1
1
1
1
1
1
1
1
1
1
1
1
1
1
1
1
1
1
1
1
1
1
1
1
1
1
1
1
1
1
1
1
1
1
1
1
1.7977
2.61167
2.68085
2.67503
2.67243
2.66944
2.66655
2.66363
2.6607
2.65771
2.65461
2.65143
2.64818
2.64481
1
1
1
1
1
1
1
1
1
1
1
1
1
1
1
1
1
1
1
1
1
1
1
1
1
1
1
1
1
1
1
1
1
1
1
1
1
1
1
1
1
1
1
1
1
1
1
1
1
1
1
1
1
1
1
1
1
1
1
1
1
1
1
1
1
1
1
1
1
1
1
1
1
1
1
1
1
1
1
1
1
1
1.70813
2.59786
2.68263
2.67657
2.67382
2.67074
2.66777
2.66475
2.6617
2.65862
2.65542
2.65219
2.64888
2.64551
1
1
1
1
1
1
1
1
1
1
1
1
1
1
1
1
1
1
1
1
1
1
1
1
1
1
1
1
1
1
1
1
1
1
1
1
1
1
1
1
1
1
1
1
1
1
1
1
1
1
1
1
1
1
1
1
1
1
1
1
1
1
1
1
1
1
1
1
1
1
1
1
1
1
1
1
1
1
1
1
1
1
1.63806
2.58409
2.68415
2.67806
2.67528
2.67215
2.66908
2.66596
2.66276
2.65959
2.65631
2.65303
2.64968
2.6463
1
1
1
1
1
1
1
1
1
1
1
1
1
1
1
1
1
1
1
1
1
1
1
1
1
1
1
1
1
1
1
1
1
1
1
1
1
1
1
1
1
1
1
1
1
1
1
1
1
1
1
1
1
1
1
1
1
1
1
1
1
1
1
1
1
1
1
1
1
1
1
1
1
1
1
1
1
1
1
1
1
1
1.58678
2.57215
2.68506
2.67906
2.67627
2.67311
2.67
2.66682
2.66356
2.66033
2.65704
2.65374
2.65037
2.64701
1
1
1
1
1
1
1
1
1
1
1
1
1
1
1
1
1
1
1
1
1
1
1
1
1
1
1
1
1
1
1
1
1
1
1
1
1
1
1
1
1
1
1
1
1
1
1
1
1
1
1
1
1
1
1
1
1
1
1
1
1
1
1
1
1
1
1
1
1
1
1
1
1
1
1
1
1
1
1
1
1
1
1.55124
2.5623
2.68523
2.6794
2.67663
2.67347