/*--------------------------------*- C++ -*----------------------------------*\
  =========                 |
  \\      /  F ield         | OpenFOAM: The Open Source CFD Toolbox
   \\    /   O peration     | Website:  https://openfoam.org
    \\  /    A nd           | Version:  7
     \\/     M anipulation  |
\*---------------------------------------------------------------------------*/
FoamFile
{
    version     2.0;
    format      ascii;
    class       volVectorField;
    location    "8.6";
    object      U;
}
// * * * * * * * * * * * * * * * * * * * * * * * * * * * * * * * * * * * * * //

dimensions      [0 1 -1 0 0 0 0];

internalField   nonuniform List<vector> 
19968
(
(3 -1.69979e-17 0)
(3 -4.78452e-17 0)
(3 1.48955e-16 0)
(3 1.47055e-16 0)
(3 6.86973e-16 0)
(3 1.2395e-15 0)
(3 1.62891e-15 0)
(3 1.12133e-15 0)
(3 1.77189e-15 0)
(3 1.81289e-15 0)
(3 1.97936e-15 0)
(3 1.69951e-15 0)
(3 1.81191e-15 0)
(3 2.43545e-15 0)
(3 2.54225e-15 0)
(3 1.4447e-15 0)
(3 1.09201e-15 0)
(3 3.68961e-16 0)
(3 -4.49228e-17 0)
(3 -3.9933e-16 0)
(3 -7.78232e-16 0)
(3 -3.38974e-17 0)
(3 4.14935e-16 0)
(3 6.32112e-16 0)
(3 5.05198e-16 0)
(3 4.3204e-16 0)
(3 4.18853e-16 0)
(3 4.24999e-16 0)
(3 5.04362e-16 0)
(3 5.61245e-16 0)
(3 4.31002e-16 0)
(3 7.12639e-17 0)
(3 -5.35459e-17 0)
(3 1.8368e-16 0)
(3 4.71602e-16 0)
(3 -1.92785e-16 0)
(3 -5.01624e-16 0)
(3 -4.87322e-16 0)
(3 -5.08334e-16 0)
(3 -1.92684e-16 0)
(3 1.88217e-16 0)
(3 4.54302e-16 0)
(3 7.93953e-17 0)
(3 -5.92647e-16 0)
(3 -9.66922e-16 0)
(3 -1.10497e-15 0)
(3 -1.08335e-15 0)
(3 -1.58159e-15 0)
(2.79639 0.00226647 0)
(0.967668 0.00692983 0)
(0.758421 0.00678457 0)
(0.744188 0.00725454 0)
(0.729249 0.00765064 0)
(0.714701 0.0085798 0)
(0.698611 0.0097099 0)
(0.6815 0.01034 0)
(0.66456 0.00970375 0)
(0.649336 0.00831631 0)
(0.635746 0.00765966 0)
(0.622354 0.00819374 0)
(0.607701 0.00935057 0)
(0.591647 0.0100254 0)
(0.575606 0.00966211 0)
(0.560519 0.00924752 0)
(0.545842 0.00943279 0)
(0.53087 0.00969366 0)
(0.51554 0.0097041 0)
(0.499835 0.00972899 0)
(0.483636 0.00992269 0)
(0.467172 0.0101373 0)
(0.450964 0.010242 0)
(0.435338 0.010274 0)
(0.420165 0.0103436 0)
(0.404998 0.0104784 0)
(0.389355 0.0106188 0)
(0.37301 0.0107205 0)
(0.356159 0.010796 0)
(0.33923 0.0108792 0)
(0.322505 0.0109866 0)
(0.305937 0.0111078 0)
(0.28928 0.011228 0)
(0.2723 0.0113485 0)
(0.254943 0.0114778 0)
(0.237421 0.0116199 0)
(0.220051 0.0117771 0)
(0.202948 0.0119491 0)
(0.18593 0.0121312 0)
(0.168666 0.0123268 0)
(0.150888 0.0125494 0)
(0.132506 0.0128068 0)
(0.113591 0.0131 0)
(0.0942268 0.013422 0)
(0.0743937 0.0137781 0)
(0.0538943 0.0141809 0)
(0.0327338 0.0144494 0)
(0.0110695 0.0148813 0)
(3 9.89736e-17 0)
(3 5.29173e-16 0)
(3 6.01459e-16 0)
(3 5.28921e-16 0)
(3 1.4307e-15 0)
(3 2.4155e-15 0)
(3 3.06594e-15 0)
(3 2.81602e-15 0)
(3 2.87936e-15 0)
(3 3.29452e-15 0)
(3 3.65285e-15 0)
(3 2.97786e-15 0)
(3 2.63042e-15 0)
(3 2.10308e-15 0)
(3 1.63541e-15 0)
(3 5.18811e-16 0)
(3 -2.11805e-17 0)
(3 -4.07688e-16 0)
(3 -5.78918e-16 0)
(3 -1.01294e-15 0)
(3 -9.88971e-16 0)
(3 -7.87102e-16 0)
(3 -8.35386e-16 0)
(3 -3.41645e-16 0)
(3 8.90398e-18 0)
(3 1.31364e-16 0)
(3 3.03758e-16 0)
(3 3.37186e-17 0)
(3 -5.88765e-16 0)
(3 -1.34691e-16 0)
(3 -1.32844e-16 0)
(3 -9.49877e-16 0)
(3 -1.415e-15 0)
(3 -1.40696e-15 0)
(3 -1.49601e-15 0)
(3 -2.88939e-15 0)
(3 -3.1722e-15 0)
(3 -2.99113e-15 0)
(3 -2.5795e-15 0)
(3 -2.10186e-15 0)
(3 -8.77627e-16 0)
(3 -3.42477e-16 0)
(3 -1.11583e-15 0)
(3 -1.53209e-15 0)
(3 -2.13871e-15 0)
(3 -2.46135e-15 0)
(3 -2.8161e-15 0)
(3 -1.64784e-15 0)
(2.80993 0.0123206 0)
(0.972125 0.0298055 0)
(0.755048 0.0275903 0)
(0.739342 0.0213078 0)
(0.724435 0.0223411 0)
(0.709913 0.0249108 0)
(0.694319 0.0280797 0)
(0.677989 0.0300144 0)
(0.661784 0.0289369 0)
(0.646805 0.0258199 0)
(0.632695 0.0239518 0)
(0.618772 0.0251028 0)
(0.604081 0.0281393 0)
(0.588176 0.029947 0)
(0.572396 0.0291168 0)
(0.55734 0.0281673 0)
(0.542561 0.0287731 0)
(0.527481 0.0295348 0)
(0.512044 0.0295529 0)
(0.496237 0.0296063 0)
(0.479978 0.0301531 0)
(0.46351 0.0307823 0)
(0.447313 0.0311384 0)
(0.43166 0.0313062 0)
(0.416409 0.0315411 0)
(0.40115 0.0319119 0)
(0.385442 0.032291 0)
(0.369071 0.032586 0)
(0.352219 0.0328347 0)
(0.335292 0.0331195 0)
(0.318553 0.0334717 0)
(0.301948 0.0338507 0)
(0.28524 0.0342096 0)
(0.268209 0.0345549 0)
(0.25082 0.0349203 0)
(0.233294 0.0353253 0)
(0.215946 0.0357818 0)
(0.198895 0.0362932 0)
(0.181961 0.0368522 0)
(0.164822 0.0374721 0)
(0.147217 0.038191 0)
(0.129056 0.0390239 0)
(0.110398 0.0399561 0)
(0.0913288 0.040941 0)
(0.0718628 0.041968 0)
(0.0518886 0.0430883 0)
(0.0314135 0.043789 0)
(0.0106102 0.044915 0)
(3 5.6433e-17 0)
(3 4.44374e-16 0)
(3 4.09503e-16 0)
(3 4.91346e-16 0)
(3 6.15215e-16 0)
(3 7.44735e-16 0)
(3 3.99361e-16 0)
(3 4.51352e-16 0)
(3 -2.90937e-16 0)
(3 -6.79866e-16 0)
(3 -6.83277e-16 0)
(3 -4.97892e-16 0)
(3 -4.80201e-16 0)
(3 -5.93171e-16 0)
(3 -3.13256e-16 0)
(3 -3.84907e-16 0)
(3 2.96573e-16 0)
(3 1.11953e-15 0)
(3 1.2145e-15 0)
(3 1.0793e-15 0)
(3 7.75278e-16 0)
(3 -9.56986e-17 0)
(3 -8.92022e-16 0)
(3 -1.12063e-15 0)
(3 -3.1397e-16 0)
(3 1.65304e-17 0)
(3 1.6525e-16 0)
(3 6.83933e-17 0)
(3 -2.63896e-16 0)
(3 -1.03471e-16 0)
(3 2.88729e-16 0)
(3 1.00315e-15 0)
(3 1.27285e-15 0)
(3 1.12155e-15 0)
(3 1.32466e-15 0)
(3 1.05762e-15 0)
(3 -6.33299e-16 0)
(3 -1.41433e-15 0)
(3 -7.37081e-16 0)
(3 -2.55059e-16 0)
(3 -9.331e-17 0)
(3 -6.15441e-16 0)
(3 -9.95168e-16 0)
(3 -5.56508e-16 0)
(3 -7.22124e-16 0)
(3 -1.06914e-15 0)
(3 -1.07187e-15 0)
(3 4.09547e-17 0)
(2.84354 0.0199114 0)
(0.987533 0.0503277 0)
(0.760158 0.0473232 0)
(0.744312 0.0391185 0)
(0.727399 0.039967 0)
(0.711926 0.0434988 0)
(0.696102 0.0477149 0)
(0.680019 0.0500267 0)
(0.664218 0.0485336 0)
(0.6493 0.0445508 0)
(0.634534 0.0421113 0)
(0.619835 0.0438402 0)
(0.60488 0.0482794 0)
(0.588872 0.0508316 0)
(0.57316 0.0495171 0)
(0.557989 0.0482275 0)
(0.543048 0.0493423 0)
(0.527815 0.0506565 0)
(0.512193 0.0507528 0)
(0.496178 0.0508734 0)
(0.47974 0.0517379 0)
(0.463136 0.052709 0)
(0.446809 0.0532799 0)
(0.430984 0.053607 0)
(0.41551 0.0540398 0)
(0.400022 0.0546548 0)
(0.384125 0.0552783 0)
(0.367626 0.05579 0)
(0.350683 0.0562375 0)
(0.333664 0.0567275 0)
(0.316808 0.0573062 0)
(0.300066 0.0579225 0)
(0.283221 0.058513 0)
(0.26608 0.0590891 0)
(0.248622 0.0596977 0)
(0.23107 0.0603593 0)
(0.213728 0.0610882 0)
(0.19671 0.0618958 0)
(0.179837 0.0627807 0)
(0.162787 0.063766 0)
(0.145294 0.0649055 0)
(0.127248 0.0662132 0)
(0.108682 0.0676617 0)
(0.0896823 0.0691839 0)
(0.0703136 0.0707604 0)
(0.0505808 0.0725036 0)
(0.0304885 0.0735554 0)
(0.0103177 0.0752912 0)
(3 -3.4254e-17 0)
(3 -3.32497e-16 0)
(3 2.63443e-16 0)
(3 4.11866e-16 0)
(3 3.76346e-16 0)
(3 5.51514e-16 0)
(3 2.54507e-16 0)
(3 3.36317e-16 0)
(3 -2.19857e-16 0)
(3 -6.16339e-16 0)
(3 -3.62935e-16 0)
(3 -9.01779e-16 0)
(3 -1.11797e-15 0)
(3 -7.20117e-16 0)
(3 -2.19283e-16 0)
(3 3.4589e-16 0)
(3 9.06046e-16 0)
(3 1.81175e-15 0)
(3 1.79683e-15 0)
(3 1.48568e-15 0)
(3 1.67365e-15 0)
(3 1.86151e-15 0)
(3 1.67808e-15 0)
(3 1.9795e-15 0)
(3 9.53601e-16 0)
(3 4.05911e-16 0)
(3 7.97487e-16 0)
(3 5.06647e-16 0)
(3 4.47478e-16 0)
(3 -8.03663e-16 0)
(3 -9.45938e-16 0)
(3 8.12235e-17 0)
(3 5.29837e-16 0)
(3 5.68154e-16 0)
(3 8.61865e-16 0)
(3 8.14434e-16 0)
(3 -3.27255e-16 0)
(3 -6.49644e-16 0)
(3 -1.03327e-16 0)
(3 4.82261e-16 0)
(3 3.36271e-16 0)
(3 3.06868e-16 0)
(3 -2.61837e-17 0)
(3 -3.3319e-17 0)
(3 2.78223e-16 0)
(3 2.80519e-16 0)
(3 2.55531e-16 0)
(3 5.84444e-16 0)
(2.8875 0.0238921 0)
(1.00889 0.0699932 0)
(0.761688 0.0654226 0)
(0.746511 0.0581607 0)
(0.729257 0.0592333 0)
(0.713592 0.0630282 0)
(0.698069 0.0674382 0)
(0.682614 0.069715 0)
(0.667403 0.0682757 0)
(0.652624 0.0644207 0)
(0.637483 0.0620167 0)
(0.622248 0.0642208 0)
(0.607146 0.0695434 0)
(0.59112 0.0724518 0)
(0.57548 0.0707298 0)
(0.560201 0.0692468 0)
(0.545225 0.0708689 0)
(0.530042 0.0727835 0)
(0.514441 0.0730915 0)
(0.498404 0.0733802 0)
(0.481934 0.0745683 0)
(0.465295 0.0758448 0)
(0.448889 0.0766433 0)
(0.432883 0.0772132 0)
(0.417115 0.0779274 0)
(0.401274 0.078825 0)
(0.38503 0.0797149 0)
(0.368216 0.0804784 0)
(0.35097 0.0811614 0)
(0.333613 0.0818736 0)
(0.316364 0.082674 0)
(0.29919 0.0835104 0)
(0.281905 0.0843047 0)
(0.264349 0.0850666 0)
(0.246535 0.085853 0)
(0.228696 0.0866893 0)
(0.211147 0.0876011 0)
(0.194018 0.0886213 0)
(0.177152 0.0897678 0)
(0.160236 0.0910788 0)
(0.142992 0.0926204 0)
(0.125261 0.0943992 0)
(0.107002 0.0963714 0)
(0.0882544 0.098453 0)
(0.0690915 0.100598 0)
(0.0496241 0.102992 0)
(0.029815 0.1044 0)
(0.0101653 0.106733 0)
(3 8.66295e-17 0)
(3 8.58871e-17 0)
(3 -5.63955e-17 0)
(3 -2.92702e-16 0)
(3 -1.33377e-16 0)
(3 -1.31536e-16 0)
(3 5.97559e-16 0)
(3 9.76294e-16 0)
(3 1.29702e-15 0)
(3 1.87341e-15 0)
(3 1.80034e-15 0)
(3 1.48311e-15 0)
(3 1.3027e-15 0)
(3 9.81085e-16 0)
(3 9.70727e-16 0)
(3 1.07335e-15 0)
(3 1.31066e-15 0)
(3 1.65001e-15 0)
(3 1.21667e-15 0)
(3 7.6597e-16 0)
(3 6.11722e-16 0)
(3 1.70643e-15 0)
(3 2.56303e-15 0)
(3 2.45547e-15 0)
(3 1.99758e-15 0)
(3 1.31102e-15 0)
(3 1.25911e-15 0)
(3 1.42258e-15 0)
(3 9.09491e-16 0)
(3 5.13729e-16 0)
(3 -5.29248e-16 0)
(3 -7.46287e-16 0)
(3 -8.27095e-16 0)
(3 2.20752e-16 0)
(3 2.57856e-16 0)
(3 5.4399e-16 0)
(3 4.52846e-16 0)
(3 4.33749e-16 0)
(3 -1.32835e-15 0)
(3 -2.03272e-15 0)
(3 -1.83307e-15 0)
(3 -1.36169e-15 0)
(3 -8.90372e-16 0)
(3 -8.69833e-16 0)
(3 -6.02266e-16 0)
(3 6.09257e-16 0)
(3 9.61452e-16 0)
(3 1.37615e-15 0)
(2.93753 0.0341992 0)
(1.03648 0.0966078 0)
(0.76537 0.0825086 0)
(0.750443 0.078578 0)
(0.733036 0.0803946 0)
(0.716947 0.0840142 0)
(0.701424 0.0877128 0)
(0.68659 0.0894054 0)
(0.672247 0.0881696 0)
(0.658091 0.0850482 0)
(0.643265 0.0832645 0)
(0.628167 0.0859822 0)
(0.613298 0.0917498 0)
(0.597497 0.0947737 0)
(0.581975 0.0928214 0)
(0.566606 0.0912147 0)
(0.551657 0.0932119 0)
(0.536678 0.0957081 0)
(0.521267 0.0963902 0)
(0.505364 0.0970286 0)
(0.488979 0.0986341 0)
(0.472375 0.100249 0)
(0.455931 0.101346 0)
(0.439766 0.102317 0)
(0.423698 0.103494 0)
(0.407459 0.104817 0)
(0.390797 0.106096 0)
(0.373585 0.10725 0)
(0.35593 0.108317 0)
(0.338097 0.109381 0)
(0.320279 0.110506 0)
(0.302455 0.111647 0)
(0.284464 0.11271 0)
(0.266173 0.113685 0)
(0.24761 0.114626 0)
(0.229022 0.115551 0)
(0.210735 0.116491 0)
(0.192913 0.117505 0)
(0.17545 0.118646 0)
(0.158076 0.119988 0)
(0.140536 0.121634 0)
(0.122668 0.12362 0)
(0.104407 0.125913 0)
(0.0857747 0.128453 0)
(0.0668545 0.131143 0)
(0.0478435 0.134252 0)
(0.0285961 0.13609 0)
(0.00982066 0.139077 0)
(3 1.10942e-16 0)
(3 4.20115e-16 0)
(3 4.81562e-16 0)
(3 1.74628e-16 0)
(3 -1.33267e-16 0)
(3 -5.2676e-16 0)
(3 -2.82634e-16 0)
(3 -7.82938e-17 0)
(3 2.3776e-16 0)
(3 7.35333e-16 0)
(3 9.07183e-16 0)
(3 1.31371e-15 0)
(3 1.421e-15 0)
(3 1.43494e-15 0)
(3 1.4124e-15 0)
(3 2.18815e-15 0)
(3 1.78328e-15 0)
(3 1.42809e-15 0)
(3 8.79414e-16 0)
(3 2.01609e-16 0)
(3 -1.53322e-16 0)
(3 1.34804e-17 0)
(3 2.2534e-16 0)
(3 1.2177e-16 0)
(3 3.20386e-16 0)
(3 4.73343e-16 0)
(3 7.66375e-16 0)
(3 1.19104e-15 0)
(3 9.58465e-16 0)
(3 7.18303e-16 0)
(3 -4.47045e-16 0)
(3 -6.58216e-16 0)
(3 -3.71313e-16 0)
(3 -3.07814e-16 0)
(3 1.03307e-16 0)
(3 5.31876e-16 0)
(3 8.4395e-16 0)
(3 4.8889e-16 0)
(3 -4.09603e-16 0)
(3 -1.3332e-15 0)
(3 -3.30634e-15 0)
(3 -2.22991e-15 0)
(3 -6.23713e-16 0)
(3 -4.58288e-16 0)
(3 1.9864e-16 0)
(3 1.73645e-15 0)
(3 3.17922e-15 0)
(3 2.40992e-15 0)
(2.99624 0.00247866 0)
(1.10334 0.114969 0)
(0.777027 0.0927378 0)
(0.76162 0.0985228 0)
(0.744392 0.102349 0)
(0.727418 0.105884 0)
(0.711186 0.108173 0)
(0.696174 0.108459 0)
(0.682138 0.107064 0)
(0.668376 0.10497 0)
(0.65398 0.104258 0)
(0.639243 0.10755 0)
(0.624662 0.113523 0)
(0.609093 0.116743 0)
(0.593581 0.114913 0)
(0.578113 0.113221 0)
(0.563187 0.115289 0)
(0.548503 0.118156 0)
(0.533427 0.119288 0)
(0.517824 0.120458 0)
(0.501689 0.122613 0)
(0.485261 0.1246 0)
(0.468941 0.125996 0)
(0.452826 0.127451 0)
(0.436706 0.129249 0)
(0.420318 0.131138 0)
(0.403482 0.132925 0)
(0.386123 0.134615 0)
(0.368317 0.136247 0)
(0.350264 0.137856 0)
(0.332113 0.139503 0)
(0.313843 0.141163 0)
(0.295306 0.142727 0)
(0.276383 0.144153 0)
(0.257111 0.145475 0)
(0.237728 0.146696 0)
(0.218554 0.147838 0)
(0.199771 0.148971 0)
(0.18131 0.150166 0)
(0.162941 0.151514 0)
(0.144441 0.153146 0)
(0.125669 0.155137 0)
(0.106579 0.157486 0)
(0.0872211 0.160232 0)
(0.0676995 0.163227 0)
(0.0482969 0.16689 0)
(0.028741 0.169064 0)
(0.00993962 0.172606 0)
(3 -1.36206e-16 0)
(3 -2.06264e-16 0)
(3 -3.77738e-17 0)
(3 3.07699e-17 0)
(3 -4.55725e-16 0)
(3 -5.27564e-16 0)
(3 -3.85695e-16 0)
(3 -4.42735e-16 0)
(3 -3.91493e-16 0)
(3 -3.38389e-16 0)
(3 -1.49522e-16 0)
(3 3.14223e-16 0)
(3 5.49796e-16 0)
(3 1.18406e-15 0)
(3 1.48937e-15 0)
(3 1.98839e-15 0)
(3 1.48881e-15 0)
(3 7.84244e-16 0)
(3 5.89416e-16 0)
(3 1.42142e-17 0)
(3 8.5971e-17 0)
(3 1.23254e-16 0)
(3 -6.11187e-17 0)
(3 -3.0243e-17 0)
(3 -1.62521e-16 0)
(3 -2.48681e-16 0)
(3 -1.19272e-16 0)
(3 -1.86529e-16 0)
(3 -3.90238e-16 0)
(3 -8.01775e-16 0)
(3 -1.16085e-15 0)
(3 -1.5324e-15 0)
(3 -1.78122e-15 0)
(3 -1.71508e-15 0)
(3 -7.87644e-16 0)
(3 -2.91058e-16 0)
(3 4.27245e-16 0)
(3 5.37054e-16 0)
(3 4.23253e-16 0)
(3 5.08632e-17 0)
(3 -6.04428e-16 0)
(3 -1.49792e-15 0)
(3 -1.39037e-15 0)
(3 -1.13159e-15 0)
(3 5.00277e-17 0)
(3 1.11584e-15 0)
(3 2.80112e-15 0)
(3 1.6781e-16 0)
(3.00003 6.19005e-05 0)
(1.21869 0.133535 0)
(0.777232 0.108662 0)
(0.757116 0.121407 0)
(0.740611 0.128168 0)
(0.723443 0.131302 0)
(0.707343 0.131883 0)
(0.692395 0.130556 0)
(0.678335 0.128596 0)
(0.664559 0.127252 0)
(0.650364 0.127657 0)
(0.635964 0.131557 0)
(0.621779 0.137722 0)
(0.606699 0.141342 0)
(0.59147 0.139913 0)
(0.576212 0.13814 0)
(0.561499 0.139969 0)
(0.547294 0.142964 0)
(0.532799 0.144606 0)
(0.517778 0.146532 0)
(0.502201 0.149451 0)
(0.486243 0.15191 0)
(0.470361 0.153604 0)
(0.45468 0.155551 0)
(0.438964 0.158026 0)
(0.422909 0.160522 0)
(0.406387 0.162806 0)
(0.389393 0.165028 0)
(0.372002 0.167265 0)
(0.354346 0.169478 0)
(0.33652 0.171693 0)
(0.318484 0.173903 0)
(0.300093 0.175989 0)
(0.281234 0.177879 0)
(0.261946 0.179587 0)
(0.242449 0.181104 0)
(0.223039 0.182446 0)
(0.203892 0.183689 0)
(0.184965 0.184915 0)
(0.166063 0.186217 0)
(0.147 0.187743 0)
(0.127667 0.189618 0)
(0.108048 0.191857 0)
(0.0882297 0.194665 0)
(0.0683221 0.197784 0)
(0.048692 0.201893 0)
(0.0289154 0.204359 0)
(0.0100649 0.208391 0)
(3 -9.0827e-17 0)
(3 -4.19097e-16 0)
(3 -6.73316e-16 0)
(3 -7.52068e-16 0)
(3 -5.5555e-16 0)
(3 -5.13947e-16 0)
(3 -4.22029e-16 0)
(3 -1.27299e-16 0)
(3 1.96491e-16 0)
(3 2.09763e-16 0)
(3 1.83409e-16 0)
(3 2.88072e-16 0)
(3 8.12076e-16 0)
(3 1.25266e-15 0)
(3 1.96909e-15 0)
(3 1.14204e-15 0)
(3 9.31358e-16 0)
(3 9.04981e-16 0)
(3 7.56262e-16 0)
(3 7.99807e-16 0)
(3 5.77807e-16 0)
(3 7.03499e-16 0)
(3 6.34466e-16 0)
(3 4.10049e-16 0)
(3 -1.73342e-16 0)
(3 -6.61611e-16 0)
(3 -9.34164e-16 0)
(3 -7.67184e-16 0)
(3 -8.15698e-16 0)
(3 -5.87728e-16 0)
(3 -1.13e-16 0)
(3 -1.73167e-17 0)
(3 2.9962e-16 0)
(3 8.24706e-16 0)
(3 1.19093e-15 0)
(3 1.67465e-15 0)
(3 1.64406e-15 0)
(3 1.3101e-15 0)
(3 1.13818e-15 0)
(3 9.12579e-16 0)
(3 7.29274e-16 0)
(3 -2.0265e-16 0)
(3 -5.00645e-16 0)
(3 -2.72695e-16 0)
(3 2.11634e-16 0)
(3 -6.37476e-16 0)
(3 -4.69652e-17 0)
(3 -2.16236e-16 0)
(3 1.14274e-07 0)
(1.42184 0.162694 0)
(0.789662 0.132187 0)
(0.756908 0.145895 0)
(0.740637 0.153927 0)
(0.723453 0.156236 0)
(0.707642 0.155503 0)
(0.692561 0.153068 0)
(0.678003 0.150533 0)
(0.663738 0.149485 0)
(0.649492 0.15056 0)
(0.635473 0.154637 0)
(0.622031 0.160657 0)
(0.607951 0.164624 0)
(0.593361 0.164069 0)
(0.578516 0.162516 0)
(0.564017 0.163904 0)
(0.550213 0.166655 0)
(0.536349 0.168683 0)
(0.522082 0.171442 0)
(0.507309 0.175251 0)
(0.492049 0.178229 0)
(0.476818 0.180105 0)
(0.461802 0.182446 0)
(0.446746 0.18566 0)
(0.431238 0.188932 0)
(0.415161 0.191862 0)
(0.398604 0.194742 0)
(0.381661 0.19775 0)
(0.364403 0.200783 0)
(0.346857 0.203805 0)
(0.328958 0.206827 0)
(0.310558 0.209748 0)
(0.291551 0.212464 0)
(0.271989 0.214951 0)
(0.252088 0.21717 0)
(0.232127 0.219106 0)
(0.212274 0.220817 0)
(0.192505 0.222371 0)
(0.172672 0.223853 0)
(0.15264 0.225404 0)
(0.132359 0.227216 0)
(0.111833 0.229282 0)
(0.0911947 0.232061 0)
(0.0705335 0.235101 0)
(0.0502795 0.239478 0)
(0.0298647 0.242145 0)
(0.010425 0.246544 0)
(3 2.44467e-16 0)
(3 3.88105e-16 0)
(3 2.75378e-16 0)
(3 6.44969e-16 0)
(3 8.45189e-16 0)
(3 6.51693e-16 0)
(3 1.38388e-16 0)
(3 9.55389e-17 0)
(3 4.05243e-16 0)
(3 6.51645e-16 0)
(3 4.50799e-16 0)
(3 2.83876e-16 0)
(3 6.19532e-16 0)
(3 6.83851e-16 0)
(3 9.16071e-16 0)
(3 5.74852e-16 0)
(3 8.53583e-19 0)
(3 -2.72414e-16 0)
(3 -1.60193e-16 0)
(3 -2.88213e-16 0)
(3 -9.11532e-16 0)
(3 -1.47208e-15 0)
(3 -1.2836e-15 0)
(3 -9.96915e-16 0)
(3 -6.37999e-16 0)
(3 -1.56199e-16 0)
(3 -6.13436e-16 0)
(3 -1.19143e-15 0)
(3 -1.28815e-15 0)
(3 -1.46465e-15 0)
(3 -9.99773e-16 0)
(3 3.48909e-16 0)
(3 1.34824e-15 0)
(3 1.51751e-15 0)
(3 1.22148e-15 0)
(3 8.02714e-16 0)
(3 7.68858e-16 0)
(3 1.05836e-15 0)
(3 1.4401e-15 0)
(3 1.10787e-15 0)
(3 4.58467e-16 0)
(3 4.10776e-16 0)
(3 7.98157e-17 0)
(3 -3.96421e-16 0)
(3 -1.51579e-15 0)
(3 -2.00094e-15 0)
(3 -7.32505e-16 0)
(3 -4.10477e-16 0)
(3 2.60664e-10 0)
(1.73684 0.183776 0)
(0.816856 0.160634 0)
(0.763384 0.173996 0)
(0.746455 0.180236 0)
(0.729094 0.181196 0)
(0.713008 0.180028 0)
(0.697011 0.17782 0)
(0.681058 0.175534 0)
(0.665298 0.174486 0)
(0.649987 0.175259 0)
(0.635427 0.178427 0)
(0.621973 0.183621 0)
(0.608454 0.188026 0)
(0.594076 0.189041 0)
(0.579146 0.188379 0)
(0.564323 0.189315 0)
(0.550246 0.191341 0)
(0.536457 0.193398 0)
(0.522566 0.196909 0)
(0.508408 0.201718 0)
(0.493753 0.205356 0)
(0.479149 0.207347 0)
(0.464883 0.209961 0)
(0.450734 0.213967 0)
(0.436118 0.218238 0)
(0.420839 0.222006 0)
(0.405098 0.225651 0)
(0.389042 0.229544 0)
(0.372673 0.233571 0)
(0.355916 0.237593 0)
(0.338663 0.241618 0)
(0.320763 0.245576 0)
(0.302113 0.249346 0)
(0.282767 0.252864 0)
(0.262923 0.256051 0)
(0.242817 0.258852 0)
(0.222581 0.261297 0)
(0.20219 0.263432 0)
(0.181539 0.265327 0)
(0.160563 0.267093 0)
(0.139279 0.26899 0)
(0.11771 0.27092 0)
(0.0960383 0.273646 0)
(0.0743224 0.276449 0)
(0.0530529 0.28092 0)
(0.0315789 0.283692 0)
(0.011027 0.288352 0)
(3 -5.19962e-18 0)
(3 1.70062e-17 0)
(3 2.23951e-16 0)
(3 2.72994e-16 0)
(3 2.28376e-16 0)
(3 2.57793e-16 0)
(3 1.34055e-16 0)
(3 1.05281e-16 0)
(3 2.28291e-16 0)
(3 -3.78943e-16 0)
(3 -1.16493e-15 0)
(3 -1.5179e-15 0)
(3 -1.42905e-15 0)
(3 -1.098e-15 0)
(3 -1.01762e-15 0)
(3 -7.29188e-16 0)
(3 -1.29956e-15 0)
(3 -1.24758e-15 0)
(3 -7.11465e-16 0)
(3 -5.15013e-16 0)
(3 -1.65956e-15 0)
(3 -2.27507e-15 0)
(3 -2.80119e-15 0)
(3 -2.89238e-15 0)
(3 -2.31727e-15 0)
(3 -1.74093e-15 0)
(3 -1.70048e-15 0)
(3 -1.78725e-15 0)
(3 -2.02104e-15 0)
(3 -1.85897e-15 0)
(3 -9.04341e-16 0)
(3 4.09684e-16 0)
(3 5.11802e-16 0)
(3 5.64505e-16 0)
(3 3.24719e-16 0)
(3 -2.48379e-17 0)
(3 -8.59252e-17 0)
(3 2.02775e-16 0)
(3 4.52375e-16 0)
(3 4.67915e-16 0)
(3 5.82243e-16 0)
(3 -3.58213e-17 0)
(3 -1.27796e-15 0)
(3 -1.64983e-15 0)
(3 -1.67193e-15 0)
(3 -1.41904e-15 0)
(3 -9.80554e-16 0)
(3 -1.43384e-15 0)
(3 5.49401e-13 0)
(2.16095 0.188637 0)
(0.858528 0.201409 0)
(0.758376 0.203016 0)
(0.743842 0.207826 0)
(0.729427 0.208115 0)
(0.715526 0.207786 0)
(0.700969 0.206768 0)
(0.685665 0.205337 0)
(0.669933 0.204217 0)
(0.654484 0.203862 0)
(0.639854 0.205033 0)
(0.626381 0.208601 0)
(0.613312 0.213303 0)
(0.599136 0.216367 0)
(0.583909 0.217289 0)
(0.568497 0.217927 0)
(0.553736 0.218718 0)
(0.539494 0.220121 0)
(0.525442 0.223885 0)
(0.511407 0.229477 0)
(0.496809 0.233742 0)
(0.482182 0.235588 0)
(0.467953 0.237949 0)
(0.454078 0.24236 0)
(0.439915 0.247568 0)
(0.42508 0.252209 0)
(0.409872 0.256559 0)
(0.394561 0.261281 0)
(0.379121 0.26635 0)
(0.363361 0.271509 0)
(0.347095 0.276715 0)
(0.330128 0.281956 0)
(0.312297 0.287124 0)
(0.293593 0.292119 0)
(0.274149 0.296813 0)
(0.254142 0.301078 0)
(0.233682 0.304867 0)
(0.212777 0.30816 0)
(0.191392 0.310987 0)
(0.169538 0.313401 0)
(0.147297 0.315717 0)
(0.124689 0.317714 0)
(0.101902 0.320447 0)
(0.0789629 0.322903 0)
(0.0564241 0.327271 0)
(0.0336627 0.330006 0)
(0.0117317 0.334835 0)
(3 -1.13107e-16 0)
(3 -1.25185e-16 0)
(3 -1.19736e-16 0)
(3 -8.88943e-17 0)
(3 -1.43905e-16 0)
(3 -6.81505e-16 0)
(3 -1.17382e-15 0)
(3 -1.03548e-15 0)
(3 -1.23363e-15 0)
(3 -1.47079e-15 0)
(3 -1.67368e-15 0)
(3 -1.32211e-15 0)
(3 -1.81248e-15 0)
(3 -2.16994e-15 0)
(3 -2.86609e-15 0)
(3 -2.42299e-15 0)
(3 -9.79753e-16 0)
(3 -9.9121e-16 0)
(3 -7.93721e-16 0)
(3 -1.9233e-16 0)
(3 -9.64989e-16 0)
(3 -1.41113e-15 0)
(3 -1.74414e-15 0)
(3 -2.2219e-15 0)
(3 -2.04768e-15 0)
(3 -2.0158e-15 0)
(3 -2.05426e-15 0)
(3 -1.99296e-15 0)
(3 -1.90242e-15 0)
(3 -1.89524e-15 0)
(3 -1.13859e-15 0)
(3 -6.89564e-16 0)
(3 -5.01047e-16 0)
(3 -6.0534e-16 0)
(3 -6.66766e-17 0)
(3 6.22045e-16 0)
(3 8.67057e-16 0)
(3 1.40822e-16 0)
(3 -7.52658e-16 0)
(3 -1.24082e-15 0)
(3 -1.42249e-15 0)
(3 -1.58608e-15 0)
(3 -1.89448e-15 0)
(3 -2.23666e-15 0)
(3 -2.34198e-15 0)
(3 -2.32976e-15 0)
(3 -2.33041e-15 0)
(3 -1.85995e-15 0)
(3 -2.14837e-15 0)
(2.67898 0.169787 0)
(0.959907 0.251193 0)
(0.781217 0.234621 0)
(0.771487 0.226223 0)
(0.755356 0.227484 0)
(0.741042 0.22887 0)
(0.725972 0.230869 0)
(0.710122 0.232197 0)
(0.693693 0.232615 0)
(0.677354 0.231963 0)
(0.661646 0.231322 0)
(0.646776 0.233423 0)
(0.632837 0.238772 0)
(0.618375 0.24461 0)
(0.602668 0.248134 0)
(0.586541 0.249176 0)
(0.570831 0.248905 0)
(0.555533 0.249514 0)
(0.540579 0.253376 0)
(0.526006 0.259849 0)
(0.51081 0.26517 0)
(0.495283 0.267198 0)
(0.480036 0.269064 0)
(0.465287 0.273429 0)
(0.450602 0.279338 0)
(0.435284 0.284781 0)
(0.419567 0.289597 0)
(0.403896 0.29477 0)
(0.388358 0.300564 0)
(0.372732 0.306686 0)
(0.356788 0.312996 0)
(0.340333 0.319521 0)
(0.323153 0.326187 0)
(0.305151 0.332862 0)
(0.286366 0.33935 0)
(0.266886 0.345422 0)
(0.246769 0.35094 0)
(0.225987 0.35583 0)
(0.204483 0.360116 0)
(0.182212 0.363797 0)
(0.15924 0.367216 0)
(0.13551 0.369998 0)
(0.111229 0.373324 0)
(0.0864251 0.375803 0)
(0.0618116 0.380153 0)
(0.036926 0.382814 0)
(0.0128515 0.387846 0)
(3 -8.07466e-17 0)
(3 -9.79409e-17 0)
(3 -1.49172e-16 0)
(3 -3.72551e-17 0)
(3 -2.20136e-16 0)
(3 -2.62507e-16 0)
(3 -7.56452e-16 0)
(3 -9.69354e-16 0)
(3 -9.41893e-16 0)
(3 -1.00065e-15 0)
(3 -8.94434e-16 0)
(3 -8.5553e-16 0)
(3 -1.23377e-15 0)
(3 -1.35617e-15 0)
(3 -1.41903e-15 0)
(3 -4.37157e-16 0)
(3 -1.13235e-16 0)
(3 -9.28327e-16 0)
(3 -2.42431e-15 0)
(3 -2.55302e-15 0)
(3 -2.14248e-15 0)
(3 -1.28603e-15 0)
(3 -2.7517e-16 0)
(3 -1.85534e-16 0)
(3 -3.16604e-16 0)
(3 -7.13978e-16 0)
(3 -1.55341e-15 0)
(3 -1.34814e-15 0)
(3 -1.01556e-15 0)
(3 -5.66093e-16 0)
(3 -9.57283e-16 0)
(3 -9.50765e-16 0)
(3 -7.39492e-16 0)
(3 -7.243e-16 0)
(3 -5.29779e-16 0)
(3 -3.15895e-16 0)
(3 -3.67689e-16 0)
(3 -8.91216e-16 0)
(3 -8.72664e-16 0)
(3 -1.31339e-15 0)
(3 -1.52213e-15 0)
(3 -1.4594e-15 0)
(3 -2.18425e-15 0)
(3 -2.75896e-15 0)
(3 -2.9236e-15 0)
(3 -2.50868e-15 0)
(3 -1.9735e-15 0)
(3 -1.46498e-15 0)
(3 -1.83896e-15 0)
(3.02049 0.0104926 0)
(1.14605 0.278949 0)
(0.807393 0.233414 0)
(0.794244 0.247328 0)
(0.779578 0.253348 0)
(0.76487 0.256633 0)
(0.750323 0.259704 0)
(0.735658 0.261949 0)
(0.720547 0.262983 0)
(0.704979 0.262366 0)
(0.689377 0.260564 0)
(0.673962 0.260826 0)
(0.659553 0.265364 0)
(0.645773 0.272263 0)
(0.630992 0.2778 0)
(0.615252 0.27984 0)
(0.599449 0.279154 0)
(0.58368 0.278952 0)
(0.568103 0.282473 0)
(0.553202 0.289594 0)
(0.537786 0.29647 0)
(0.521544 0.299664 0)
(0.505273 0.301336 0)
(0.48938 0.305414 0)
(0.473874 0.311959 0)
(0.457848 0.3186 0)
(0.441197 0.324241 0)
(0.42448 0.329904 0)
(0.40801 0.336343 0)
(0.391681 0.343399 0)
(0.37525 0.35081 0)
(0.358517 0.358583 0)
(0.341219 0.36673 0)
(0.323108 0.375162 0)
(0.304063 0.383708 0)
(0.284071 0.39209 0)
(0.263205 0.40011 0)
(0.241475 0.407621 0)
(0.218866 0.414508 0)
(0.195341 0.420584 0)
(0.171085 0.426079 0)
(0.146023 0.430449 0)
(0.120316 0.434909 0)
(0.0936752 0.437798 0)
(0.0668867 0.442085 0)
(0.0398499 0.444424 0)
(0.0137091 0.449425 0)
(3 -1.14756e-16 0)
(3 -3.18462e-16 0)
(3 -5.98587e-16 0)
(3 -8.9783e-16 0)
(3 -8.52659e-16 0)
(3 -4.41479e-16 0)
(3 3.95487e-16 0)
(3 7.15042e-16 0)
(3 5.01961e-16 0)
(3 -8.16694e-16 0)
(3 -1.46471e-15 0)
(3 -6.51011e-16 0)
(3 2.179e-16 0)
(3 4.5799e-16 0)
(3 2.82171e-16 0)
(3 3.30728e-18 0)
(3 -6.92312e-16 0)
(3 -1.45007e-15 0)
(3 -1.67635e-15 0)
(3 -1.45969e-15 0)
(3 -1.39591e-15 0)
(3 -1.46443e-15 0)
(3 -1.28826e-15 0)
(3 -4.5328e-16 0)
(3 -4.16763e-16 0)
(3 -4.56906e-16 0)
(3 -5.26134e-16 0)
(3 -2.68378e-16 0)
(3 -1.22736e-16 0)
(3 -2.632e-16 0)
(3 -7.06554e-16 0)
(3 -4.98995e-16 0)
(3 -2.34635e-16 0)
(3 -7.02326e-16 0)
(3 -1.39927e-15 0)
(3 -1.95087e-15 0)
(3 -2.03267e-15 0)
(3 -1.86766e-15 0)
(3 -9.94584e-16 0)
(3 -7.45769e-16 0)
(3 -8.68407e-16 0)
(3 -5.92533e-16 0)
(3 -4.06478e-16 0)
(3 -4.30271e-16 0)
(3 -6.19868e-16 0)
(3 -6.8753e-16 0)
(3 -7.79039e-16 0)
(3 -9.14363e-16 0)
(3 -2.35077e-15 0)
(3.00031 1.00879e-05 0)
(1.55321 0.310662 0)
(0.825425 0.278013 0)
(0.780485 0.279243 0)
(0.767011 0.28601 0)
(0.753273 0.287834 0)
(0.740842 0.289826 0)
(0.728704 0.292381 0)
(0.716315 0.294899 0)
(0.703132 0.296189 0)
(0.689264 0.295525 0)
(0.675033 0.295089 0)
(0.661205 0.298214 0)
(0.648685 0.305106 0)
(0.636106 0.312374 0)
(0.622423 0.316229 0)
(0.608304 0.31636 0)
(0.593906 0.31601 0)
(0.57939 0.318927 0)
(0.565664 0.325997 0)
(0.551868 0.334041 0)
(0.536883 0.338774 0)
(0.521422 0.340666 0)
(0.505996 0.344086 0)
(0.49109 0.350553 0)
(0.475969 0.358078 0)
(0.459943 0.364614 0)
(0.443435 0.370634 0)
(0.427013 0.377371 0)
(0.410825 0.38505 0)
(0.394668 0.393396 0)
(0.378297 0.402258 0)
(0.361479 0.41173 0)
(0.343866 0.421777 0)
(0.325249 0.432313 0)
(0.305628 0.443 0)
(0.285266 0.453581 0)
(0.264214 0.463831 0)
(0.242025 0.473385 0)
(0.219076 0.481972 0)
(0.194954 0.489889 0)
(0.169033 0.4967 0)
(0.141517 0.503957 0)
(0.111421 0.509936 0)
(0.0798365 0.516201 0)
(0.047388 0.51923 0)
(0.016023 0.52405 0)
(3 3.21159e-17 0)
(3 -7.2537e-17 0)
(3 -3.67647e-16 0)
(3 -4.39919e-16 0)
(3 -2.19976e-16 0)
(3 6.59656e-17 0)
(3 4.63326e-16 0)
(3 6.45264e-16 0)
(3 -1.35769e-16 0)
(3 -6.14065e-16 0)
(3 -9.81556e-16 0)
(3 2.5691e-16 0)
(3 7.32025e-16 0)
(3 6.96432e-16 0)
(3 2.29318e-16 0)
(3 -3.81041e-16 0)
(3 -5.82817e-16 0)
(3 -2.08328e-16 0)
(3 -3.00805e-17 0)
(3 5.98896e-17 0)
(3 2.5513e-16 0)
(3 3.30334e-16 0)
(3 2.77481e-16 0)
(3 2.02085e-16 0)
(3 1.89798e-16 0)
(3 2.01316e-16 0)
(3 3.16556e-16 0)
(3 4.08205e-16 0)
(3 5.45586e-16 0)
(3 8.34474e-16 0)
(3 7.84966e-16 0)
(3 9.19125e-17 0)
(3 -9.32707e-17 0)
(3 -4.14063e-16 0)
(3 -1.35847e-15 0)
(3 -1.29453e-15 0)
(3 -5.55045e-16 0)
(3 -2.32242e-16 0)
(3 -3.92278e-17 0)
(3 9.38976e-17 0)
(3 1.34147e-16 0)
(3 3.7805e-16 0)
(3 1.24783e-15 0)
(3 1.85198e-15 0)
(3 1.65159e-15 0)
(3 1.27727e-15 0)
(3 7.72819e-16 0)
(3 7.82941e-16 0)
(3 -1.78814e-15 0)
(3 1.81166e-08 0)
(2.37875 0.28317 0)
(0.920544 0.337941 0)
(0.792932 0.319798 0)
(0.779862 0.312306 0)
(0.764781 0.31386 0)
(0.752136 0.316078 0)
(0.740492 0.319151 0)
(0.72916 0.322752 0)
(0.717204 0.325904 0)
(0.704151 0.327159 0)
(0.690391 0.326981 0)
(0.676535 0.328739 0)
(0.663946 0.334426 0)
(0.652458 0.341956 0)
(0.640253 0.347328 0)
(0.627262 0.348952 0)
(0.613752 0.349204 0)
(0.59985 0.351802 0)
(0.586517 0.358544 0)
(0.573731 0.367529 0)
(0.559948 0.374511 0)
(0.545292 0.377943 0)
(0.530402 0.381396 0)
(0.515926 0.387759 0)
(0.50169 0.396229 0)
(0.486643 0.404449 0)
(0.47068 0.41172 0)
(0.454482 0.419332 0)
(0.438504 0.428018 0)
(0.422693 0.437685 0)
(0.406626 0.448052 0)
(0.390186 0.459168 0)
(0.372919 0.471031 0)
(0.354467 0.483738 0)
(0.334803 0.497032 0)
(0.314174 0.510722 0)
(0.292501 0.524745 0)
(0.269237 0.538717 0)
(0.244705 0.552483 0)
(0.218051 0.566175 0)
(0.188717 0.579133 0)
(0.157522 0.592274 0)
(0.124738 0.604062 0)
(0.0907597 0.613537 0)
(0.055324 0.618425 0)
(0.0178095 0.621511 0)
(3 7.29688e-17 0)
(3 3.82224e-17 0)
(3 6.33901e-17 0)
(3 1.24445e-16 0)
(3 2.16571e-16 0)
(3 3.03324e-16 0)
(3 -9.21097e-17 0)
(3 -5.10013e-16 0)
(3 2.61238e-16 0)
(3 7.63888e-16 0)
(3 1.15069e-15 0)
(3 6.53526e-16 0)
(3 3.96582e-16 0)
(3 5.3498e-16 0)
(3 5.49695e-16 0)
(3 3.96915e-16 0)
(3 9.75146e-18 0)
(3 3.39839e-16 0)
(3 9.40358e-16 0)
(3 1.25041e-15 0)
(3 1.19604e-15 0)
(3 1.54859e-15 0)
(3 1.45734e-15 0)
(3 1.06738e-15 0)
(3 1.17094e-15 0)
(3 1.60499e-15 0)
(3 1.43498e-15 0)
(3 1.21298e-15 0)
(3 1.33456e-15 0)
(3 2.1444e-15 0)
(3 2.21641e-15 0)
(3 1.14346e-15 0)
(3 1.70698e-16 0)
(3 -6.57263e-17 0)
(3 -1.02753e-16 0)
(3 7.5471e-17 0)
(3 -1.2754e-16 0)
(3 5.37191e-16 0)
(3 1.1286e-15 0)
(3 1.2633e-15 0)
(3 1.21508e-15 0)
(3 8.83383e-16 0)
(3 2.16604e-15 0)
(3 2.69855e-15 0)
(3 2.52118e-15 0)
(3 3.2634e-15 0)
(3 3.71718e-15 0)
(3 3.04975e-15 0)
(3 2.49407e-15 0)
(3 -7.34083e-09 0)
(3.02767 0.0176769 0)
(1.25618 0.375466 0)
(0.844461 0.328439 0)
(0.820293 0.337013 0)
(0.8035 0.33777 0)
(0.788509 0.338082 0)
(0.775109 0.3404 0)
(0.762582 0.34468 0)
(0.750144 0.350079 0)
(0.736739 0.35469 0)
(0.7223 0.356902 0)
(0.707636 0.358304 0)
(0.693854 0.362296 0)
(0.681727 0.368981 0)
(0.66987 0.375497 0)
(0.657189 0.379516 0)
(0.643786 0.381566 0)
(0.62991 0.384514 0)
(0.616297 0.39082 0)
(0.603573 0.40012 0)
(0.590618 0.409135 0)
(0.576678 0.415095 0)
(0.562286 0.419515 0)
(0.548071 0.425766 0)
(0.534384 0.434723 0)
(0.52046 0.444717 0)
(0.505561 0.454056 0)
(0.49008 0.463172 0)
(0.474725 0.473215 0)
(0.459399 0.484368 0)
(0.44428 0.496515 0)
(0.428766 0.509628 0)
(0.412273 0.523775 0)
(0.394485 0.539049 0)
(0.375677 0.555584 0)
(0.355904 0.573303 0)
(0.335474 0.592178 0)
(0.314395 0.612048 0)
(0.292151 0.632425 0)
(0.268056 0.652709 0)
(0.241492 0.671539 0)
(0.21213 0.687857 0)
(0.180341 0.703613 0)
(0.142899 0.722234 0)
(0.0964984 0.744414 0)
(0.0368623 0.763817 0)
(3 1.51104e-17 0)
(3 2.90584e-16 0)
(3 7.18174e-16 0)
(3 9.43628e-16 0)
(3 7.12294e-16 0)
(3 5.4102e-16 0)
(3 1.38273e-16 0)
(3 -2.2977e-16 0)