/*--------------------------------*- C++ -*----------------------------------*\
  =========                 |
  \\      /  F ield         | OpenFOAM: The Open Source CFD Toolbox
   \\    /   O peration     | Website:  https://openfoam.org
    \\  /    A nd           | Version:  7
     \\/     M anipulation  |
\*---------------------------------------------------------------------------*/
FoamFile
{
    version     2.0;
    format      ascii;
    class       volScalarField;
    location    "4.8";
    object      p;
}
// * * * * * * * * * * * * * * * * * * * * * * * * * * * * * * * * * * * * * //

dimensions      [1 -1 -2 0 0 0 0];

internalField   nonuniform List<scalar> 
19968
(
1
1
1
1
1
1
1
1
1
1
1
1
1
1
1
1
1
1
1
1
1
1
1
1
1
1
1
1
1
1
1
1
1
1
1
1
1
1
1
1
1
1
1
1
1
1
1
1
1.52815
7.99386
10.4201
10.4501
10.5085
10.5681
10.6324
10.6957
10.7544
10.8074
10.8561
10.9028
10.9509
11.0029
11.0574
11.1112
11.1629
11.2132
11.262
11.3078
11.35
11.3902
11.4298
11.4697
11.5097
11.5485
11.5841
11.6167
11.6477
11.6796
11.7137
11.7499
11.7869
11.8226
11.8551
11.883
11.9062
11.9248
11.9398
11.9528
11.9652
11.9782
11.9925
12.0078
12.023
12.0363
12.0462
12.0546
1
1
1
1
1
1
1
1
1
1
1
1
1
1
1
1
1
1
1
1
1
1
1
1
1
1
1
1
1
1
1
1
1
1
1
1
1
1
1
1
1
1
1
1
1
1
1
1
1.49433
7.91595
10.4079
10.4498
10.509
10.5689
10.6326
10.6952
10.7532
10.8057
10.8541
10.9005
10.9484
10.9997
11.0537
11.1074
11.1594
11.2101
11.2592
11.305
11.3474
11.3877
11.4275
11.4675
11.5076
11.5464
11.582
11.6144
11.6449
11.6759
11.7089
11.7443
11.781
11.8168
11.8495
11.8775
11.9004
11.9186
11.9335
11.9465
11.9593
11.9728
11.9872
12.0023
12.0167
12.0292
12.0383
12.0457
1
1
1
1
1
1
1
1
1
1
1
1
1
1
1
1
1
1
1
1
1
1
1
1
1
1
1
1
1
1
1
1
1
1
1
1
1
1
1
1
1
1
1
1
1
1
1
1
1.42106
7.75248
10.4042
10.4421
10.5038
10.5632
10.6264
10.689
10.7472
10.8
10.8486
10.8946
10.9423
10.9927
11.0461
11.0994
11.1518
11.2029
11.2524
11.2985
11.3413
11.3819
11.422
11.4621
11.5022
11.5411
11.577
11.6095
11.6396
11.6697
11.7014
11.7355
11.7713
11.807
11.8399
11.8681
11.8908
11.9087
11.9236
11.9371
11.9505
11.9645
11.9789
11.9934
12.0067
12.018
12.0261
12.0325
1
1
1
1
1
1
1
1
1
1
1
1
1
1
1
1
1
1
1
1
1
1
1
1
1
1
1
1
1
1
1
1
1
1
1
1
1
1
1
1
1
1
1
1
1
1
1
1
1.32043
7.49752
10.3958
10.4359
10.4964
10.555
10.6177
10.6804
10.7388
10.7919
10.8404
10.8859
10.9332
10.9828
11.0356
11.0884
11.141
11.1924
11.2421
11.2884
11.3315
11.3725
11.4129
11.4531
11.4933
11.5323
11.5684
11.6009
11.6306
11.6594
11.6895
11.7221
11.757
11.7922
11.8251
11.8531
11.8754
11.8929
11.9075
11.9213
11.9354
11.9499
11.9644
11.9781
11.99
11.9996
12.0065
12.0116
1
1
1
1
1
1
1
1
1
1
1
1
1
1
1
1
1
1
1
1
1
1
1
1
1
1
1
1
1
1
1
1
1
1
1
1
1
1
1
1
1
1
1
1
1
1
1
1
1.19222
7.16161
10.3861
10.4258
10.4857
10.5453
10.6078
10.6708
10.7293
10.7821
10.8301
10.8747
10.9216
10.9707
11.0229
11.0754
11.1282
11.1797
11.2296
11.2759
11.3194
11.3608
11.4014
11.4416
11.4816
11.5205
11.5567
11.5892
11.6186
11.6466
11.6754
11.7066
11.7402
11.7747
11.8072
11.835
11.8571
11.8745
11.8892
11.9031
11.9174
11.9317
11.9451
11.9566
11.9657
11.9722
11.9767
11.9797
1
1
1
1
1
1
1
1
1
1
1
1
1
1
1
1
1
1
1
1
1
1
1
1
1
1
1
1
1
1
1
1
1
1
1
1
1
1
1
1
1
1
1
1
1
1
1
1
1.00766
6.61909
10.3708
10.4256
10.4756
10.5363
10.5977
10.6608
10.7197
10.7728
10.8208
10.8649
10.911
10.9594
11.0107
11.0623
11.1146
11.1654
11.2142
11.2593
11.3019
11.3427
11.383
11.4224
11.4612
11.499
11.5343
11.5663
11.5953
11.6227
11.6504
11.6801
11.7123
11.7457
11.7775
11.805
11.8273
11.8451
11.8605
11.8754
11.8907
11.906
11.9195
11.9299
11.9368
11.9408
11.9429
11.944
1
1
1
1
1
1
1
1
1
1
1
1
1
1
1
1
1
1
1
1
1
1
1
1
1
1
1
1
1
1
1
1
1
1
1
1
1
1
1
1
1
1
1
1
1
1
1
1
1.00004
5.87558
10.2826
10.3897
10.4388
10.5031
10.5646
10.6278
10.6866
10.7395
10.7875
10.8316
10.8777
10.9263
10.9772
11.0282
11.0794
11.1291
11.1767
11.2209
11.2639
11.3055
11.3465
11.386
11.4244
11.4614
11.4962
11.5283
11.5578
11.5857
11.6135
11.6427
11.6739
11.7061
11.7371
11.7643
11.7868
11.8051
11.8211
11.8368
11.853
11.8689
11.8824
11.8916
11.8963
11.8979
11.8978
11.8974
1
1
1
1
1
1
1
1
1
1
1
1
1
1
1
1
1
1
1
1
1
1
1
1
1
1
1
1
1
1
1
1
1
1
1
1
1
1
1
1
1
1
1
1
1
1
1
1
1
4.94547
10.128
10.3584
10.4092
10.4754
10.5371
10.6005
10.6593
10.7124
10.761
10.8058
10.8513
10.8991
10.9486
10.9983
11.0478
11.0957
11.1415
11.1842
11.2267
11.2684
11.3096
11.3486
11.3856
11.4208
11.4543
11.4857
11.5152
11.5433
11.5709
11.5994
11.6294
11.6604
11.6904
11.7171
11.7392
11.7575
11.7735
11.7893
11.8056
11.8215
11.8348
11.843
11.846
11.8459
11.8438
11.8427
1
1
1
1
1
1
1
1
1
1
1
1
1
1
1
1
1
1
1
1
1
1
1
1
1
1
1
1
1
1
1
1
1
1
1
1
1
1
1
1
1
1
1
1
1
1
1
1
1
3.89927
9.81176
10.32
10.3738
10.4412
10.5029
10.5658
10.6245
10.6784
10.7277
10.7743
10.8199
10.8665
10.9139
10.9618
11.0087
11.0538
11.097
11.1373
11.1783
11.2192
11.2596
11.2973
11.3323
11.3655
11.3973
11.4277
11.4567
11.4846
11.5121
11.5399
11.5688
11.5984
11.6271
11.6528
11.6742
11.692
11.7079
11.7238
11.7403
11.7564
11.7699
11.7782
11.7808
11.7804
11.7775
11.7765
1
1
1
1
1
1
1
1
1
1
1
1
1
1
1
1
1
1
1
1
1
1
1
1
1
1
1
1
1
1
1
1
1
1
1
1
1
1
1
1
1
1
1
1
1
1
1
1
1
2.8061
9.24971
10.2956
10.3555
10.4206
10.4792
10.5388
10.5958
10.6489
10.6972
10.7434
10.7882
10.8328
10.8777
10.9232
10.9674
11.0093
11.0499
11.088
11.127
11.1666
11.2053
11.2412
11.2735
11.3036
11.3324
11.3601
11.3867
11.4127
11.4387
11.4653
11.493
11.5214
11.5489
11.5734
11.594
11.6111
11.6265
11.6416
11.6572
11.6721
11.6846
11.6924
11.6949
11.6947
11.6914
11.6911
1
1
1
1
1
1
1
1
1
1
1
1
1
1
1
1
1
1
1
1
1
1
1
1
1
1
1
1
1
1
1
1
1
1
1
1
1
1
1
1
1
1
1
1
1
1
1
1
1
1.77417
8.2853
10.3318
10.3241
10.3883
10.4379
10.4944
10.5517
10.6068
10.6564
10.7029
10.747
10.7898
10.8329
10.8773
10.9199
10.9592
10.9975
11.0337
11.0708
11.109
11.146
11.1807
11.211
11.2387
11.2645
11.2889
11.3121
11.3348
11.3576
11.3809
11.4051
11.4295
11.4526
11.4728
11.4895
11.5036
11.5165
11.5296
11.5437
11.5578
11.5704
11.5793
11.5838
11.5858
11.5839
11.5852
1
1
1
1
1
1
1
1
1
1
1
1
1
1
1
1
1
1
1
1
1
1
1
1
1
1
1
1
1
1
1
1
1
1
1
1
1
1
1
1
1
1
1
1
1
1
1
1
1
1.02873
6.59801
10.3245
10.3403
10.3796
10.424
10.4729
10.5249
10.5762
10.6227
10.6653
10.706
10.7444
10.7823
10.8222
10.861
10.8963
10.9307
10.9635
10.9963
11.0313
11.0654
11.0982
11.1267
11.152
11.1749
11.196
11.2158
11.235
11.2546
11.2751
11.2963
11.3175
11.3372
11.3541
11.3681
11.38
11.3906
11.4009
11.4107
11.4196
11.4265
11.4305
11.4315
11.4317
11.4297
11.4311
1
1
1
1
1
1
1
1
1
1
1
1
1
1
1
1
1
1
1
1
1
1
1
1
1
1
1
1
1
1
1
1
1
1
1
1
1
1
1
1
1
1
1
1
1
1
1
1
1
1.00005
4.49108
9.8855
10.2027
10.2652
10.3271
10.3813
10.4345
10.4858
10.532
10.5729
10.611
10.647
10.6821
10.7192
10.757
10.7918
10.8252
10.8572
10.8879
10.9206
10.9537
10.9854
11.0138
11.0382
11.0593
11.0775
11.0937
11.1089
11.1243
11.1405
11.1573
11.1732
11.1867
11.1967
11.2034
11.2076
11.2105
11.2124
11.2136
11.2152
11.2179
11.2222
11.2256
11.2297
11.2311
11.2347
1
1
1
1
1
1
1
1
1
1
1
1
1
1
1
1
1
1
1
1
1
1
1
1
1
1
1
1
1
1
1
1
1
1
1
1
1
1
1
1
1
1
1
1
1
1
1
1
1
1
2.315
8.72289
10.1548
10.2016
10.2753
10.3276
10.3784
10.4274
10.473
10.5131
10.5487
10.5814
10.6124
10.6444
10.6784
10.7108
10.741
10.7695
10.7958
10.822
10.8496
10.8763
10.9015
10.9226
10.9399
10.9531
10.9629
10.9708
10.9783
10.9869
10.9966
11.0053
11.0106
11.0123
11.011
11.0075
11.0032
10.9988
10.9941
10.9878
10.9789
10.9679
10.9517
10.9325
10.9112
10.893
1
1
1
1
1
1
1
1
1
1
1
1
1
1
1
1
1
1
1
1
1
1
1
1
1
1
1
1
1
1
1
1
1
1
1
1
1
1
1
1
1
1
1
1
1
1
1
1
1
1
1.05358
6.26359
10.1982
10.216
10.2437
10.2802
10.3199
10.3588
10.3959
10.4299
10.4604
10.4888
10.5154
10.5416
10.5698
10.5986
10.6259
10.6515
10.6742
10.6935
10.7125
10.7321
10.7515
10.7689
10.7826
10.7919
10.7966
10.7964
10.7946
10.7938
10.794
10.7933
10.7885
10.7776
10.7603
10.738
10.7126
10.6842
10.6505
10.6096
10.5625
10.5134
10.4732
10.4405
10.4263
10.4219
1
1
1
1
1
1
1
1
1
1
1
1
1
1
1
1
1
1
1
1
1
1
1
1
1
1
1
1
1
1
1
1
1
1
1
1
1
1
1
1
1
1
1
1
1
1
1
1
1
1
1.00007
3.14716
9.17277
10.0765
10.1081
10.1571
10.1986
10.2391
10.278
10.3145
10.3471
10.375
10.3992
10.4217
10.4449
10.47
10.4964
10.5217
10.5435
10.5596
10.5702
10.5784
10.5863
10.5948
10.6026
10.6083
10.6085
10.6003
10.5876
10.5734
10.5595
10.5445
10.5246
10.4959
10.4568
10.4091
10.3561
10.3002
10.2404
10.1756
10.1052
10.0314
9.94559
9.86638
9.75746
9.85298
1
1
1
1
1
1
1
1
1
1
1
1
1
1
1
1
1
1
1
1
1
1
1
1
1
1
1
1
1
1
1
1
1
1
1
1
1
1
1
1
1
1
1
1
1
1
1
1
1
1
1
1.14109
7.11598
10.1458
10.1067
10.1275
10.1514
10.1791
10.2063
10.2323
10.2577
10.2808
10.3005
10.3176
10.3331
10.3504
10.3717
10.3951
10.4164
10.4316
10.4365
10.4345
10.4304
10.4284
10.4287
10.4286
10.4229
10.4089
10.3867
10.3594
10.3301
10.2989
10.2622
10.2152
10.154
10.0783
9.98947
9.8901
9.77451
9.6355
9.44938
9.19718
8.8192
8.26003
7.34235
5.45244
1
1
1
1
1
1
1
1
1
1
1
1
1
1
1
1
1
1
1
1
1
1
1
1
1
1
1
1
1
1
1
1
1
1
1
1
1
1
1
1
1
1
1
1
1
1
1
1
1
1
1
1.00058
4.43886
9.64729
9.94458
9.99917
10.034
10.0702
10.1028
10.1318
10.1591
10.1841
10.2041
10.2193
10.2305
10.2406
10.2534
10.271
10.2908
10.3067
10.3118
10.307
10.2953
10.2832
10.274
10.2663
10.2554
10.2368
10.2086
10.172
10.1292
10.0817
10.0275
9.96272
9.8814
9.78116
9.65837
9.5169
9.34576
9.1419
8.86819
8.51007
7.98974
7.32381
6.09679
4.50412
1
1
1
1
1
1
1
1
1
1
1
1
1
1
1
1
1
1
1
1
1
1
1
1
1
1
1
1
1
1
1
1
1
1
1
1
1
1
1
1
1
1
1
1
1
1
1
1
1
1
1
0.999998
1.85339
8.15456
9.89523
9.9206
9.95709
9.99193
10.0233
10.049
10.073
10.0966
10.117
10.1319
10.1414
10.1466
10.1514
10.1607
10.1741
10.1857
10.1877
10.1791
10.1601
10.1386
10.1198
10.1035
10.085
10.0599
10.0251
9.98001
9.92497
9.86121
9.78748
9.70262
9.5998
9.47684
9.32521
9.14834
8.93528
8.68109
8.36016
7.94108
7.4048
6.64765
5.63102
4.50469
1
1
1
1
1
1
1
1
1
1
1
1
1
1
1
1
1
1
1
1
1
1
1
1
1
1
1
1
1
1
1
1
1
1
1
1
1
1
1
1
1
1
1
1
1
1
1
1
1
1
1
1
1.02623
5.29014
9.7122
9.8344
9.86832
9.90476
9.93896
9.96583
9.98822
10.0072
10.0213
10.0292
10.0368
10.0416
10.0453
10.0501
10.0568
10.0606
10.0573
10.0439
10.0198
9.99111
9.96367
9.93809
9.91019
9.87665
9.83403
9.78125
9.71613
9.63937
9.54893
9.44588
9.32393
9.18137
9.00883
8.80659
8.56868
8.28628
7.94643
7.51752
6.9927
6.32593
5.56605
4.69977
1
1
1
1
1
1
1
1
1
1
1
1
1
1
1
1
1
1
1
1
1
1
1
1
1
1
1
1
1
1
1
1
1
1
1
1
1
1
1
1
1
1
1
1
1
1
1
1
1
1
1
1
0.999996
2.14138
8.38761
9.77524
9.79678
9.83631
9.86466
9.89177
9.91274
9.92743
9.93162
9.92908
9.93294
9.93791
9.94252
9.94568
9.94665
9.94273
9.93125
9.9098
9.8797
9.84499
9.81022
9.77668
9.74035
9.69841
9.64654
9.58407
9.50845
9.421
9.31902
9.2031
9.06805
8.91065
8.72405
8.50692
8.25754
7.96772
7.62925
7.22114
6.74129
6.19435
5.60266
4.9197
1
1
1
1
1
1
1
1
1
1
1
1
1
1
1
1
1
1
1
1
1
1
1
1
1
1
1
1
1
1
1
1
1
1
1
1
1
1
1
1
1
1
1
1
1
1
1
1
1
1
1
1
0.999998
1.04255
5.37394
9.59435
9.72981
9.75517
9.77599
9.80456
9.83166
9.85303
9.85681
9.84786
9.84204
9.83969
9.83789
9.83523
9.83023
9.8205
9.80349
9.77758
9.74391
9.70452
9.66223
9.62001
9.57549
9.52623
9.4661
9.39345
9.30652
9.20805
9.09707
8.97291
8.83073
8.66594
8.47358
8.2522
8.00242
7.71801
7.39516
7.02337
6.59911
6.1463
5.66143
5.10992
1
1
1
1
1
1
1
1
1
1
1
1
1
1
1
1
1
1
1
1
1
1
1
1
1
1
1
1
1
1
1
1
1
1
1
1
1
1
1
1
1
1
1
1
1
1
1
1
1
1
1
1
1
1.00003
1.9742
8.1446
9.69059
9.67979
9.70649
9.72662
9.74326
9.7565
9.75947
9.75573
9.75122
9.74577
9.73682
9.72622
9.71236
9.69478
9.67148
9.64232
9.60714
9.56657
9.51975
9.46978
9.41719
9.3609
9.29476
9.21411
9.11716
9.00902
8.89139
8.76304
8.61816
8.45212
8.2608
8.04227
7.80113
7.5263
7.22572
6.89362
6.52381
6.13126
5.71853
5.26366
1
1
1
1
1
1
1
1
1
1
1
1
1
1
1
1
1
1
1
1
1
1
1
1
1
1
1
1
1
1
1
1
1
1
1
1
1
1
1
1
1
1
1
1
1
1
1
1
1
1
1
1
1
1
1.02951
4.81546
9.33749
9.59662
9.60237
9.62471
9.64482
9.66447
9.67025
9.66882
9.6639
9.65492
9.64052
9.62243
9.599
9.57322
9.54399
9.51273
9.47689
9.43625
9.38624
9.32884
9.26693
9.20224
9.13083
9.04519
8.94189
8.82746
8.70511
8.57316
8.4261
8.26075
8.07454
7.86402
7.63819
7.37745
7.10288
6.80974
6.48031
6.13869
5.78167
5.40268
1
1
1
1
1
1
1
1
1
1
1
1
1
1
1
1
1
1
1
1
1
1
1
1
1
1
1
1
1
1
1
1
1
1
1
1
1
1
1
1
1
1
1
1
1
1
1
1
1
1
1
1
1
1
1.00002
1.46272
7.47319
9.6478
9.58512
9.5759
9.56627
9.5697
9.57005
9.56736
9.56125
9.55039
9.53394
9.51183
9.48371
9.45278
9.41815
9.38263
9.34432
9.3034
9.25255
9.19217
9.12384
9.05174
8.97524
8.88627
8.78072
8.66508
8.54205
8.40915
8.26213
8.09774
7.91708
7.71389
7.50251
7.26031
7.01253
6.75018
6.45633
6.16222
5.84158
5.51411
1
1
1
1
1
1
1
1
1
1
1
1
1
1
1
1
1
1
1
1
1
1
1
1
1
1
1
1
1
1
1
1
1
1
1
1
1
1
1
1
1
1
1
1
1
1
1
1
1
1
1
1
1
1
1
1.00643
3.79484
8.92448
9.40098
9.42331
9.44456
9.45836
9.456
9.45025
9.4424
9.43038
9.41286
9.38911
9.36083
9.33071
9.29452
9.25488
9.2142
9.17281
9.12122
9.06034
8.98793
8.91
8.82787
8.7351
8.63029
8.51728
8.39621
8.26396
8.11922
7.95637
7.78184
7.5848
7.38737
7.16503
6.94065
6.70362
6.44778
6.18564
5.89238
5.60628
1
1
1
1
1
1
1
1
1
1
1
1
1
1
1
1
1
1
1
1
1
1
1
1
1
1
1
1
1
1
1
1
1
1
1
1
1
1
1
1
1
1
1
1
1
1
1
1
1
1
1
1
1
1
1
1
1.20936
6.09168
9.38284
9.38202
9.37568
9.36826
9.36486
9.35732
9.34837
9.33527
9.31679
9.29187
9.26251
9.2325
9.19247
9.14574
9.09897
9.05193
8.9962
8.93448
8.86102
8.78083
8.69321
8.59704
8.49479
8.3856
8.26702
8.13596
7.99527
7.83654
7.66866
7.4788
7.2945
7.08818
6.88361
6.66954
6.44292
6.19865
5.93654
5.6828
1
1
1
1
1
1
1
1
1
1
1
1
1
1
1
1
1
1
1
1
1
1
1
1
1
1
1
1
1
1
1
1
1
1
1
1
1
1
1
1
1
1
1
1
1
1
1
1
1
1
1
1
1
1
1
1
1.00136
2.04906
7.9136
9.34188
9.25687
9.26421
9.26455
9.26029
9.25253
9.23932
9.21842
9.19206
9.16086
9.12848
9.08622
9.03423
8.9817
8.92936
8.87073
8.80915
8.73718
8.65656
8.56651
8.46919
8.3698
8.26352
8.14727
8.0183
7.88032
7.72915
7.56997
7.39254
7.21921
7.02786
6.84274
6.64445
6.43546
6.20837
5.97937
5.74621
1
1
1
1
1
1
1
1
1
1
1
1
1
1
1
1
1
1
1
1
1
1
1
1
1
1
1
1
1
1
1
1
1
1
1
1
1
1
1
1
1
1
1
1
1
1
1
1
1
1
1
1
1
1
1
1
1
1.03137
4.04499
8.86677
9.15131
9.16361
9.17522
9.17196
9.16328
9.14854
9.12567
9.09813
9.06597
9.03045
8.9879
8.93173
8.87299
8.81495
8.7541
8.69257
8.6211
8.53993
8.45239
8.35772
8.25973
8.15553
8.04235
7.91423
7.77767
7.63315
7.48393
7.32249
7.15904
6.98431
6.81274
6.62398
6.42903
6.21938
6.01473
5.79712
1
1
1
1
1
1
1
1
1
1
1
1
1
1
1
1
1
1
1
1
1
1
1
1
1
1
1
1
1
1
1
1
1
1
1
1
1
1
1
1
1
1
1
1
1
1
1
1
1
1
1
1
1
1
1
1
1
1.00005
1.2368
5.631
9.01387
9.14896
9.12693
9.11957
9.10167
9.07459
9.04448
9.01121
8.97572
8.93901
8.89723
8.84132
8.77835
8.71516
8.65101
8.58708
8.51367
8.42976
8.34608
8.25406
8.15938
8.05788
7.94911
7.8241
7.68885
7.54907
7.40727
7.25971
7.10719
6.94906
6.78387
6.60574
6.42449
6.23137
6.04421
5.84179
1
1
1
1
1
1
1
1
1
1
1
1
1
1
1
1
1
1
1
1
1
1
1
1
1
1
1
1
1
1
1
1
1
1
1
1
1
1
1
1
1
1
1
1
1
1
1
1
1
1
1
1
1
1
1
1
1
1
1.00178
1.59249
7.1537
9.14846
9.09119
9.06392
9.02085
8.98208
8.94502
8.91144
8.87466
8.83905
8.80139
8.74944
8.68682
8.62004
8.55654
8.49108
8.41703
8.3334
8.24653
8.16045
8.06713
7.96833
7.86339
7.7462
7.61544
7.48111
7.34575
7.20807
7.06517
6.91781
6.75725
6.59048
6.42047
6.24296
6.06892
5.88191
1
1
1
1
1
1
1
1
1
1
1
1
1
1
1
1
1
1
1
1
1
1
1
1
1
1
1
1
1
1
1
1
1
1
1
1
1
1
1
1
1
1
1
1
1
1
1
1
1
1
1
1
1
1
1
1
1
1
1
1.01015
2.88428
8.24378
8.96938
8.90322
8.87015
8.84187
8.81861
8.79509
8.76772
8.73719
8.70317
8.65658
8.60097
8.53692
8.47052
8.40604
8.33203
8.24862
8.16223
8.07534
7.98518
7.88775
7.78556
7.67556
7.55262
7.42521
7.29717
7.1659
7.02979
6.88867
6.73331
6.57753
6.41633
6.25277
6.09013
5.91789
1
1
1
1
1
1
1
1
1
1
1
1
1
1
1
1
1
1
1
1
1
1
1
1
1
1
1
1
1
1
1
1
1
1
1
1
1
1
1
1
1
1
1
1
1
1
1
1
1
1
1
1
1
1
1
1
1
1
1
1.00001
1.09308
4.24846
8.59282
8.79898
8.76436
8.76126
8.74631
8.7243
8.69757
8.66593
8.62842
8.581
8.52579
8.46543
8.39924
8.33038
8.26056
8.17824
8.09099
8.00344
7.91213
7.81634
7.71601
7.60974
7.49467
7.37528
7.25502
7.12949
6.99992
6.86357
6.71513
6.56911
6.41537
6.26266
6.11018
5.94994
1
1
1
1
1
1
1
1
1
1
1
1
1
1
1
1
1
1
1
1
1
1
1
1
1
1
1
1
1
1
1
1
1
1
1
1
1
1
1
1
1
1
1
1
1
1
1
1
1
1
1
1
1
1
1
1
1
1
1
1
1.0004
1.27189
5.09948
8.57788
8.70285
8.70277
8.69518
8.6713
8.64058
8.60312
8.55977
8.51043
8.4564
8.3977
8.33412
8.26325
8.19017
8.11291
8.02795
7.93986
7.84842
7.75369
7.65465
7.55033
7.44073
7.32832
7.21352
7.09329
6.97096
6.83994
6.70037
6.56259
6.41666
6.27275
6.12973
5.97885
1
1
1
1
1
1
1
1
1
1
1
1
1
1
1
1
1
1
1
1
1
1
1
1
1
1
1
1
1
1
1
1
1
1
1
1
1
1
1
1
1
1
1
1
1
1
1
1
1
1
1
1
1
1
1
1
1
1
1
1
1
1.00245
1.46427
5.75822
8.56994
8.67973
8.65022
8.6208
8.58505
8.54326
8.49774
8.44875
8.39539
8.33649
8.2725
8.20226
8.12867
8.05289
7.97184
7.88577
7.79546
7.70159
7.60388
7.5016
7.39517
7.28653
7.17422
7.0575
6.94054
6.81486
6.68458
6.55524
6.41819
6.28258
6.14849
6.00586
1
1
1
1
1
1
1
1
1
1
1
1
1
1
1
1
1
1
1
1
1
1
1
1
1
1
1
1
1
1
1
1
1
1
1
1
1
1
1
1
1
1
1
1
1
1
1
1
1
1
1
1
1
1
1
1
1
1
1
1
1
1
1.00651
1.67811
6.32524
8.53715
8.59864
8.56891
8.5281
8.48512
8.4376
8.38832
8.33448
8.27596
8.21271
8.14409
8.07196
7.99673
7.91717
7.83294
7.74462
7.6528
7.55756
7.45811
7.35472
7.24873
7.13809
7.02429
6.91089
6.78955
6.66781
6.5469
6.41816
6.29046
6.16441
6.02997
1
1
1
1
1
1
1
1
1
1
1
1
1
1
1
1
1
1
1
1
1
1
1
1
1
1
1
1
1
1
1
1
1
1
1
1
1
1
1
1
1
1
1
1
1
1
1
1
1
1
1
1
1
1
1
1
1
1
1
1
1
1
1.00001
1.01311
1.92255
6.74499
8.49847
8.51613
8.48528
8.44099
8.3928
8.33865
8.28018
8.22037
8.1564
8.08788
8.01709
7.94397
7.86713
7.78602
7.70042
7.61054
7.51713
7.42003
7.31951
7.21611
7.10777
6.99732
6.8875
6.77192
6.65706
6.54207
6.41915
6.29766
6.17782
6.05126
1
1
1
1
1
1
1
1
1
1
1
1
1
1
1
1
1
1
1
1
1
1
1
1
1
1
1
1
1
1
1
1
1
1
1
1
1
1
1
1
1
1
1
1
1
1
1
1
1
1
1
1
1
1
1
1
1
1
1
1
1
1
1
1.00003
1.0234
2.15909
7.06714
8.45514
8.44596
8.40243
8.34757
8.29005
8.23195
8.1705
8.10357
8.03416
7.96428
7.89284
7.81814
7.73932
7.65593
7.56805
7.47684
7.38261
7.28525
7.18502
7.0806
6.97433
6.86876
6.75938
6.64947
6.53883
6.42065
6.30389
6.18864
6.06911
1
1
1
1
1
1
1
1
1
1
1
1
1
1
1
1
1
1
1
1
1
1
1
1
1
1
1
1
1
1
1
1
1
1
1
1
1
1
1
1
1
1
1
1
1
1
1
1
1
1
1
1
1
1
1
1
1
1
1
1
1
1
1
1
1.00007
1.03636
2.38143
7.31812
8.39645
8.35379
8.30273
8.24161
8.18253
8.12049
8.05561
7.98941
7.92153
7.85057
7.7759
7.69668
7.61354
7.5274
7.43834
7.34706
7.25333
7.15706
7.05742
6.95598
6.85468
6.75008
6.64378
6.53627
6.42273
6.30928
6.19784
6.08443
1
1
1
1
1
1
1
1
1
1
1
1
1
1
1
1
1
1
1
1
1
1
1
1
1
1
1
1
1
1
1
1
1
1
1
1
1
1
1
1
1
1
1
1
1
1
1
1
1
1
1
1
1
1
1
1
1
1
1
1
1
1
1
1
1
1.00013
1.05126
2.65744
7.43163
8.28708
8.23918
8.19044
8.13438
8.07308
8.00995
7.94512
7.87789
7.80753
7.73305
7.65489
7.57379
7.49012
7.40419
7.31612
7.22555
7.13264
7.03702
6.93969
6.84186
6.74088
6.63739
6.53265
6.42404
6.31412
6.20616
6.09801
1
1
1
1
1
1
1
1
1
1
1
1
1
1
1
1
1
1
1
1
1
1
1
1
1
1
1
1
1
1
1
1
1
1
1
1
1
1
1
1
1
1
1
1
1
1
1
1
1
1
1
1
1
1
1
1
1
1
1
1
1
1
1
1
1
1
1.00021
1.07332
2.79177
7.40482
8.18697
8.14638
8.09199
8.03531
7.97416
7.91039
7.84301
7.77079
7.69536
7.61827
7.53907
7.4576
7.37407
7.28848
7.20081
7.11101
7.01883
6.92477
6.82953
6.73159
6.63083
6.52852
6.42482
6.31915
6.2143
6.11018
1
1
1
1
1
1
1
1
1
1
1
1
1
1
1
1
1
1
1
1
1
1
1
1
1
1
1
1
1
1
1
1
1
1
1
1
1
1
1
1
1
1
1
1
1
1
1
1
1
1
1
1
1
1
1
1
1
1
1
1
1
1
1
1
1
1
1
1.00036
1.08669
2.79036
7.32145
8.10202
8.05642
7.99953
7.93959
7.87515
7.80719
7.7345
7.65884
7.58264
7.50552
7.42664
7.34569
7.26277
7.17771
7.09
7.00016
6.90864
6.81553
6.7203
6.62244
6.52373
6.42479
6.32317
6.22254
6.12095
1
1
1
1
1
1
1
1
1
1
1
1
1
1
1
1
1
1
1
1
1
1
1
1
1
1
1
1
1
1
1
1
1
1
1
1
1
1
1
1
1
1
1
1
1
1
1
1
1
1
1
1
1
1
1
1
1
1
1
1
1
1
1
1
1
1
1
1
1.00047
1.08767
2.76911
7.15735
8.00058
7.96449
7.90011
7.83499
7.7643
7.69396
7.6232
7.54955
7.47452
7.39805
7.31977
7.23912
7.15603
7.07051
6.98258
6.89265
6.80214
6.70982
6.61568
6.5214
6.42603
6.32912
6.23094
6.13231
1
1
1
1
1
1
1
1
1
1
1
1
1
1
1
1
1
1
1
1
1
1
1
1
1
1
1
1
1
1
1
1
1
1
1
1
1
1
1
1
1
1
1
1
1
1
1
1
1
1
1
1
1
1
1
1
1
1
1
1
1
1
1
1
1
1
1
1
1
1.00049
1.08578
2.67024
6.90663
7.89239
7.86433
7.79584
7.7299
7.66018
7.59078
7.52044
7.44719
7.37207
7.29596
7.21732
7.13538
7.05123
6.96511
6.87681
6.78834
6.69965
6.61014
6.51817
6.42683
6.33531
6.24038
6.14844
1
1
1
1
1
1
1
1
1
1
1
1
1
1
1
1
1
1
1
1
1
1
1
1
1
1
1
1
1
1
1
1
1
1
1
1
1
1
1
1
1
1
1
1
1
1
1
1
1
1
1
1
1
1
1
1
1
1
1
1
1
1
1
1
1
1
1
1
1
1
1.00048
1.07685
2.5039
6.56005
7.78653
7.76756
7.69592
7.62956
7.56108
7.49151
7.42063
7.34804
7.2729
7.19509
7.1146
7.0323
6.94962
6.86593
6.78035
6.69333
6.60615
6.51786
6.43017
6.34308
6.25466
6.16516
1
1
1
1
1
1
1
1
1
1
1
1
1
1
1
1
1
1
1
1
1
1
1
1
1
1
1
1
1
1
1
1
1
1
1
1
1
1
1
1
1
1
1
1
1
1
1
1
1
1
1
1
1
1
1
1
1
1
1
1
1
1
1
1
1
1
1
1
1
1
1
1.00041
1.06267
2.28361
6.12032
7.62779
7.67769
7.6062
7.54183
7.46934
7.39559
7.31983
7.24419
7.16925
7.0933
7.01544
6.93586
6.85593
6.77489
6.69232
6.6093
6.52601
6.44063
6.35479
6.26724
6.18065
1
1
1
1
1
1
1
1
1
1
1
1
1
1
1
1
1
1
1
1
1
1
1
1
1
1
1
1
1
1
1
1
1
1
1
1
1
1
1
1
1
1
1
1
1
1
1
1
1
1
1
1
1
1
1
1
1
1
1
1
1
1
1
1
1
1
1
1
1
1
1
1
1.00031
1.04666
2.03253
5.53257
7.47031
7.59635
7.50589
7.4399
7.37156
7.30114
7.22766
7.15158
7.07487
6.99857
6.92338
6.84921
6.77426
6.69774
6.61764
6.53718
6.45366
6.36905
6.28579
6.20042
1
1
1
1
1
1
1
1
1
1
1
1
1
1
1
1
1
1
1
1
1
1
1
1
1
1
1
1
1
1
1
1
1
1
1
1
1
1
1
1
1
1
1
1
1
1
1
1
1
1
1
1
1
1
1
1
1
1
1
1
1
1
1
1
1
1
1
1
1
1
1
1
1
1.00021
1.03076
1.76524
4.784
7.28789
7.49619
7.41404
7.35082
7.28589
7.21756
7.14682
7.07671
7.00474
6.9305
6.85408
6.77766
6.7018
6.62545
6.54948
6.47035
6.38926
6.30602
6.22079
1
1
1
1
1
1
1
1
1
1
1
1
1
1
1
1
1
1
1
1
1
1
1
1
1
1
1
1
1
1
1
1
1
1
1
1
1
1
1
1
1
1
1
1
1
1
1
1
1
1
1
1
1
1
1
1
1
1
1
1
1
1
1
1
1
1
1
1
1
1
1
1
1
1
1.00011
1.01797
1.50583
4.01794
6.97437
7.39441
7.34078
7.28336
7.21285
7.14461
7.07442
7.00422
6.93328
6.86048
6.78584
6.71027
6.63352
6.55578
6.47819
6.3988
6.31945
6.24032
1
1
1
1
1
1
1
1
1
1
1
1
1
1
1
1
1
1
1
1
1
1
1
1
1
1
1
1
1
1
1
1
1
1
1
1
1
1
1
1
1
1
1
1
1
1
1
1
1
1
1
1
1
1
1
1
1
1
1
1
1
1
1
1
1
1
1
1
1
1
1
1
1
1
1
1.00005
1.0089
1.30352
3.27343
6.51849
7.28697
7.2927
7.20241
7.13855
7.07247
7.00407
6.93414
6.86267
6.78976
6.71564
6.64203
6.56652
6.4904
6.41319
6.33527
6.25509
1
1
1
1
1
1
1
1
1
1
1
1
1
1
1
1
1
1
1
1
1
1
1
1
1
1
1
1
1
1
1
1
1
1
1
1
1
1
1
1
1
1
1
1
1
1
1
1
1
1
1
1
1
1
1
1
1
1
1
1
1
1
1
1
1
1
1
1
1
1
1
1
1
1
1
1
1.00002
1.00384
1.16386
2.61876
5.84162
7.13743
7.25906
7.14073
7.07484
7.00953
6.94206
6.86985
6.79669
6.724
6.65088
6.57684
6.50272
6.42727
6.34856
6.27462
1
1
1
1
1
1
1
1
1
1
1
1
1
1
1
1
1
1
1
1
1
1
1
1
1
1
1
1
1
1
1
1
1
1
1
1
1
1
1
1
1
1
1
1
1
1
1
1
1
1
1
1
1
1
1
1
1
1
1
1
1
1
1
1
1
1
1
1
1
1
1
1
1
1
1
1
1
1.00001
1.00146
1.08008
2.0605
4.9552
6.94232
7.14134
7.07574
7.00773
6.93764
6.86935
6.79747
6.72639
6.65456
6.58482
6.51108
6.43714
6.36223
6.287
1
1
1
1
1
1
1
1
1
1
1
1
1
1
1
1
1
1
1
1
1
1
1
1
1
1
1
1
1
1
1
1
1
1
1
1
1
1
1
1
1
1
1
1
1
1
1
1
1
1
1
1
1
1
1
1
1
1
1
1
1
1
1
1
1
1
1
1
1
1
1
1
1
1
1
1
1
1
1
1.00048
1.03483
1.62082
3.95618
6.57827
7.03497
7.03207
6.93844
6.86707
6.80308
6.73514
6.66976
6.59845
6.52885
6.45235
6.38001
6.29639
1
1
1
1
1
1
1
1
1
1
1
1
1
1
1
1
1
1
1
1
1
1
1
1
1
1
1
1
1
1
1
1
1
1
1
1
1
1
1
1
1
1
1
1
1
1
1
1
1
1
1
1
1
1
1
1
1
1
1
1
1
1
1
1
1
1
1
1
1
1
1
1
1
1
1
1
1
1
1
1
1.00014
1.01322
1.3134
3.02871
5.93194
6.89792
6.97288
6.89309
6.81826
6.75321
6.68549
6.60962
6.54355
6.45874
6.39228
6.34253
1
1
1
1
1
1
1
1
1
1
1
1
1
1
1
1
1
1
1
1
1
1
1
1
1
1
1
1
1
1
1
1
1
1
1
1
1
1
1
1
1
1
1
1
1
1
1
1
1
1
1
1
1
1
1
1
1
1
1
1
1
1
1
1
1
1
1
1
1
1
1
1
1
1
1
1
1
1
1
1
1
1.00003
1.00428
1.13588
2.2714
4.97149
6.68914
6.90576
6.87204
6.79385
6.70675
6.60906
6.54152
6.51387
6.55815
6.7252
1
1
1
1
1
1
1
1
1
1
1
1
1
1
1
1
1
1
1
1
1
1
1
1
1
1
1
1
1
1
1
1
1
1
1
1
1
1
1
1
1
1
1
1
1
1
1
1
1
1
1
1
1
1
1
1
1
1
1
1
1
1
1
1
1
1
1
1
1
1
1
1
1
1
1
1
1
1
1
1
1
1
1.00001
1.00114
1.05176
1.68679
3.90386
6.24988
6.80525
6.75781
6.67364
6.71421
6.84822
7.18668
7.75848
8.4617
1
1
1
1
1
1
1
1
1
1
1
1
1
1
1
1
1
1
1
1
1
1
1
1
1
1
1
1
1
1
1
1
1
1
1
1
1
1
1
1
1
1
1
1
1
1
1
1
1
1
1
1
1
1
1
1
1
1
1
1
1
1
1
1
1
1
1
1
1
1
1
1
1
1
1
1
1
1
1
1
1
1
1
1
1.00026
1.01665
1.31623
2.85345
5.61875
6.38976
7.16167
7.80464
8.57664
9.29792
9.80795
10.0912
1
1
1
1
1
1
1
1
1
1
1
1
1
1
1
1
1
1
1
1
1
1
1
1
1
1
1
1
1
1
1
1
1
1
1
1
1
1
1
1
1
1
1
1
1
1
1
1
1
1
1
1
1
1
1
1
1
1
1
1
1
1
1
1
1
1
1
1
1
1
1
1
1
1
1
1
1
1
1
1
1
1
1
1
1
1.00005
1.00436
1.12053
2.06372
4.64885
9.51802
10.3538
10.6412
10.7124
10.6096
10.5008
1
1
1
1
1
1
1
1
1
1
1
1
1
1
1
1
1
1
1
1
1
1
1
1
1
1
1
1
1
1
1
1
1
1
1
1
1
1
1
1
1
1
1
1
1
1
1
1
1
1
1
1
1
1
1
1
1
1
1
1
1
1
1
1
1
1
1
1
1
1
1
1
1
1
1
1
1
1
1
1
1
1
1
1
1
1
1.00001
1.00091
1.03788
3.98981
11.231
11.4892
11.2235
10.9848
10.7131
10.4925
1
1
1
1
1
1
1
1
1
1
1
1
1
1
1
1
1
1
1
1
1
1
1
1
1
1
1
1
1
1
1
1
1
1
1
1
1
1
1
1
1
1
1
1
1
1
1
1
1
1
1
1
1
1
1
1
1
1
1
1
1
1
1
1
1
1
1
1
1
1
1
1
1
1
1
1
1
1
1
1
1
1
1
1
1
1
1
1
1.00019
4.2734
10.5386
10.8077
10.6254
10.5132
10.4028
10.311
1
1
1
1
1
1
1
1
1
1
1
1
1
1
1
1
1
1
1
1
1
1
1
1
1
1
1
1
1
1
1
1
1
1
1
1
1
1
1
1
1
1
1
1
1
1
1
1
1
1
1
1
1
1
1
1
1
1
1
1
1
1
1
1
1
1
1
1
1
1
1
1
1
1
1
1
1
1
1
1
1
1
1
1
1
1
1
1
1
3.56812
9.90815
10.4997
10.4904
10.509
10.4542
10.3988
1
1
1
1
1
1
1
1
1
1
1
1
1
1
1
1
1
1
1
1
1
1
1
1
1
1
1
1
1
1
1
1
1
1
1
1
1
1
1
1
1
1
1
1
1
1
1
1
1
1
1
1
1
1
1
1
1
1
1
1
1
1
1
1
1
1
1
1
1
1
1
1
1
1
1
1
1
1
1
1
1
1
1
1
1
1
1
1
1
2.52406
9.11043
10.3967
10.386
10.3874
10.3721
10.3599
1
1
1
1
1
1
1
1
1
1
1
1
1
1
1
1
1
1
1
1
1
1
1
1
1
1
1
1
1
1
1
1
1
1
1
1
1
1
1
1
1
1
1
1
1
1
1
1
1
1
1
1
1
1
1
1
1
1
1
1
1
1
1
1
1
1
1
1
1
1
1
1
1
1
1
1
1
1
1
1
1
1
1
1
1
1
1
1
1
1.63742
8.16091
10.4734
10.4484
10.4184
10.3802
10.3384
1
1
1
1
1
1
1
1
1
1
1
1
1
1
1
1
1
1
1
1
1
1
1
1
1
1
1
1
1
1
1
1
1
1
1
1
1
1
1
1
1
1
1
1
1
1
1
1
1
1
1
1
1
1
1
1
1
1
1
1
1
1
1
1
1
1
1
1
1
1
1
1
1
1
1
1
1
1
1
1
1
1
1
1
1
1
1
1
1
1.03163
6.87322
10.4601
10.4537
10.4072
10.3735
10.3342
1
1
1
1
1
1
1
1
1
1
1
1
1
1
1
1
1
1
1
1
1
1
1
1
1
1
1
1
1
1
1
1
1
1
1
1
1
1
1
1
1
1
1
1
1
1
1
1
1
1
1
1
1
1
1
1
1
1
1
1
1
1
1
1
1
1
1
1
1
1
1
1
1
1
1
1
1
1
1
1
1
1
1
1
1
1
1
1
1
1.00004
5.48848
10.2302
10.431
10.3943
10.367
10.3301
1
1
1
1
1
1
1
1
1
1
1
1
1
1
1
1
1
1
1
1
1
1
1
1
1
1
1
1
1
1
1
1
1
1
1
1
1
1
1
1
1
1
1
1
1
1
1
1
1
1
1
1
1
1
1
1
1
1
1
1
1
1
1
1
1
1
1
1
1
1
1
1
1
1
1
1
1
1
1
1
1
1
1
1
1
1
1
1
1
1
4.16893
9.94203
10.4634
10.4131
10.3833
10.3444
1
1
1
1
1
1
1
1
1
1
1
1
1
1
1
1
1
1
1
1
1
1
1
1
1
1
1
1
1
1
1
1
1
1
1
1
1
1
1
1
1
1
1
1
1
1
1
1
1
1
1
1
1
1
1
1
1
1
1
1
1
1
1
1
1
1
1
1
1
1
1
1
1
1
1
1
1
1
1
1
1
1
1
1
1
1
1
1
1
1
3.02523
9.52962
10.4769
10.4163
10.3856
10.3495
1
1
1
1
1
1
1
1
1
1
1
1
1
1
1
1
1
1
1
1
1
1
1
1
1
1
1
1
1
1
1
1
1
1
1
1
1
1
1
1
1
1
1
1
1
1
1
1
1
1
1
1
1
1
1
1
1
1
1
1
1
1
1
1
1
1
1
1
1
1
1
1
1
1
1
1
1
1
1
1
1
1
1
1
1
1
1
1
1
1
2.17427
8.909
10.4743
10.4154
10.3861
10.3537
1
1
1
1
1
1
1
1
1
1
1
1
1
1
1
1
1
1
1
1
1
1
1
1
1
1
1
1
1
1
1
1
1
1
1
1
1
1
1
1
1
1
1
1
1
1
1
1
1
1
1
1
1
1
1
1
1
1
1
1
1
1
1
1
1
1
1
1
1
1
1
1
1
1
1
1
1
1
1
1
1
1
1
1
1
1
1
1
1
1
1.60879
8.15186
10.478
10.4257
10.3891
10.3579
1
1
1
1
1
1
1
1
1
1
1
1
1
1
1
1
1
1
1
1
1
1
1
1
1
1
1
1
1
1
1
1
1
1
1
1
1
1
1
1
1
1
1
1
1
1
1
1
1
1
1
1
1
1
1
1
1
1
1
1
1
1
1
1
1
1
1
1
1
1
1
1
1
1
1
1
1
1
1
1
1
1
1
1
1
1
1
1
1
1
1.219
7.31005
10.4544
10.435
10.3925
10.3697
1
1
1
1
1
1
1
1
1
1
1
1
1
1
1
1
1
1
1
1
1
1
1
1
1
1
1
1
1
1
1
1
1
1
1
1
1
1
1
1
1
1
1
1
1
1
1
1
1
1
1
1
1
1
1
1
1
1
1
1
1
1
1
1
1
1
1
1
1
1
1
1
1
1
1
1
1
1
1
1
1
1
1
1
1
1
1
1
1
1
1.00423
6.44588
10.4305
10.4884
10.4301
10.3988
1
1
1
1
1
1
1
1
1
1
1
1
1
1
1
1
1
1
1
1
1
1
1
1
1
1
1
1
1
1
1
1
1
1
1
1
1
1
1
1
1
1
1
1
1
1
1
1
1
1
1
1
1
1
1
1
1
1
1
1
1
1
1
1
1
1
1
1
1
1
1
1
1
1
1
1
1
1
1
1
1
1
1
1
1
1
1
1
1
1
1.00001
5.59158
10.3545
10.5198
10.4578
10.4265
1
1
1
1
1
1
1
1
1
1
1
1
1
1
1
1
1
1
1
1
1
1
1
1
1
1
1
1
1
1
1
1
1
1
1
1
1
1
1
1
1
1
1
1
1
1
1
1
1
1
1
1
1
1
1
1
1
1
1
1
1
1
1
1
1
1
1
1
1
1
1
1
1
1
1
1
1
1
1
1
1
1
1
1
1
1
1
1
1
1
1
4.88538
10.2568
10.559
10.4867
10.4483
1
1
1
1
1
1
1
1
1
1
1
1
1
1
1
1
1
1
1
1
1
1
1
1
1
1
1
1
1
1
1
1
1
1
1
1
1
1
1
1
1
1
1
1
1
1
1
1
1
1
1
1
1
1
1
1
1
1
1
1
1
1
1
1
1
1
1
1
1
1
1
1
1
1
1
1
1
1
1
1
1
1
1
1
1
1
1
1
1
1
1
4.34749
10.1267
10.5803
10.4995
10.4568
1
1
1
1
1
1
1
1
1
1
1
1
1
1
1
1
1
1
1
1
1
1
1
1
1
1
1
1
1
1
1
1
1
1
1
1
1
1
1
1
1
1
1
1
1
1
1
1
1
1
1
1
1
1
1
1
1
1
1
1
1
1
1
1
1
1
1
1
1
1
1
1
1
1
1
1
1
1
1
1
1
1
1
1
1
1
1
1
1
1
1
3.95761
9.98595
10.5816
10.4976
10.4546
1
1
1
1
1
1
1
1
1
1
1
1
1
1
1
1
1
1
1
1
1
1
1
1
1
1
1
1
1
1
1
1
1
1
1
1
1
1
1
1
1
1
1
1
1
1
1
1
1
1
1
1
1
1
1
1
1
1
1
1
1
1
1
1
1
1
1
1
1
1
1
1
1
1
1
1
1
1
1
1
1
1
1
1
1
1
1
1
1
1
1
3.67731
9.85445
10.5684
10.4856
10.445
1
1
1
1
1
1
1
1
1
1
1
1
1
1
1
1
1
1
1
1
1
1
1
1
1
1
1
1
1
1
1
1
1
1
1
1
1
1
1
1
1
1
1
1
1
1
1
1
1
1
1
1
1
1
1
1
1
1
1
1
1
1
1
1
1
1
1
1
1
1
1
1
1
1
1
1
1
1
1
1
1
1
1
1
1
1
1
1
1
1
1
3.45412
9.76027
10.5478
10.4705
10.4357
1
1
1
1
1
1
1
1
1
1
1
1
1
1
1
1
1
1
1
1
1
1
1
1
1
1
1
1
1
1
1
1
1
1
1
1
1
1
1
1
1
1
1
1
1
1
1
1
1
1
1
1
1
1
1
1
1
1
1
1
1
1
1
1
1
1
1
1
1
1
1
1
1
1
1
1
1
1
1
1
1
1
1
1
1
1
1
1
1
1
1
3.28287
9.68726
10.5242
10.4577
10.4281
1
1
1
1
1
1
1
1
1
1
1
1
1
1
1
1
1
1
1
1
1
1
1
1
1
1
1
1
1
1
1
1
1
1
1
1
1
1
1
1
1
1
1
1
1
1
1
1
1
1
1
1
1
1
1
1
1
1
1
1
1
1
1
1
1
1
1
1
1
1
1
1
1
1
1
1
1
1
1
1
1
1
1
1
1
1
1
1
1
1
1
3.1673
9.65657
10.5073
10.4529
10.4249
1
1
1
1
1
1
1
1
1
1
1
1
1
1
1
1
1
1
1
1
1
1
1
1
1
1
1
1
1
1
1
1
1
1
1
1
1
1
1
1
1
1
1
1
1
1
1
1
1
1
1
1
1
1
1
1
1
1
1
1
1
1
1
1
1
1
1
1
1
1
1
1
1
1
1
1
1
1
1
1
1
1
1
1
1
1
1
1
1
1
1
3.11229
9.62899
10.4868
10.4425
10.4192
1.05099
0.215968
0.100968
0.0329794
0.0205199
0.0333762
0.0713193
0.127433
0.175372
0.231183
0.327784
0.426317
0.495523
0.561392
0.624751
0.687798
0.756152
0.83683
0.882373
0.911473
0.957766
0.995084
1.00781
1.02584
1.03341
1.03256
1.0449
1.07549
1.10753
1.13605
1.16288
1.18432
1.1942
1.20402
1.22166
1.24655
1.26118
1.2629
1.26371
1.26435
1.26867
1.27372
1.2835
1.3016
1.31217
1.31573
1.31826
1.31664
1.3151
1.31715
1.37325
3.05148
5.94526
6.25142
6.27871
6.30396
6.32773
6.34415
6.34489
6.33226
6.307
6.27863
6.25636
6.24298
6.23634
6.22798
6.20948
6.17819
6.13759
6.1019
6.07473
6.04801
6.01047
5.96088
5.90543
5.85081
5.80262
5.76503
5.73791
5.71606
5.68234
5.62991
5.57267
5.5134
5.45858
5.40919
5.36802
5.33662
5.31044
5.2774
5.23325
5.18697
5.14153
5.09977
5.06475
5.04094
5.02254
4.99571
4.95881
4.91697
4.87042
4.82682
4.78681
4.75155
4.72539
4.70445
4.67597
4.63882
4.5992
4.55664
4.50916
4.45977
4.41591