/*--------------------------------*- C++ -*----------------------------------*\
  =========                 |
  \\      /  F ield         | OpenFOAM: The Open Source CFD Toolbox
   \\    /   O peration     | Website:  https://openfoam.org
    \\  /    A nd           | Version:  7
     \\/     M anipulation  |
\*---------------------------------------------------------------------------*/
FoamFile
{
    version     2.0;
    format      ascii;
    class       volScalarField;
    location    "4.8";
    object      rho;
}
// * * * * * * * * * * * * * * * * * * * * * * * * * * * * * * * * * * * * * //

dimensions      [1 -3 0 0 0 0 0];

internalField   nonuniform List<scalar> 
19968
(
1.40001
1.40001
1.40001
1.40001
1.40001
1.40001
1.40001
1.40001
1.40001
1.40001
1.40001
1.40001
1.40001
1.40001
1.40001
1.40001
1.40001
1.40001
1.40001
1.40001
1.40001
1.40001
1.40001
1.40001
1.40001
1.40001
1.40001
1.40001
1.40001
1.40001
1.40001
1.40001
1.40001
1.40001
1.40001
1.40001
1.40001
1.40001
1.40001
1.40001
1.40001
1.40001
1.40001
1.40001
1.40001
1.40001
1.40001
1.40001
1.69625
4.56162
5.4162
5.4334
5.45959
5.48374
5.5065
5.52622
5.54382
5.561
5.57926
5.59883
5.6196
5.64114
5.66183
5.68009
5.69628
5.71228
5.72937
5.7471
5.76438
5.78051
5.79525
5.80888
5.82201
5.83502
5.84778
5.86008
5.87198
5.88385
5.89607
5.9088
5.92179
5.93445
5.94605
5.95609
5.96434
5.97092
5.97624
5.98084
5.98526
5.98986
5.99484
6.00011
6.00524
6.00971
6.01303
6.01593
1.40001
1.40001
1.40001
1.40001
1.40001
1.40001
1.40001
1.40001
1.40001
1.40001
1.40001
1.40001
1.40001
1.40001
1.40001
1.40001
1.40001
1.40001
1.40001
1.40001
1.40001
1.40001
1.40001
1.40001
1.40001
1.40001
1.40001
1.40001
1.40001
1.40001
1.40001
1.40001
1.40001
1.40001
1.40001
1.40001
1.40001
1.40001
1.40001
1.40001
1.40001
1.40001
1.40001
1.40001
1.40001
1.40001
1.40001
1.40001
1.67745
4.5316
5.41133
5.43399
5.46047
5.48414
5.50622
5.5257
5.54326
5.56054
5.57888
5.59837
5.619
5.64014
5.6605
5.67862
5.69494
5.71113
5.72838
5.74618
5.7635
5.77968
5.79447
5.80811
5.82124
5.83427
5.84703
5.85926
5.87097
5.88251
5.89436
5.9068
5.91966
5.93235
5.94405
5.95412
5.96229
5.96874
5.97397
5.9786
5.98315
5.98792
5.99296
5.99813
6.00302
6.00717
6.0102
6.01277
1.40001
1.40001
1.40001
1.40001
1.40001
1.40001
1.40001
1.40001
1.40001
1.40001
1.40001
1.40001
1.40001
1.40001
1.40001
1.40001
1.40001
1.40001
1.40001
1.40001
1.40001
1.40001
1.40001
1.40001
1.40001
1.40001
1.40001
1.40001
1.40001
1.40001
1.40001
1.40001
1.40001
1.40001
1.40001
1.40001
1.40001
1.40001
1.40001
1.40001
1.40001
1.40001
1.40001
1.40001
1.40001
1.40001
1.40001
1.40001
1.6377
4.47289
5.4121
5.43232
5.4588
5.4812
5.50258
5.52243
5.54089
5.55908
5.57788
5.59725
5.6175
5.63792
5.65768
5.67551
5.69201
5.70851
5.72603
5.74398
5.76142
5.77767
5.7925
5.80614
5.81928
5.83236
5.84523
5.8575
5.86907
5.88026
5.89162
5.90359
5.91618
5.92883
5.94062
5.95073
5.95884
5.9652
5.97043
5.97522
5.98001
5.98498
5.99004
5.99498
5.99947
6.00317
6.00588
6.00808
1.40001
1.40001
1.40001
1.40001
1.40001
1.40001
1.40001
1.40001
1.40001
1.40001
1.40001
1.40001
1.40001
1.40001
1.40001
1.40001
1.40001
1.40001
1.40001
1.40001
1.40001
1.40001
1.40001
1.40001
1.40001
1.40001
1.40001
1.40001
1.40001
1.40001
1.40001
1.40001
1.40001
1.40001
1.40001
1.40001
1.40001
1.40001
1.40001
1.40001
1.40001
1.40001
1.40001
1.40001
1.40001
1.40001
1.40001
1.40001
1.58243
4.38012
5.41381
5.43131
5.45471
5.47576
5.49712
5.51803
5.53787
5.55715
5.57635
5.59537
5.61499
5.63444
5.65348
5.67102
5.68778
5.70465
5.72243
5.74047
5.75796
5.77424
5.78911
5.80279
5.81599
5.82915
5.8421
5.85437
5.86573
5.87649
5.88729
5.89873
5.91098
5.9235
5.93527
5.94533
5.95329
5.9595
5.96468
5.96958
5.9746
5.97978
5.98488
5.98955
5.99352
5.99663
5.99889
6.00062
1.40001
1.40001
1.40001
1.40001
1.40001
1.40001
1.40001
1.40001
1.40001
1.40001
1.40001
1.40001
1.40001
1.40001
1.40001
1.40001
1.40001
1.40001
1.40001
1.40001
1.40001
1.40001
1.40001
1.40001
1.40001
1.40001
1.40001
1.40001
1.40001
1.40001
1.40001
1.40001
1.40001
1.40001
1.40001
1.40001
1.40001
1.40001
1.40001
1.40001
1.40001
1.40001
1.40001
1.40001
1.40001
1.40001
1.40001
1.40001
1.51074
4.25763
5.41589
5.42773
5.44838
5.46922
5.49129
5.51358
5.53472
5.55474
5.57381
5.59203
5.61073
5.62929
5.64781
5.66533
5.68256
5.69991
5.71796
5.73599
5.75344
5.76967
5.78458
5.79832
5.81157
5.82478
5.83777
5.85002
5.86124
5.87169
5.88204
5.89301
5.90487
5.91715
5.9288
5.93878
5.94669
5.95287
5.95807
5.96304
5.96813
5.97324
5.97797
5.98189
5.98484
5.98688
5.98829
5.98929
1.40001
1.40001
1.40001
1.40001
1.40001
1.40001
1.40001
1.40001
1.40001
1.40001
1.40001
1.40001
1.40001
1.40001
1.40001
1.40001
1.40001
1.40001
1.40001
1.40001
1.40001
1.40001
1.40001
1.40001
1.40001
1.40001
1.40001
1.40001
1.40001
1.40001
1.40001
1.40001
1.40001
1.40001
1.40001
1.40001
1.40001
1.40001
1.40001
1.40001
1.40001
1.40001
1.40001
1.40001
1.40001
1.40001
1.40001
1.40001
1.4054
4.0528
5.41241
5.42613
5.4421
5.4633
5.48568
5.5093
5.53186
5.55257
5.57136
5.58846
5.60584
5.62344
5.64142
5.65896
5.67669
5.69447
5.71245
5.72991
5.74676
5.76252
5.77722
5.79081
5.80388
5.81684
5.82956
5.84156
5.85257
5.86278
5.8728
5.88333
5.89473
5.90663
5.91803
5.92793
5.93591
5.94226
5.94773
5.95305
5.95856
5.96401
5.96881
5.97236
5.97455
5.97568
5.97623
5.97654
1.40001
1.40001
1.40001
1.40001
1.40001
1.40001
1.40001
1.40001
1.40001
1.40001
1.40001
1.40001
1.40001
1.40001
1.40001
1.40001
1.40001
1.40001
1.40001
1.40001
1.40001
1.40001
1.40001
1.40001
1.40001
1.40001
1.40001
1.40001
1.40001
1.40001
1.40001
1.40001
1.40001
1.40001
1.40001
1.40001
1.40001
1.40001
1.40001
1.40001
1.40001
1.40001
1.40001
1.40001
1.40001
1.40001
1.40001
1.40001
1.40004
3.74718
5.37582
5.41095
5.42768
5.45099
5.47399
5.49832
5.52128
5.54186
5.5601
5.57636
5.59289
5.61008
5.62783
5.64554
5.66358
5.68156
5.69935
5.71628
5.73277
5.74842
5.76329
5.77709
5.79028
5.80318
5.81576
5.8277
5.8388
5.84917
5.85926
5.86968
5.88078
5.89232
5.90345
5.91326
5.9213
5.92784
5.93358
5.9392
5.94502
5.9507
5.95548
5.95864
5.96007
5.96038
5.96014
5.95992
1.40001
1.40001
1.40001
1.40001
1.40001
1.40001
1.40001
1.40001
1.40001
1.40001
1.40001
1.40001
1.40001
1.40001
1.40001
1.40001
1.40001
1.40001
1.40001
1.40001
1.40001
1.40001
1.40001
1.40001
1.40001
1.40001
1.40001
1.40001
1.40001
1.40001
1.40001
1.40001
1.40001
1.40001
1.40001
1.40001
1.40001
1.40001
1.40001
1.40001
1.40001
1.40001
1.40001
1.40001
1.40001
1.40001
1.40001
1.40001
1.40001
3.35075
5.31576
5.40124
5.4207
5.44565
5.46882
5.49256
5.51455
5.53422
5.55186
5.56786
5.58391
5.6007
5.61812
5.63575
5.65354
5.67103
5.68802
5.70392
5.71966
5.73486
5.7496
5.76329
5.77625
5.78871
5.80081
5.81237
5.82328
5.83361
5.84366
5.85388
5.86462
5.87575
5.88656
5.89617
5.90414
5.91068
5.91643
5.92208
5.92797
5.93369
5.9384
5.94124
5.94205
5.94179
5.94087
5.94037
1.40001
1.40001
1.40001
1.40001
1.40001
1.40001
1.40001
1.40001
1.40001
1.40001
1.40001
1.40001
1.40001
1.40001
1.40001
1.40001
1.40001
1.40001
1.40001
1.40001
1.40001
1.40001
1.40001
1.40001
1.40001
1.40001
1.40001
1.40001
1.40001
1.40001
1.40001
1.40001
1.40001
1.40001
1.40001
1.40001
1.40001
1.40001
1.40001
1.40001
1.40001
1.40001
1.40001
1.40001
1.40001
1.40001
1.40001
1.40001
1.40001
2.88483
5.20754
5.39573
5.41641
5.44174
5.46435
5.48691
5.50754
5.52611
5.543
5.55902
5.57493
5.59144
5.6084
5.62557
5.64249
5.65872
5.67431
5.68873
5.70329
5.71772
5.73194
5.74518
5.75756
5.76938
5.7808
5.79179
5.80229
5.8124
5.82231
5.83233
5.84273
5.85341
5.86374
5.87297
5.88066
5.88706
5.89278
5.89848
5.90447
5.91028
5.91509
5.91798
5.91869
5.91834
5.91712
5.91671
1.40001
1.40001
1.40001
1.40001
1.40001
1.40001
1.40001
1.40001
1.40001
1.40001
1.40001
1.40001
1.40001
1.40001
1.40001
1.40001
1.40001
1.40001
1.40001
1.40001
1.40001
1.40001
1.40001
1.40001
1.40001
1.40001
1.40001
1.40001
1.40001
1.40001
1.40001
1.40001
1.40001
1.40001
1.40001
1.40001
1.40001
1.40001
1.40001
1.40001
1.40001
1.40001
1.40001
1.40001
1.40001
1.40001
1.40001
1.40001
1.40001
2.36331
5.01939
5.39554
5.41856
5.44306
5.46459
5.48574
5.50487
5.52188
5.53715
5.55227
5.56762
5.58355
5.59976
5.61617
5.63187
5.6465
5.66054
5.67354
5.68687
5.70041
5.71378
5.72632
5.73768
5.74833
5.75849
5.76825
5.7776
5.78678
5.79603
5.80555
5.81551
5.82571
5.83557
5.84437
5.85174
5.8579
5.86342
5.86888
5.87451
5.87993
5.88441
5.88714
5.88783
5.88756
5.88623
5.88603
1.40001
1.40001
1.40001
1.40001
1.40001
1.40001
1.40001
1.40001
1.40001
1.40001
1.40001
1.40001
1.40001
1.40001
1.40001
1.40001
1.40001
1.40001
1.40001
1.40001
1.40001
1.40001
1.40001
1.40001
1.40001
1.40001
1.40001
1.40001
1.40001
1.40001
1.40001
1.40001
1.40001
1.40001
1.40001
1.40001
1.40001
1.40001
1.40001
1.40001
1.40001
1.40001
1.40001
1.40001
1.40001
1.40001
1.40001
1.40001
1.40001
1.8413
4.69821
5.41389
5.40982
5.43389
5.45269
5.47352
5.49338
5.5114
5.52705
5.542
5.55698
5.57226
5.58796
5.60405
5.61912
5.63256
5.64535
5.65728
5.66955
5.68236
5.69488
5.70683
5.71735
5.72694
5.73576
5.74403
5.75185
5.75953
5.76739
5.7756
5.78416
5.79281
5.80101
5.80816
5.81409
5.81909
5.82373
5.82849
5.83358
5.83872
5.84325
5.84641
5.84786
5.84833
5.84741
5.84777
1.40001
1.40001
1.40001
1.40001
1.40001
1.40001
1.40001
1.40001
1.40001
1.40001
1.40001
1.40001
1.40001
1.40001
1.40001
1.40001
1.40001
1.40001
1.40001
1.40001
1.40001
1.40001
1.40001
1.40001
1.40001
1.40001
1.40001
1.40001
1.40001
1.40001
1.40001
1.40001
1.40001
1.40001
1.40001
1.40001
1.40001
1.40001
1.40001
1.40001
1.40001
1.40001
1.40001
1.40001
1.40001
1.40001
1.40001
1.40001
1.40001
1.42128
4.04587
5.39896
5.40816
5.42539
5.44376
5.46316
5.48293
5.50153
5.51749
5.53176
5.54562
5.55921
5.57308
5.58769
5.60158
5.61369
5.6251
5.63572
5.64629
5.65776
5.66909
5.68013
5.68976
5.69827
5.7058
5.7126
5.71886
5.72498
5.73141
5.73831
5.74559
5.75289
5.75966
5.76549
5.77031
5.77445
5.77822
5.78191
5.78549
5.78874
5.79124
5.79263
5.79284
5.7927
5.79172
5.7921
1.40001
1.40001
1.40001
1.40001
1.40001
1.40001
1.40001
1.40001
1.40001
1.40001
1.40001
1.40001
1.40001
1.40001
1.40001
1.40001
1.40001
1.40001
1.40001
1.40001
1.40001
1.40001
1.40001
1.40001
1.40001
1.40001
1.40001
1.40001
1.40001
1.40001
1.40001
1.40001
1.40001
1.40001
1.40001
1.40001
1.40001
1.40001
1.40001
1.40001
1.40001
1.40001
1.40001
1.40001
1.40001
1.40001
1.40001
1.40001
1.40001
1.40004
3.15098
5.23584
5.36357
5.38786
5.41073
5.43084
5.45102
5.47036
5.48716
5.5014
5.51433
5.52676
5.5393
5.55282
5.56662
5.57898
5.59045
5.60105
5.61098
5.62155
5.63235
5.64279
5.65221
5.66022
5.66697
5.67254
5.67726
5.68161
5.68614
5.69115
5.69649
5.70162
5.70586
5.70891
5.71089
5.71213
5.71303
5.71364
5.71402
5.71457
5.71553
5.71702
5.71815
5.71969
5.7204
5.72186
1.40001
1.40001
1.40001
1.40001
1.40001
1.40001
1.40001
1.40001
1.40001
1.40001
1.40001
1.40001
1.40001
1.40001
1.40001
1.40001
1.40001
1.40001
1.40001
1.40001
1.40001
1.40001
1.40001
1.40001
1.40001
1.40001
1.40001
1.40001
1.40001
1.40001
1.40001
1.40001
1.40001
1.40001
1.40001
1.40001
1.40001
1.40001
1.40001
1.40001
1.40001
1.40001
1.40001
1.40001
1.40001
1.40001
1.40001
1.40001
1.40001
1.4
2.13345
4.87169
5.37045
5.37879
5.40159
5.41908
5.43704
5.45478
5.47104
5.48473
5.49626
5.50665
5.51683
5.52796
5.54035
5.55225
5.56309
5.57289
5.58146
5.58967
5.59828
5.60673
5.61483
5.62163
5.62701
5.63072
5.63299
5.63442
5.63575
5.63762
5.64001
5.64214
5.64309
5.64278
5.64156
5.63975
5.63784
5.63597
5.634
5.63153
5.62811
5.62399
5.6184
5.61258
5.60662
5.60136
1.40001
1.40001
1.40001
1.40001
1.40001
1.40001
1.40001
1.40001
1.40001
1.40001
1.40001
1.40001
1.40001
1.40001
1.40001
1.40001
1.40001
1.40001
1.40001
1.40001
1.40001
1.40001
1.40001
1.40001
1.40001
1.40001
1.40001
1.40001
1.40001
1.40001
1.40001
1.40001
1.40001
1.40001
1.40001
1.40001
1.40001
1.40001
1.40001
1.40001
1.40001
1.40001
1.40001
1.40001
1.40001
1.40001
1.40001
1.40001
1.40001
1.40001
1.43916
3.92065
5.37776
5.38884
5.39908
5.4107
5.42403
5.43771
5.45062
5.46168
5.47064
5.4784
5.48581
5.4939
5.50374
5.51444
5.52465
5.53372
5.54109
5.54668
5.55193
5.55755
5.56343
5.56888
5.57309
5.5754
5.57573
5.57418
5.57191
5.57005
5.56861
5.56691
5.56392
5.55875
5.5512
5.54201
5.53192
5.5209
5.5081
5.49275
5.47514
5.45685
5.44225
5.43152
5.42846
5.42818
1.40001
1.40001
1.40001
1.40001
1.40001
1.40001
1.40001
1.40001
1.40001
1.40001
1.40001
1.40001
1.40001
1.40001
1.40001
1.40001
1.40001
1.40001
1.40001
1.40001
1.40001
1.40001
1.40001
1.40001
1.40001
1.40001
1.40001
1.40001
1.40001
1.40001
1.40001
1.40001
1.40001
1.40001
1.40001
1.40001
1.40001
1.40001
1.40001
1.40001
1.40001
1.40001
1.40001
1.40001
1.40001
1.40001
1.40001
1.40001
1.40001
1.40001
1.40005
2.551
5.04263
5.35582
5.35872
5.37301
5.38755
5.40246
5.4165
5.42869
5.43817
5.44493
5.45028
5.4559
5.4631
5.47214
5.48198
5.49103
5.49792
5.50195
5.50371
5.50481
5.50624
5.50835
5.51043
5.51149
5.5103
5.50606
5.49968
5.49258
5.48562
5.47841
5.4695
5.45742
5.44145
5.42233
5.40139
5.37957
5.35658
5.332
5.3057
5.2782
5.24353
5.20533
5.15237
5.1736
1.40001
1.40001
1.40001
1.40001
1.40001
1.40001
1.40001
1.40001
1.40001
1.40001
1.40001
1.40001
1.40001
1.40001
1.40001
1.40001
1.40001
1.40001
1.40001
1.40001
1.40001
1.40001
1.40001
1.40001
1.40001
1.40001
1.40001
1.40001
1.40001
1.40001
1.40001
1.40001
1.40001
1.40001
1.40001
1.40001
1.40001
1.40001
1.40001
1.40001
1.40001
1.40001
1.40001
1.40001
1.40001
1.40001
1.40001
1.40001
1.40001
1.40001
1.40001
1.49962
4.30079
5.38811
5.36865
5.374
5.38035
5.3892
5.39857
5.4072
5.4143
5.41904
5.42199
5.42469
5.42822
5.43371
5.44134
5.44947
5.45587
5.45912
5.45839
5.45528
5.45186
5.44984
5.44907
5.44816
5.44515
5.43861
5.42859
5.41648
5.40361
5.39019
5.37486
5.35569
5.33111
5.30099
5.26599
5.22714
5.18234
5.12895
5.05792
4.96141
4.8132
4.58402
4.17889
3.27193
1.40001
1.40001
1.40001
1.40001
1.40001
1.40001
1.40001
1.40001
1.40001
1.40001
1.40001
1.40001
1.40001
1.40001
1.40001
1.40001
1.40001
1.40001
1.40001
1.40001
1.40001
1.40001
1.40001
1.40001
1.40001
1.40001
1.40001
1.40001
1.40001
1.40001
1.40001
1.40001
1.40001
1.40001
1.40001
1.40001
1.40001
1.40001
1.40001
1.40001
1.40001
1.40001
1.40001
1.40001
1.40001
1.40001
1.40001
1.40001
1.40001
1.40001
1.40001
1.40037
3.15016
5.19983
5.3193
5.33673
5.34663
5.35811
5.36927
5.37903
5.38696
5.39233
5.39485
5.3961
5.39733
5.39949
5.40333
5.40893
5.41445
5.41752
5.41649
5.41186
5.40502
5.39886
5.39448
5.39081
5.38572
5.37736
5.36501
5.34926
5.33127
5.31164
5.28963
5.26358
5.23116
5.1914
5.14294
5.08731
5.0203
4.94077
4.83407
4.69374
4.48569
4.20963
3.67291
2.91611
1.40001
1.40001
1.40001
1.40001
1.40001
1.40001
1.40001
1.40001
1.40001
1.40001
1.40001
1.40001
1.40001
1.40001
1.40001
1.40001
1.40001
1.40001
1.40001
1.40001
1.40001
1.40001
1.40001
1.40001
1.40001
1.40001
1.40001
1.40001
1.40001
1.40001
1.40001
1.40001
1.40001
1.40001
1.40001
1.40001
1.40001
1.40001
1.40001
1.40001
1.40001
1.40001
1.40001
1.40001
1.40001
1.40001
1.40001
1.40001
1.40001
1.40001
1.40001
1.4
1.91214
4.71786
5.33135
5.32293
5.33051
5.34175
5.35282
5.36115
5.36736
5.37159
5.37339
5.3735
5.37328
5.37286
5.37302
5.37488
5.37764
5.3787
5.37596
5.36921
5.35913
5.34875
5.34041
5.33329
5.32512
5.31407
5.29905
5.28002
5.25725
5.23131
5.20171
5.16789
5.12709
5.07836
5.01831
4.94823
4.86379
4.76303
4.63542
4.46752
4.24887
3.93184
3.48722
2.96134
1.40001
1.40001
1.40001
1.40001
1.40001
1.40001
1.40001
1.40001
1.40001
1.40001
1.40001
1.40001
1.40001
1.40001
1.40001
1.40001
1.40001
1.40001
1.40001
1.40001
1.40001
1.40001
1.40001
1.40001
1.40001
1.40001
1.40001
1.40001
1.40001
1.40001
1.40001
1.40001
1.40001
1.40001
1.40001
1.40001
1.40001
1.40001
1.40001
1.40001
1.40001
1.40001
1.40001
1.40001
1.40001
1.40001
1.40001
1.40001
1.40001
1.40001
1.40001
1.4
1.41945
3.51895
5.23023
5.29521
5.3106
5.32474
5.33705
5.34537
5.35024
5.35184
5.35031
5.34661
5.34455
5.34335
5.34265
5.34246
5.34231
5.34013
5.33452
5.32508
5.31246
5.29873
5.28647
5.27529
5.26311
5.24852
5.23026
5.20805
5.18118
5.14999
5.11371
5.07267
5.02431
4.96776
4.89916
4.81844
4.7231
4.60951
4.47201
4.29696
4.07935
3.7969
3.46526
3.06705
1.40001
1.40001
1.40001
1.40001
1.40001
1.40001
1.40001
1.40001
1.40001
1.40001
1.40001
1.40001
1.40001
1.40001
1.40001
1.40001
1.40001
1.40001
1.40001
1.40001
1.40001
1.40001
1.40001
1.40001
1.40001
1.40001
1.40001
1.40001
1.40001
1.40001
1.40001
1.40001
1.40001
1.40001
1.40001
1.40001
1.40001
1.40001
1.40001
1.40001
1.40001
1.40001
1.40001
1.40001
1.40001
1.40001
1.40001
1.40001
1.40001
1.40001
1.40001
1.40001
1.39999
2.06932
4.80063
5.29261
5.29568
5.3098
5.32087
5.33032
5.33507
5.33505
5.32955
5.32106
5.31693
5.31556
5.31523
5.31429
5.31164
5.30589
5.29623
5.28289
5.2673
5.25061
5.23475
5.21979
5.20375
5.1854
5.16314
5.13679
5.10545
5.06968
5.02847
4.98204
4.92824
4.86559
4.79108
4.70391
4.60308
4.48514
4.34629
4.17728
3.97574
3.74169
3.48225
3.17327
1.40001
1.40001
1.40001
1.40001
1.40001
1.40001
1.40001
1.40001
1.40001
1.40001
1.40001
1.40001
1.40001
1.40001
1.40001
1.40001
1.40001
1.40001
1.40001
1.40001
1.40001
1.40001
1.40001
1.40001
1.40001
1.40001
1.40001
1.40001
1.40001
1.40001
1.40001
1.40001
1.40001
1.40001
1.40001
1.40001
1.40001
1.40001
1.40001
1.40001
1.40001
1.40001
1.40001
1.40001
1.40001
1.40001
1.40001
1.40001
1.40001
1.40001
1.40001
1.40001
1.4
1.43181
3.55717
5.19875
5.27195
5.28551
5.29506
5.3058
5.3136
5.31674
5.31186
5.30144
5.29385
5.2902
5.28782
5.28475
5.27965
5.27122
5.25873
5.24288
5.22531
5.20616
5.18661
5.16748
5.14753
5.12567
5.09954
5.0686
5.03222
4.99151
4.94615
4.89588
4.83871
4.77266
4.6954
4.606
4.50433
4.38761
4.25382
4.09817
3.91827
3.72314
3.50996
3.26152
1.40001
1.40001
1.40001
1.40001
1.40001
1.40001
1.40001
1.40001
1.40001
1.40001
1.40001
1.40001
1.40001
1.40001
1.40001
1.40001
1.40001
1.40001
1.40001
1.40001
1.40001
1.40001
1.40001
1.40001
1.40001
1.40001
1.40001
1.40001
1.40001
1.40001
1.40001
1.40001
1.40001
1.40001
1.40001
1.40001
1.40001
1.40001
1.40001
1.40001
1.40001
1.40001
1.40001
1.40001
1.40001
1.40001
1.40001
1.40001
1.40001
1.40001
1.40001
1.40001
1.4
1.40002
1.98347
4.73026
5.27246
5.26641
5.27542
5.28125
5.28499
5.28594
5.28198
5.27495
5.2692
5.2655
5.26091
5.25501
5.2467
5.23533
5.22024
5.20267
5.18406
5.16389
5.14191
5.1191
5.0953
5.06995
5.04065
5.00571
4.96454
4.91922
4.87043
4.81771
4.7587
4.69141
4.61389
4.52503
4.42626
4.31279
4.18738
4.04731
3.88944
3.71995
3.53816
3.33345
1.40001
1.40001
1.40001
1.40001
1.40001
1.40001
1.40001
1.40001
1.40001
1.40001
1.40001
1.40001
1.40001
1.40001
1.40001
1.40001
1.40001
1.40001
1.40001
1.40001
1.40001
1.40001
1.40001
1.40001
1.40001
1.40001
1.40001
1.40001
1.40001
1.40001
1.40001
1.40001
1.40001
1.40001
1.40001
1.40001
1.40001
1.40001
1.40001
1.40001
1.40001
1.40001
1.40001
1.40001
1.40001
1.40001
1.40001
1.40001
1.40001
1.40001
1.40001
1.40001
1.40001
1.40001
1.4221
3.32174
5.11397
5.23998
5.24012
5.24646
5.25155
5.25534
5.25304
5.2485
5.24427
5.23986
5.23356
5.22534
5.21371
5.19945
5.18269
5.16459
5.14551
5.125
5.10144
5.07541
5.04756
5.01829
4.98607
4.94816
4.90346
4.85469
4.80312
4.74806
4.68726
4.6193
4.54291
4.45646
4.36321
4.2549
4.13973
4.01549
3.87429
3.72579
3.56858
3.39865
1.40001
1.40001
1.40001
1.40001
1.40001
1.40001
1.40001
1.40001
1.40001
1.40001
1.40001
1.40001
1.40001
1.40001
1.40001
1.40001
1.40001
1.40001
1.40001
1.40001
1.40001
1.40001
1.40001
1.40001
1.40001
1.40001
1.40001
1.40001
1.40001
1.40001
1.40001
1.40001
1.40001
1.40001
1.40001
1.40001
1.40001
1.40001
1.40001
1.40001
1.40001
1.40001
1.40001
1.40001
1.40001
1.40001
1.40001
1.40001
1.40001
1.40001
1.40001
1.40001
1.40001
1.40001
1.40001
1.69526
4.47563
5.27329
5.24767
5.23981
5.23107
5.22701
5.22174
5.21664
5.21242
5.2072
5.20004
5.19042
5.17744
5.16198
5.14389
5.12488
5.10492
5.08447
5.06073
5.03366
5.00323
4.97071
4.93585
4.89576
4.84916
4.79892
4.74613
4.68979
4.62805
4.55945
4.48423
4.39969
4.31143
4.20997
4.10538
3.99368
3.86737
3.73928
3.59801
3.45148
1.40001
1.40001
1.40001
1.40001
1.40001
1.40001
1.40001
1.40001
1.40001
1.40001
1.40001
1.40001
1.40001
1.40001
1.40001
1.40001
1.40001
1.40001
1.40001
1.40001
1.40001
1.40001
1.40001
1.40001
1.40001
1.40001
1.40001
1.40001
1.40001
1.40001
1.40001
1.40001
1.40001
1.40001
1.40001
1.40001
1.40001
1.40001
1.40001
1.40001
1.40001
1.40001
1.40001
1.40001
1.40001
1.40001
1.40001
1.40001
1.40001
1.40001
1.40001
1.40001
1.40001
1.40001
1.40001
1.40478
2.89007
5.00843
5.1929
5.19239
5.19395
5.19288
5.18679
5.18017
5.17448
5.16828
5.16013
5.14951
5.13649
5.1218
5.10382
5.08392
5.06358
5.04344
5.01985
4.99296
4.96123
4.92651
4.88923
4.84714
4.80012
4.75007
4.69723
4.64033
4.57865
4.50972
4.43591
4.35269
4.26904
4.17477
4.07914
3.97757
3.86721
3.75288
3.62358
3.49572
1.40001
1.40001
1.40001
1.40001
1.40001
1.40001
1.40001
1.40001
1.40001
1.40001
1.40001
1.40001
1.40001
1.40001
1.40001
1.40001
1.40001
1.40001
1.40001
1.40001
1.40001
1.40001
1.40001
1.40001
1.40001
1.40001
1.40001
1.40001
1.40001
1.40001
1.40001
1.40001
1.40001
1.40001
1.40001
1.40001
1.40001
1.40001
1.40001
1.40001
1.40001
1.40001
1.40001
1.40001
1.40001
1.40001
1.40001
1.40001
1.40001
1.40001
1.40001
1.40001
1.40001
1.40001
1.40001
1.4
1.54543
3.9094
5.19164
5.18587
5.17704
5.16809
5.16202
5.15507
5.14825
5.14071
5.13129
5.11936
5.10535
5.09045
5.07101
5.04862
5.02632
5.0044
4.97962
4.95287
4.92122
4.88608
4.84694
4.80353
4.75726
4.70827
4.65587
4.59886
4.5382
4.47019
4.39819
4.31684
4.23746
4.14865
4.06031
3.96761
3.86908
3.76216
3.64647
3.53314
1.40001
1.40001
1.40001
1.40001
1.40001
1.40001
1.40001
1.40001
1.40001
1.40001
1.40001
1.40001
1.40001
1.40001
1.40001
1.40001
1.40001
1.40001
1.40001
1.40001
1.40001
1.40001
1.40001
1.40001
1.40001
1.40001
1.40001
1.40001
1.40001
1.40001
1.40001
1.40001
1.40001
1.40001
1.40001
1.40001
1.40001
1.40001
1.40001
1.40001
1.40001
1.40001
1.40001
1.40001
1.40001
1.40001
1.40001
1.40001
1.40001
1.40001
1.40001
1.40001
1.40001
1.40001
1.40001
1.40001
1.40105
2.03854
4.7235
5.198
5.15274
5.14744
5.13956
5.13196
5.12435
5.11557
5.10431
5.09068
5.07485
5.0581
5.03702
5.01214
4.98746
4.96348
4.93767
4.91123
4.88063
4.84589
4.80636
4.76289
4.71794
4.67005
4.61837
4.56192
4.50203
4.43669
4.36772
4.29073
4.21496
4.1313
4.05006
3.96299
3.87113
3.77109
3.66952
3.56522
1.40001
1.40001
1.40001
1.40001
1.40001
1.40001
1.40001
1.40001
1.40001
1.40001
1.40001
1.40001
1.40001
1.40001
1.40001
1.40001
1.40001
1.40001
1.40001
1.40001
1.40001
1.40001
1.40001
1.40001
1.40001
1.40001
1.40001
1.40001
1.40001
1.40001
1.40001
1.40001
1.40001
1.40001
1.40001
1.40001
1.40001
1.40001
1.40001
1.40001
1.40001
1.40001
1.40001
1.40001
1.40001
1.40001
1.40001
1.40001
1.40001
1.40001
1.40001
1.40001
1.40001
1.40001
1.40001
1.40001
1.40001
1.42372
3.03418
5.03702
5.12648
5.12155
5.11935
5.11306
5.10516
5.09537
5.08258
5.06748
5.05003
5.03069
5.00816
4.98043
4.95252
4.92574
4.89872
4.87217
4.84187
4.80726
4.7692
4.7273
4.6833
4.63645
4.58606
4.5299
4.47055
4.40789
4.34293
4.2723
4.20014
4.12271
4.0462
3.9622
3.8754
3.78205
3.69079
3.59301
1.40001
1.40001
1.40001
1.40001
1.40001
1.40001
1.40001
1.40001
1.40001
1.40001
1.40001
1.40001
1.40001
1.40001
1.40001
1.40001
1.40001
1.40001
1.40001
1.40001
1.40001
1.40001
1.40001
1.40001
1.40001
1.40001
1.40001
1.40001
1.40001
1.40001
1.40001
1.40001
1.40001
1.40001
1.40001
1.40001
1.40001
1.40001
1.40001
1.40001
1.40001
1.40001
1.40001
1.40001
1.40001
1.40001
1.40001
1.40001
1.40001
1.40001
1.40001
1.40001
1.40001
1.40001
1.40001
1.40001
1.40001
1.40005
1.56326
3.74039
5.08656
5.12571
5.11529
5.10882
5.09804
5.08333
5.06719
5.04921
5.0294
5.0082
4.98471
4.95552
4.92466
4.89495
4.86595
4.83793
4.80655
4.77075
4.73434
4.69374
4.65132
4.60576
4.55724
4.50237
4.44362
4.38308
4.32141
4.25673
4.18918
4.11848
4.04412
3.96393
3.88221
3.79521
3.71071
3.61921
1.40001
1.40001
1.40001
1.40001
1.40001
1.40001
1.40001
1.40001
1.40001
1.40001
1.40001
1.40001
1.40001
1.40001
1.40001
1.40001
1.40001
1.40001
1.40001
1.40001
1.40001
1.40001
1.40001
1.40001
1.40001
1.40001
1.40001
1.40001
1.40001
1.40001
1.40001
1.40001
1.40001
1.40001
1.40001
1.40001
1.40001
1.40001
1.40001
1.40001
1.40001
1.40001
1.40001
1.40001
1.40001
1.40001
1.40001
1.40001
1.40001
1.40001
1.40001
1.40001
1.40001
1.40001
1.40001
1.40001
1.40001
1.40001
1.4014
1.77911
4.43259
5.1613
5.13052
5.11211
5.0886
5.06733
5.04693
5.02774
5.00623
4.98387
4.9606
4.9321
4.90004
4.86787
4.83837
4.80901
4.77673
4.74055
4.7025
4.66408
4.62208
4.57749
4.53042
4.47862
4.42166
4.36351
4.30483
4.24472
4.18164
4.11577
4.04346
3.96784
3.89046
3.80964
3.73021
3.64504
1.40001
1.40001
1.40001
1.40001
1.40001
1.40001
1.40001
1.40001
1.40001
1.40001
1.40001
1.40001
1.40001
1.40001
1.40001
1.40001
1.40001
1.40001
1.40001
1.40001
1.40001
1.40001
1.40001
1.40001
1.40001
1.40001
1.40001
1.40001
1.40001
1.40001
1.40001
1.40001
1.40001
1.40001
1.40001
1.40001
1.40001
1.40001
1.40001
1.40001
1.40001
1.40001
1.40001
1.40001
1.40001
1.40001
1.40001
1.40001
1.40001
1.40001
1.40001
1.40001
1.40001
1.40001
1.40001
1.40001
1.40001
1.40001
1.40001
1.40779
2.49292
4.87692
5.10865
5.07677
5.05534
5.03617
5.01946
5.00254
4.98315
4.96121
4.93776
4.91097
4.88094
4.8488
4.8171
4.78721
4.754
4.71703
4.67841
4.63896
4.59764
4.55305
4.50658
4.45728
4.40318
4.34776
4.29226
4.2352
4.17551
4.11283
4.0432
3.97251
3.89888
3.8239
3.74915
3.67
1.40001
1.40001
1.40001
1.40001
1.40001
1.40001
1.40001
1.40001
1.40001
1.40001
1.40001
1.40001
1.40001
1.40001
1.40001
1.40001
1.40001
1.40001
1.40001
1.40001
1.40001
1.40001
1.40001
1.40001
1.40001
1.40001
1.40001
1.40001
1.40001
1.40001
1.40001
1.40001
1.40001
1.40001
1.40001
1.40001
1.40001
1.40001
1.40001
1.40001
1.40001
1.40001
1.40001
1.40001
1.40001
1.40001
1.40001
1.40001
1.40001
1.40001
1.40001
1.40001
1.40001
1.40001
1.40001
1.40001
1.40001
1.40001
1.40001
1.40002
1.46902
3.15191
4.98162
5.04246
5.02576
5.02073
5.00953
4.99414
4.97538
4.95313
4.92791
4.90036
4.87005
4.83864
4.80584
4.77289
4.74019
4.70243
4.66226
4.62142
4.57857
4.53365
4.48698
4.43833
4.38676
4.33413
4.28163
4.22704
4.17042
4.11027
4.04406
3.97802
3.90794
3.83784
3.76757
3.69361
1.40001
1.40001
1.40001
1.40001
1.40001
1.40001
1.40001
1.40001
1.40001
1.40001
1.40001
1.40001
1.40001
1.40001
1.40001
1.40001
1.40001
1.40001
1.40001
1.40001
1.40001
1.40001
1.40001
1.40001
1.40001
1.40001
1.40001
1.40001
1.40001
1.40001
1.40001
1.40001
1.40001
1.40001
1.40001
1.40001
1.40001
1.40001
1.40001
1.40001
1.40001
1.40001
1.40001
1.40001
1.40001
1.40001
1.40001
1.40001
1.40001
1.40001
1.40001
1.40001
1.40001
1.40001
1.40001
1.40001
1.40001
1.40001
1.40001
1.40001
1.40034
1.58686
3.5485
4.98067
5.00942
5.00482
4.99773
4.98434
4.96661
4.94474
4.91954
4.89184
4.86257
4.83189
4.79971
4.765
4.72977
4.69285
4.65236
4.61003
4.56586
4.52012
4.47275
4.42371
4.37331
4.32264
4.27172
4.21894
4.1653
4.10757
4.0455
3.98342
3.91709
3.85108
3.7851
3.71535
1.40001
1.40001
1.40001
1.40001
1.40001
1.40001
1.40001
1.40001
1.40001
1.40001
1.40001
1.40001
1.40001
1.40001
1.40001
1.40001
1.40001
1.40001
1.40001
1.40001
1.40001
1.40001
1.40001
1.40001
1.40001
1.40001
1.40001
1.40001
1.40001
1.40001
1.40001
1.40001
1.40001
1.40001
1.40001
1.40001
1.40001
1.40001
1.40001
1.40001
1.40001
1.40001
1.40001
1.40001
1.40001
1.40001
1.40001
1.40001
1.40001
1.40001
1.40001
1.40001
1.40001
1.40001
1.40001
1.40001
1.40001
1.40001
1.40001
1.40001
1.40001
1.40196
1.70692
3.85881
5.00678
5.00631
4.99077
4.97428
4.95509
4.93319
4.90933
4.88364
4.85604
4.82615
4.79422
4.75975
4.72389
4.68687
4.64719
4.6048
4.56011
4.51365
4.46569
4.41632
4.36603
4.31575
4.26479
4.21261
4.16065
4.10488
4.0467
3.98832
3.92595
3.86365
3.80164
3.73553
1.40001
1.40001
1.40001
1.40001
1.40001
1.40001
1.40001
1.40001
1.40001
1.40001
1.40001
1.40001
1.40001
1.40001
1.40001
1.40001
1.40001
1.40001
1.40001
1.40001
1.40001
1.40001
1.40001
1.40001
1.40001
1.40001
1.40001
1.40001
1.40001
1.40001
1.40001
1.40001
1.40001
1.40001
1.40001
1.40001
1.40001
1.40001
1.40001
1.40001
1.40001
1.40001
1.40001
1.40001
1.40001
1.40001
1.40001
1.40001
1.40001
1.40001
1.40001
1.40001
1.40001
1.40001
1.40001
1.40001
1.40001
1.40001
1.40001
1.40001
1.40001
1.40001
1.40515
1.83575
4.13535
5.00829
4.99503
4.97251
4.94883
4.92483
4.8996
4.87401
4.8467
4.8175
4.78638
4.75301
4.71799
4.68125
4.64209
4.60027
4.5561
4.51008
4.46262
4.41377
4.3639
4.31372
4.26236
4.21035
4.15893
4.10422
4.04904
3.99383
3.93474
3.87563
3.81692
3.75417
1.40001
1.40001
1.40001
1.40001
1.40001
1.40001
1.40001
1.40001
1.40001
1.40001
1.40001
1.40001
1.40001
1.40001
1.40001
1.40001
1.40001
1.40001
1.40001
1.40001
1.40001
1.40001
1.40001
1.40001
1.40001
1.40001
1.40001
1.40001
1.40001
1.40001
1.40001
1.40001
1.40001
1.40001
1.40001
1.40001
1.40001
1.40001
1.40001
1.40001
1.40001
1.40001
1.40001
1.40001
1.40001
1.40001
1.40001
1.40001
1.40001
1.40001
1.40001
1.40001
1.40001
1.40001
1.40001
1.40001
1.40001
1.40001
1.40001
1.40001
1.40001
1.40001
1.40002
1.41027
1.98009
4.33456
5.0133
4.98885
4.96136
4.9323
4.90377
4.87363
4.84235
4.81121
4.77896
4.74523
4.71063
4.67482
4.63693
4.59666
4.55398
4.50917
4.46277
4.41489
4.3659
4.31619
4.26497
4.21338
4.16244
4.10912
4.05611
4.00278
3.94558
3.88858
3.832
3.77218
1.40001
1.40001
1.40001
1.40001
1.40001
1.40001
1.40001
1.40001
1.40001
1.40001
1.40001
1.40001
1.40001
1.40001
1.40001
1.40001
1.40001
1.40001
1.40001
1.40001
1.40001
1.40001
1.40001
1.40001
1.40001
1.40001
1.40001
1.40001
1.40001
1.40001
1.40001
1.40001
1.40001
1.40001
1.40001
1.40001
1.40001
1.40001
1.40001
1.40001
1.40001
1.40001
1.40001
1.40001
1.40001
1.40001
1.40001
1.40001
1.40001
1.40001
1.40001
1.40001
1.40001
1.40001
1.40001
1.40001
1.40001
1.40001
1.40001
1.40001
1.40001
1.40001
1.40001
1.40003
1.41816
2.11677
4.48398
5.01381
4.98751
4.95436
4.91851
4.8824
4.84812
4.81329
4.77726
4.74112
4.7054
4.66926
4.63169
4.59223
4.55069
4.50718
4.46226
4.41609
4.36871
4.32033
4.27044
4.22007
4.17024
4.11884
4.06714
4.01484
3.95884
3.90307
3.84767
3.79014
1.40001
1.40001
1.40001
1.40001
1.40001
1.40001
1.40001
1.40001
1.40001
1.40001
1.40001
1.40001
1.40001
1.40001
1.40001
1.40001
1.40001
1.40001
1.40001
1.40001
1.40001
1.40001
1.40001
1.40001
1.40001
1.40001
1.40001
1.40001
1.40001
1.40001
1.40001
1.40001
1.40001
1.40001
1.40001
1.40001
1.40001
1.40001
1.40001
1.40001
1.40001