/*--------------------------------*- C++ -*----------------------------------*\
  =========                 |
  \\      /  F ield         | OpenFOAM: The Open Source CFD Toolbox
   \\    /   O peration     | Website:  https://openfoam.org
    \\  /    A nd           | Version:  7
     \\/     M anipulation  |
\*---------------------------------------------------------------------------*/
FoamFile
{
    version     2.0;
    format      ascii;
    class       volScalarField;
    location    "4.8";
    object      T;
}
// * * * * * * * * * * * * * * * * * * * * * * * * * * * * * * * * * * * * * //

dimensions      [0 0 0 1 0 0 0];

internalField   nonuniform List<scalar> 
19968
(
1
1
1
1
1
1
1
1
1
1
1
1
1
1
1
1
1
1
1
1
1
1
1
1
1
1
1
1
1
1
1
1
1
1
1
1
1
1
1
1
1
1
1
1
1
1
1
1
1.26127
2.45339
2.69343
2.69263
2.69469
2.69804
2.70325
2.70962
2.71585
2.72081
2.72412
2.72627
2.72819
2.73067
2.73418
2.73865
2.74357
2.7482
2.75194
2.7546
2.7566
2.75863
2.76118
2.76432
2.76772
2.77084
2.77334
2.77529
2.77707
2.77905
2.78138
2.78397
2.78661
2.78909
2.79129
2.79316
2.79472
2.796
2.79704
2.79793
2.79877
2.79966
2.80067
2.80179
2.80292
2.80394
2.8047
2.80529
1
1
1
1
1
1
1
1
1
1
1
1
1
1
1
1
1
1
1
1
1
1
1
1
1
1
1
1
1
1
1
1
1
1
1
1
1
1
1
1
1
1
1
1
1
1
1
1
1.24717
2.44557
2.69269
2.69226
2.69438
2.69805
2.70344
2.70978
2.71583
2.7206
2.72381
2.72592
2.72786
2.73037
2.73391
2.73841
2.74335
2.74799
2.75172
2.75437
2.75639
2.75844
2.76101
2.76417
2.76758
2.7707
2.77319
2.77512
2.77687
2.77879
2.78106
2.7836
2.78621
2.7887
2.79091
2.79279
2.79434
2.79559
2.79662
2.79751
2.79838
2.79929
2.80031
2.80141
2.8025
2.80347
2.80417
2.8047
1
1
1
1
1
1
1
1
1
1
1
1
1
1
1
1
1
1
1
1
1
1
1
1
1
1
1
1
1
1
1
1
1
1
1
1
1
1
1
1
1
1
1
1
1
1
1
1
1.21481
2.42651
2.69137
2.69112
2.69388
2.69804
2.70363
2.70979
2.71548
2.71989
2.72291
2.725
2.72705
2.7297
2.73338
2.73795
2.7429
2.7475
2.75119
2.75384
2.75589
2.75799
2.76061
2.76379
2.76721
2.77033
2.77284
2.77478
2.77651
2.77838
2.78055
2.783
2.78556
2.78804
2.79027
2.79215
2.79369
2.79493
2.79595
2.79688
2.79778
2.79873
2.79975
2.8008
2.80183
2.80272
2.80336
2.80382
1
1
1
1
1
1
1
1
1
1
1
1
1
1
1
1
1
1
1
1
1
1
1
1
1
1
1
1
1
1
1
1
1
1
1
1
1
1
1
1
1
1
1
1
1
1
1
1
1.16821
2.39641
2.68834
2.69002
2.69401
2.69863
2.7041
2.70978
2.71483
2.71878
2.7216
2.72374
2.72602
2.72893
2.73281
2.7374
2.74228
2.74678
2.7504
2.75305
2.75518
2.75735
2.76002
2.76322
2.76663
2.76975
2.77226
2.77422
2.77593
2.77772
2.77979
2.78213
2.78462
2.78706
2.78928
2.79116
2.79267
2.79387
2.79489
2.79583
2.79677
2.79776
2.79877
2.79977
2.80071
2.80149
2.80205
2.80242
1
1
1
1
1
1
1
1
1
1
1
1
1
1
1
1
1
1
1
1
1
1
1
1
1
1
1
1
1
1
1
1
1
1
1
1
1
1
1
1
1
1
1
1
1
1
1
1
1.10483
2.3549
2.68481
2.68918
2.6944
2.69936
2.70447
2.70953
2.71396
2.7175
2.72024
2.72257
2.72518
2.7284
2.73241
2.73693
2.74164
2.74595
2.74948
2.75216
2.7544
2.75668
2.7594
2.76258
2.76592
2.76899
2.77151
2.77349
2.7752
2.77695
2.77891
2.78113
2.78353
2.78592
2.78811
2.78998
2.79147
2.79267
2.79368
2.79463
2.79558
2.79654
2.79748
2.79833
2.79907
2.79965
2.80005
2.80028
1
1
1
1
1
1
1
1
1
1
1
1
1
1
1
1
1
1
1
1
1
1
1
1
1
1
1
1
1
1
1
1
1
1
1
1
1
1
1
1
1
1
1
1
1
1
1
1
1.00379
2.28651
2.68257
2.68992
2.69491
2.69999
2.70465
2.70909
2.71295
2.71623
2.71912
2.72184
2.72492
2.72843
2.73247
2.73678
2.74112
2.74506
2.74837
2.751
2.75334
2.75572
2.75845
2.76151
2.76467
2.76759
2.77004
2.77202
2.77373
2.77544
2.77731
2.77942
2.78169
2.784
2.78614
2.78799
2.7895
2.79072
2.79178
2.79278
2.79381
2.79483
2.79577
2.79655
2.79713
2.79753
2.79777
2.79787
1
1
1
1
1
1
1
1
1
1
1
1
1
1
1
1
1
1
1
1
1
1
1
1
1
1
1
1
1
1
1
1
1
1
1
1
1
1
1
1
1
1
1
1
1
1
1
1
1.00001
2.19521
2.67786
2.6882
2.69256
2.69757
2.70196
2.7061
2.70976
2.71306
2.71624
2.7194
2.72289
2.72668
2.73074
2.73482
2.73877
2.74233
2.74546
2.74817
2.75076
2.7534
2.75626
2.75926
2.76226
2.76503
2.76744
2.76947
2.77128
2.77305
2.77492
2.77696
2.77914
2.78136
2.78346
2.78529
2.78681
2.78806
2.78915
2.79022
2.7913
2.79236
2.79329
2.79398
2.79441
2.79464
2.79472
2.79473
1
1
1
1
1
1
1
1
1
1
1
1
1
1
1
1
1
1
1
1
1
1
1
1
1
1
1
1
1
1
1
1
1
1
1
1
1
1
1
1
1
1
1
1
1
1
1
1
1
2.06631
2.66741
2.68491
2.6884
2.69309
2.69748
2.70197
2.70613
2.70995
2.71358
2.71706
2.72066
2.72444
2.72832
2.73214
2.73581
2.73918
2.74228
2.74511
2.74797
2.75086
2.75385
2.75677
2.75956
2.76214
2.76446
2.76653
2.76842
2.77026
2.77213
2.77409
2.77617
2.77829
2.78033
2.78213
2.78364
2.78488
2.78598
2.78704
2.78813
2.78919
2.7901
2.79072
2.79103
2.79113
2.79107
2.79103
1
1
1
1
1
1
1
1
1
1
1
1
1
1
1
1
1
1
1
1
1
1
1
1
1
1
1
1
1
1
1
1
1
1
1
1
1
1
1
1
1
1
1
1
1
1
1
1
1
1.89231
2.63781
2.67769
2.68137
2.68622
2.69092
2.6959
2.70073
2.70529
2.70953
2.71345
2.71715
2.72079
2.7244
2.72799
2.73147
2.73478
2.73794
2.74092
2.74398
2.74707
2.75013
2.75296
2.75556
2.75797
2.76023
2.76234
2.76433
2.76625
2.76814
2.77006
2.77205
2.77409
2.77605
2.7778
2.77926
2.78048
2.78156
2.78263
2.78374
2.78482
2.78574
2.78636
2.78663
2.7867
2.78657
2.78655
1
1
1
1
1
1
1
1
1
1
1
1
1
1
1
1
1
1
1
1
1
1
1
1
1
1
1
1
1
1
1
1
1
1
1
1
1
1
1
1
1
1
1
1
1
1
1
1
1
1.66231
2.57992
2.67145
2.67558
2.68027
2.68472
2.68959
2.69474
2.69989
2.70466
2.70896
2.71274
2.7162
2.71954
2.72295
2.72635
2.72966
2.73294
2.73607
2.73928
2.74248
2.74554
2.74831
2.75075
2.75299
2.75513
2.7572
2.75918
2.76109
2.76296
2.76484
2.76678
2.76876
2.77068
2.77239
2.77381
2.775
2.77605
2.77707
2.77812
2.77912
2.77997
2.78055
2.7808
2.78089
2.78074
2.78076
1
1
1
1
1
1
1
1
1
1
1
1
1
1
1
1
1
1
1
1
1
1
1
1
1
1
1
1
1
1
1
1
1
1
1
1
1
1
1
1
1
1
1
1
1
1
1
1
1
1.34896
2.46891
2.67175
2.67177
2.67649
2.67999
2.68424
2.68913
2.69434
2.69927
2.70373
2.70756
2.7109
2.71406
2.71736
2.7207
2.72397
2.72729
2.7305
2.73375
2.73702
2.74008
2.74286
2.74525
2.74742
2.74947
2.75147
2.75339
2.75522
2.75699
2.75873
2.7605
2.76227
2.76396
2.76542
2.76663
2.76762
2.76852
2.76943
2.77038
2.77133
2.77219
2.77284
2.77323
2.77347
2.77345
2.77359
1
1
1
1
1
1
1
1
1
1
1
1
1
1
1
1
1
1
1
1
1
1
1
1
1
1
1
1
1
1
1
1
1
1
1
1
1
1
1
1
1
1
1
1
1
1
1
1
1
1.01333
2.28313
2.67724
2.67677
2.67841
2.6808
2.68382
2.6874
2.69139
2.6954
2.69924
2.70276
2.70581
2.70861
2.71152
2.7145
2.71744
2.72049
2.72351
2.72654
2.72968
2.73266
2.73543
2.73781
2.73994
2.74192
2.74384
2.74568
2.74744
2.74915
2.75084
2.75253
2.7542
2.75574
2.75707
2.75816
2.75905
2.75983
2.76056
2.76123
2.76183
2.7623
2.7626
2.76275
2.76287
2.76284
2.763
1
1
1
1
1
1
1
1
1
1
1
1
1
1
1
1
1
1
1
1
1
1
1
1
1
1
1
1
1
1
1
1
1
1
1
1
1
1
1
1
1
1
1
1
1
1
1
1
1
1.00002
1.99542
2.64327
2.66313
2.66734
2.67211
2.67617
2.67994
2.6836
2.68715
2.69061
2.69396
2.69703
2.69981
2.70257
2.70539
2.70813
2.71095
2.71381
2.71667
2.71969
2.72271
2.72553
2.72804
2.7302
2.73216
2.73397
2.73569
2.73734
2.73894
2.74053
2.74208
2.74354
2.74479
2.74577
2.74647
2.74691
2.74719
2.74736
2.74747
2.7476
2.7478
2.74814
2.74842
2.74868
2.74868
2.74886
1
1
1
1
1
1
1
1
1
1
1
1
1
1
1
1
1
1
1
1
1
1
1
1
1
1
1
1
1
1
1
1
1
1
1
1
1
1
1
1
1
1
1
1
1
1
1
1
1
1
1.51914
2.50674
2.64722
2.65529
2.6632
2.6681
2.67237
2.67627
2.67997
2.68352
2.68697
2.69021
2.69311
2.69578
2.69836
2.70074
2.70307
2.70547
2.70793
2.71052
2.71323
2.71582
2.71818
2.72016
2.72186
2.72334
2.72468
2.72596
2.72718
2.72842
2.72966
2.73078
2.73164
2.73222
2.73249
2.7325
2.73236
2.73217
2.73194
2.73158
2.73102
2.73028
2.72898
2.72702
2.72458
2.72259
1
1
1
1
1
1
1
1
1
1
1
1
1
1
1
1
1
1
1
1
1
1
1
1
1
1
1
1
1
1
1
1
1
1
1
1
1
1
1
1
1
1
1
1
1
1
1
1
1
1
1.02491
2.23663
2.65491
2.6541
2.65625
2.65998
2.66368
2.66701
2.67022
2.67351
2.67694
2.68041
2.68359
2.6863
2.68868
2.69077
2.69273
2.69477
2.69693
2.6991
2.70132
2.70353
2.70555
2.70727
2.70868
2.70988
2.71091
2.71161
2.71226
2.71297
2.71373
2.71437
2.71462
2.71441
2.71373
2.71261
2.71113
2.70933
2.70706
2.70419
2.70085
2.69732
2.6942
2.69109
2.68897
2.68795
1
1
1
1
1
1
1
1
1
1
1
1
1
1
1
1
1
1
1
1
1
1
1
1
1
1
1
1
1
1
1
1
1
1
1
1
1
1
1
1
1
1
1
1
1
1
1
1
1
1
1.00004
1.72718
2.54667
2.63397
2.64082
2.64655
2.6502
2.65339
2.65657
2.66001
2.66376
2.66763
2.67124
2.67425
2.67666
2.67868
2.6806
2.68264
2.68483
2.68695
2.68878
2.69034
2.69165
2.69277
2.69374
2.69468
2.69531
2.6953
2.6952
2.69505
2.69492
2.69464
2.69393
2.69254
2.69038
2.68755
2.68424
2.68056
2.67645
2.67178
2.66644
2.66076
2.65544
2.65362
2.6513
2.66627
1
1
1
1
1
1
1
1
1
1
1
1
1
1
1
1
1
1
1
1
1
1
1
1
1
1
1
1
1
1
1
1
1
1
1
1
1
1
1
1
1
1
1
1
1
1
1
1
1
1
1
1.06528
2.31641
2.6362
2.63556
2.63837
2.64148
2.64433
2.64678
2.64931
2.6524
2.65603
2.65969
2.66278
2.66504
2.66681
2.66855
2.67057
2.67291
2.67522
2.67681
2.67783
2.67848
2.67893
2.6794
2.67981
2.67984
2.67947
2.67867
2.67761
2.6764
2.67495
2.67303
2.67031
2.66655
2.66169
2.65578
2.64891
2.64057
2.63012
2.61554
2.59525
2.56522
2.5227
2.45982
2.33301
1
1
1
1
1
1
1
1
1
1
1
1
1
1
1
1
1
1
1
1
1
1
1
1
1
1
1
1
1
1
1
1
1
1
1
1
1
1
1
1
1
1
1
1
1
1
1
1
1
1
1
1.00032
1.97273
2.59744
2.61735
2.62312
2.62738
2.63121
2.63423
2.63701
2.64023
2.64409
2.64805
2.65136
2.65366
2.65524
2.65665
2.65847
2.66088
2.66347
2.66531
2.66635
2.66669
2.66658
2.66637
2.66619
2.66586
2.66518
2.66396
2.6622
2.65996
2.65727
2.65399
2.64988
2.64454
2.63776
2.62919
2.61901
2.60624
2.59043
2.56833
2.5383
2.49363
2.43569
2.32392
2.1624
1
1
1
1
1
1
1
1
1
1
1
1
1
1
1
1
1
1
1
1
1
1
1
1
1
1
1
1
1
1
1
1
1
1
1
1
1
1
1
1
1
1
1
1
1
1
1
1
1
1
1
0.999999
1.35699
2.41983
2.59848
2.60926
2.61513
2.61876
2.62154
2.62419
2.62742
2.6315
2.63594
2.63974
2.64235
2.64391
2.64508
2.64658
2.64871
2.6512
2.65307
2.65418
2.65421
2.65372
2.65293
2.6522
2.65141
2.6503
2.64862
2.64621
2.64302
2.63906
2.63423
2.62849
2.62133
2.61258
2.60154
2.58835
2.57195
2.55165
2.52497
2.48853
2.43989
2.36702
2.26067
2.12964
1
1
1
1
1
1
1
1
1
1
1
1
1
1
1
1
1
1
1
1
1
1
1
1
1
1
1
1
1
1
1
1
1
1
1
1
1
1
1
1
1
1
1
1
1
1
1
1
1
1
1
1
1.01217
2.10467
2.59972
2.60013
2.60153
2.60421
2.60717
2.61015
2.61363
2.6178
2.62226
2.62613
2.62913
2.631
2.6323
2.63365
2.63549
2.63754
2.63947
2.64062
2.64054
2.6398
2.63866
2.63746
2.63614
2.63453
2.63232
2.62935
2.62539
2.62043
2.61426
2.60696
2.59808
2.58748
2.5744
2.55877
2.5399
2.51672
2.4877
2.4493
2.39985
2.33252
2.24875
2.14529
1
1
1
1
1
1
1
1
1
1
1
1
1
1
1
1
1
1
1
1
1
1
1
1
1
1
1
1
1
1
1
1
1
1
1
1
1
1
1
1
1
1
1
1
1
1
1
1
1
1
1
1
1.00001
1.44875
2.44608
2.58575
2.58995
2.59348
2.59554
2.59807
2.60126
2.60512
2.60891
2.6124
2.61545
2.61744
2.61881
2.6201
2.62167
2.62347
2.62522
2.62617
2.62594
2.62503
2.62369
2.62221
2.62052
2.61847
2.6157
2.61209
2.60739
2.60163
2.59456
2.58617
2.57604
2.56391
2.54926
2.53188
2.51149
2.48707
2.45749
2.42015
2.37386
2.3177
2.2525
2.17051
1
1
1
1
1
1
1
1
1
1
1
1
1
1
1
1
1
1
1
1
1
1
1
1
1
1
1
1
1
1
1
1
1
1
1
1
1
1
1
1
1
1
1
1
1
1
1
1
1
1
1
1
1
1.01939
2.11504
2.58372
2.58382
2.58391
2.58476
2.58706
2.5904
2.5945
2.59788
2.60063
2.60281
2.60399
2.60468
2.60549
2.60668
2.60827
2.60993
2.61091
2.61066
2.60967
2.60809
2.60631
2.60431
2.60196
2.59878
2.59458
2.58915
2.58265
2.57492
2.56586
2.55503
2.54206
2.52653
2.50827
2.48726
2.46267
2.43387
2.3993
2.35787
2.31118
2.25815
2.19343
1
1
1
1
1
1
1
1
1
1
1
1
1
1
1
1
1
1
1
1
1
1
1
1
1
1
1
1
1
1
1
1
1
1
1
1
1
1
1
1
1
1
1
1
1
1
1
1
1
1
1
1
1
1.00002
1.39346
2.41054
2.57316
2.57324
2.57593
2.57843
2.58101
2.58405
2.58678
2.58923
2.59086
2.59123
2.59111
2.59119
2.5916
2.59253
2.59377
2.59469
2.5945
2.59363
2.59197
2.58986
2.5875
2.5849
2.58155
2.57702
2.57105
2.56396
2.55583
2.5465
2.53545
2.52227
2.5066
2.48821
2.46746
2.44317
2.41584
2.38457
2.34825
2.3075
2.26275
2.21066
1
1
1
1
1
1
1
1
1
1
1
1
1
1
1
1
1
1
1
1
1
1
1
1
1
1
1
1
1
1
1
1
1
1
1
1
1
1
1
1
1
1
1
1
1
1
1
1
1
1
1
1
1
1
1.01352
2.02956
2.55624
2.564
2.56547
2.56833
2.5712
2.57458
2.57725
2.5791
2.57987
2.57964
2.57889
2.5781
2.57756
2.57768
2.57813
2.57869
2.5785
2.57771
2.5759
2.57327
2.5703
2.56725
2.56378
2.5592
2.55303
2.54568
2.53735
2.52787
2.51674
2.50365
2.48836
2.4705
2.45083
2.42743
2.40211
2.37422
2.34171
2.30668
2.26823
2.22552
1
1
1
1
1
1
1
1
1
1
1
1
1
1
1
1
1
1
1
1
1
1
1
1
1
1
1
1
1
1
1
1
1
1
1
1
1
1
1
1
1
1
1
1
1
1
1
1
1
1
1
1
1
1
1.00001
1.20797
2.33766
2.56139
2.55718
2.55855
2.56025
2.56315
2.56583
2.56762
2.56806
2.56771
2.56682
2.56561
2.56444
2.56373
2.56332
2.56313
2.56265
2.56168
2.55963
2.55661
2.55303
2.54943
2.54574
2.54114
2.53509
2.52789
2.51972
2.51032
2.49933
2.48646
2.47176
2.4546
2.43621
2.41438
2.3914
2.36631
2.33722
2.30717
2.27299
2.23666
1
1
1
1
1
1
1
1
1
1
1
1
1
1
1
1
1
1
1
1
1
1
1
1
1
1
1
1
1
1
1
1
1
1
1
1
1
1
1
1
1
1
1
1
1
1
1
1
1
1
1
1
1
1
1
1.00301
1.83829
2.49466
2.5345
2.54077
2.54574
2.54998
2.55234
2.55405
2.55473
2.55454
2.55382
2.55263
2.55139
2.55048
2.54954
2.5486
2.54759
2.54627
2.54385
2.54048
2.5363
2.53203
2.52781
2.52297
2.51712
2.51033
2.50248
2.49327
2.4826
2.46999
2.45601
2.43958
2.42264
2.40279
2.3821
2.35951
2.33422
2.30754
2.27657
2.24527
1
1
1
1
1
1
1
1
1
1
1
1
1
1
1
1
1
1
1
1
1
1
1
1
1
1
1
1
1
1
1
1
1
1
1
1
1
1
1
1
1
1
1
1
1
1
1
1
1
1
1
1
1
1
1
1
1.09556
2.18151
2.53023
2.53282
2.53543
2.53781
2.53987
2.54124
2.54218
2.54234
2.54196
2.54107
2.54
2.53917
2.53786
2.53616
2.53438
2.53232
2.52925
2.52547
2.52081
2.51596
2.51097
2.50564
2.49991
2.49346
2.48587
2.47678
2.46649
2.4543
2.44104
2.42547
2.41001
2.39198
2.37348
2.3534
2.33134
2.30669
2.27924
2.25181
1
1
1
1
1
1
1
1
1
1
1
1
1
1
1
1
1
1
1
1
1
1
1
1
1
1
1
1
1
1
1
1
1
1
1
1
1
1
1
1
1
1
1
1
1
1
1
1
1
1
1
1
1
1
1
1
1.00061
1.40723
2.34553
2.5161
2.5151
2.51969
2.52364
2.52622
2.52785
2.52858
2.52842
2.52794
2.52722
2.52662
2.52545
2.52347
2.52121
2.51863
2.51517
2.51115
2.50625
2.50093
2.49527
2.48943
2.48366
2.47727
2.46975
2.46073
2.45056
2.43895
2.42644
2.41208
2.39787
2.38158
2.36536
2.34729
2.3274
2.30484
2.28127
2.25644
1
1
1
1
1
1
1
1
1
1
1
1
1
1
1
1
1
1
1
1
1
1
1
1
1
1
1
1
1
1
1
1
1
1
1
1
1
1
1
1
1
1
1
1
1
1
1
1
1
1
1
1
1
1
1
1
1
1.01418
1.86641
2.46446
2.49916
2.50492
2.50918
2.51137
2.51288
2.51366
2.51368
2.51356
2.51333
2.51311
2.51252
2.51072
2.50827
2.5054
2.50184
2.49779
2.49275
2.48706
2.48121
2.47517
2.46913
2.46261
2.45512
2.44596
2.43567
2.42439
2.41255
2.39954
2.38627
2.37176
2.35724
2.34052
2.32252
2.30223
2.28153
2.25883
1
1
1
1
1
1
1
1
1
1
1
1
1
1
1
1
1
1
1
1
1
1
1
1
1
1
1
1
1
1
1
1
1
1
1
1
1
1
1
1
1
1
1
1
1
1
1
1
1
1
1
1
1
1
1
1
1
1.00002
1.10764
2.10765
2.48094
2.49889
2.49795
2.4991
2.49947
2.49924
2.49889
2.49856
2.49852
2.49883
2.49887
2.4978
2.49555
2.49262
2.48902
2.48494
2.47978
2.47377
2.46804
2.46195
2.4559
2.44934
2.442
2.43289
2.42245
2.41126
2.39973
2.38766
2.37519
2.36221
2.34846
2.33306
2.31681
2.29868
2.2804
2.25976
1
1
1
1
1
1
1
1
1
1
1
1
1
1
1
1
1
1
1
1
1
1
1
1
1
1
1
1
1
1
1
1
1
1
1
1
1
1
1
1
1
1
1
1
1
1
1
1
1
1
1
1
1
1
1
1
1
1
1.00079
1.25315
2.25945
2.48152
2.48078
2.48225
2.48187
2.48158
2.48133
2.48144
2.48182
2.48295
2.48397
2.48358
2.48194
2.47914
2.47588
2.47193
2.46693
2.46106
2.45511
2.4495
2.44349
2.43708
2.42997
2.42144
2.41123
2.40027
2.38896
2.37738
2.3654
2.35314
2.33963
2.32537
2.31044
2.29422
2.27776
2.25916
1
1
1
1
1
1
1
1
1
1
1
1
1
1
1
1
1
1
1
1
1
1
1
1
1
1
1
1
1
1
1
1
1
1
1
1
1
1
1
1
1
1
1
1
1
1
1
1
1
1
1
1
1
1
1
1
1
1
1
1.00456
1.61978
2.36652
2.45802
2.45521
2.45646
2.45795
2.45965
2.46138
2.46327
2.46555
2.46761
2.46779
2.46703
2.46488
2.46181
2.45832
2.4537
2.44818
2.44253
2.43708
2.43153
2.42538
2.41865
2.41085
2.40138
2.39096
2.38011
2.36879
2.35702
2.3449
2.33149
2.31807
2.30397
2.28926
2.27417
2.25751
1
1
1
1
1
1
1
1
1
1
1
1
1
1
1
1
1
1
1
1
1
1
1
1
1
1
1
1
1
1
1
1
1
1
1
1
1
1
1
1
1
1
1
1
1
1
1
1
1
1
1
1
1
1
1
1
1
1
1
1.00001
1.04173
1.88707
2.41488
2.44298
2.44145
2.44303
2.44431
2.44568
2.44738
2.44943
2.45131
2.45154
2.45093
2.44938
2.44681
2.44351
2.43974
2.43482
2.4296
2.42455
2.41932
2.41371
2.40751
2.40038
2.39187
2.38235
2.37224
2.36131
2.34986
2.33781
2.3247
2.3119
2.29828
2.28455
2.2705
2.25523
1
1
1
1
1
1
1
1
1
1
1
1
1
1
1
1
1
1
1
1
1
1
1
1
1
1
1
1
1
1
1
1
1
1
1
1
1
1
1
1
1
1
1
1
1
1
1
1
1
1
1
1
1
1
1
1
1
1
1
1
1.00016
1.12213
2.01192
2.41114
2.43222
2.43444
2.43576
2.4356
2.43564
2.4358
2.43594
2.43562
2.43472
2.43317
2.43094
2.42783
2.42428
2.4203
2.4158
2.41123
2.40652
2.40153
2.39597
2.38951
2.38196
2.37348
2.36415
2.35383
2.34302
2.33129
2.31876
2.30648
2.29337
2.28037
2.26721
2.25293
1
1
1
1
1
1
1
1
1
1
1
1
1
1
1
1
1
1
1
1
1
1
1
1
1
1
1
1
1
1
1
1
1
1
1
1
1
1
1
1
1
1
1
1
1
1
1
1
1
1
1
1
1
1
1
1
1
1
1
1
1
1.00105
1.20098
2.08912
2.39634
2.42727
2.42655
2.42631
2.42561
2.42452
2.42332
2.42202
2.42041
2.41831
2.41573
2.41256
2.40907
2.40546
2.40159
2.39752
2.39329
2.38881
2.38384
2.37806
2.37133
2.36371
2.35509
2.34546
2.3354
2.32427
2.31261
2.30106
2.28875
2.27651
2.26426
2.25088
1
1
1
1
1
1
1
1
1
1
1
1
1
1
1
1
1
1
1
1
1
1
1
1
1
1
1
1
1
1
1
1
1
1
1
1
1
1
1
1
1
1
1
1
1
1
1
1
1
1
1
1
1
1
1
1
1
1
1
1
1
1
1.00283
1.27978
2.14138
2.38645
2.41003
2.41257
2.41257
2.41211
2.41095
2.40945
2.40748
2.40506
2.4022
2.39885
2.39526
2.39155
2.38773
2.38381
2.37978
2.37556
2.37094
2.36564
2.35951
2.35256
2.34456
2.33568
2.32639
2.31601
2.30548
2.29496
2.28362
2.27232
2.26104
2.24869
1
1
1
1
1
1
1
1
1
1
1
1
1
1
1
1
1
1
1
1
1
1
1
1
1
1
1
1
1
1
1
1
1
1
1
1
1
1
1
1
1
1
1
1
1
1
1
1
1
1
1
1
1
1
1
1
1
1
1
1
1
1
1
1.00574
1.35932
2.17854
2.37327
2.38985
2.39439
2.39593
2.39611
2.39537
2.39394
2.39203
2.38943
2.3862
2.38269
2.37905
2.37528
2.37139
2.3673
2.36292
2.35818
2.35296
2.34714
2.34062
2.33317
2.32504
2.31656
2.30724
2.29775
2.28814
2.2777
2.26735
2.25704
2.24586
1
1
1
1
1
1
1
1
1
1
1
1
1
1
1
1
1
1
1
1
1
1
1
1
1
1
1
1
1
1
1
1
1
1
1
1
1
1
1
1
1
1
1
1
1
1
1
1
1
1
1
1
1
1
1
1
1
1
1
1
1
1
1
1.00001
1.01029
1.42799
2.20653
2.36093
2.3708
2.37436
2.37606
2.37713
2.37717
2.37649
2.3748
2.37241
2.36962
2.36655
2.36316
2.35944
2.35532
2.35076
2.34581
2.34046
2.33464
2.32831
2.32128
2.31373
2.30593
2.29753
2.28891
2.28014
2.2706
2.26116
2.25178
2.24181
1
1
1
1
1
1
1
1
1
1
1
1
1
1
1
1
1
1
1
1
1
1
1
1
1
1
1
1
1
1
1
1
1
1
1
1
1
1
1
1
1
1
1
1
1
1
1
1
1
1
1
1
1
1
1
1
1
1
1
1
1
1
1
1
1.00002
1.01604
1.48737
2.22732
2.35242
2.35274
2.35384
2.355
2.35636
2.35712
2.35694
2.35615
2.3547
2.35259
2.34989
2.34659
2.34277
2.33845
2.33362
2.32835
2.32262
2.31644
2.30971
2.30258
2.29525
2.28745
2.27941
2.27125
2.26251
2.2538
2.24523
2.23637
1
1
1
1
1
1
1
1
1
1
1
1
1
1
1
1
1
1
1
1
1
1
1
1
1
1
1
1
1
1
1
1
1
1
1
1
1
1
1
1
1
1
1
1
1
1
1
1
1
1
1
1
1
1
1
1
1
1
1
1
1
1
1
1
1
1.00004
1.02271
1.55442
2.24368
2.33915
2.33717
2.3369
2.33685
2.3369
2.33696
2.33684
2.33636
2.33536
2.33372
2.33145
2.32855
2.32504
2.32092
2.31619
2.31088
2.30503
2.29866
2.29191
2.28492
2.27751
2.26982
2.26204
2.25394
2.24577
2.23781
2.22977
1
1
1
1
1
1
1
1
1
1
1
1
1
1
1
1
1
1
1
1
1
1
1
1
1
1
1
1
1
1
1
1
1
1
1
1
1
1
1
1
1
1
1
1
1
1
1
1
1
1
1
1
1
1
1
1
1
1
1
1
1
1
1
1
1
1
1.00007
1.03256
1.5856
2.24348
2.32778
2.32585
2.32368
2.32192
2.32039
2.31918
2.31808
2.31681
2.31541
2.31384
2.31189
2.30942
2.30633
2.30258
2.29817
2.29311
2.28745
2.28128
2.27475
2.26779
2.26048
2.253
2.24543
2.23773
2.23011
2.22253
1
1
1
1
1
1
1
1
1
1
1
1
1
1
1
1
1
1
1
1
1
1
1
1
1
1
1
1
1
1
1
1
1
1
1
1
1
1
1
1
1
1
1
1
1
1
1
1
1
1
1
1
1
1
1
1
1
1
1
1
1
1
1
1
1
1
1
1.00013
1.03845
1.58524
2.23384
2.31778
2.31511
2.31204
2.30908
2.30611
2.30328
2.30052
2.29802
2.29588
2.29392
2.29188
2.28955
2.28677
2.28342
2.27939
2.2747
2.26942
2.26363
2.25736
2.25066
2.24377
2.23682
2.22958
2.22239
2.21503
1
1
1
1
1
1
1
1
1
1
1
1
1
1
1
1
1
1
1
1
1
1
1
1
1
1
1
1
1
1
1
1
1
1
1
1
1
1
1
1
1
1
1
1
1
1
1
1
1
1
1
1
1
1
1
1
1
1
1
1
1
1
1
1
1
1
1
1
1.00018
1.0388
1.57997
2.21656
2.30628
2.30427
2.30021
2.2963
2.2921
2.2883
2.28475
2.28137
2.27833
2.27557
2.27294
2.27025
2.26731
2.26398
2.26013
2.25571
2.25087
2.24552
2.23973
2.23375
2.22754
2.22104
2.21426
2.20727
1
1
1
1
1
1
1
1
1
1
1
1
1
1
1
1
1
1
1
1
1
1
1
1
1
1
1
1
1
1
1
1
1
1
1
1
1
1
1
1
1
1
1
1
1
1
1
1
1
1
1
1
1
1
1
1
1
1
1
1
1
1
1
1
1
1
1
1
1
1.00018
1.03789
1.55624
2.1882
2.29372
2.29247
2.2882
2.28398
2.27953
2.27533
2.27122
2.26708
2.26311
2.25941
2.25585
2.25229
2.2487
2.24492
2.24081
2.23649
2.23194
2.22714
2.22193
2.21663
2.21112
2.20504
2.199
1
1
1
1
1
1
1
1
1
1
1
1
1
1
1
1
1
1
1
1
1
1
1
1
1
1
1
1
1
1
1
1
1
1
1
1
1
1
1
1
1
1
1
1
1
1
1
1
1
1
1
1
1
1
1
1
1
1
1
1
1
1
1
1
1
1
1
1
1
1
1.00018
1.0338
1.51486
2.14867
2.27959
2.27964
2.27602
2.27232
2.268
2.26341
2.2588
2.25423
2.24964
2.24504
2.2405
2.23602
2.23167
2.22731
2.22285
2.21829
2.21374
2.20908
2.20441
2.19968
2.19462
2.18923
1
1
1
1
1
1
1
1
1
1
1
1
1
1
1
1
1
1
1
1
1
1
1
1
1
1
1
1
1
1
1
1
1
1
1
1
1
1
1
1
1
1
1
1
1
1
1
1
1
1
1
1
1
1
1
1
1
1
1
1
1
1
1
1
1
1
1
1
1
1
1
1.00015
1.02736
1.45725
2.0939
2.25408
2.2696
2.2648
2.26089
2.25626
2.25149
2.24653
2.2416
2.23674
2.23178
2.22673
2.22168
2.21672
2.2118
2.20689
2.20211
2.19746
2.1927
2.18794
2.18299
2.17804
1
1
1
1
1
1
1
1
1
1
1
1
1
1
1
1
1
1
1
1
1
1
1
1
1
1
1
1
1
1
1
1
1
1
1
1
1
1
1
1
1
1
1
1
1
1
1
1
1
1
1
1
1
1
1
1
1
1
1
1
1
1
1
1
1
1
1
1
1
1
1
1
1.00011
1.0202
1.38631
2.01637
2.22805
2.25687
2.2506
2.24723
2.24358
2.2395
2.23491
2.22987
2.22461
2.21934
2.21421
2.20923
2.20421
2.19909
2.19371
2.18842
2.18301
2.17769
2.17266
2.16746
1
1
1
1
1
1
1
1
1
1
1
1
1
1
1
1
1
1
1
1
1
1
1
1
1
1
1
1
1
1
1
1
1
1
1
1
1
1
1
1
1
1
1
1
1
1
1
1
1
1
1
1
1
1
1
1
1
1
1
1
1
1
1
1
1
1
1
1
1
1
1
1
1
1.00007
1.01317
1.3022
1.90632
2.19483
2.23956
2.23502
2.23309
2.23058
2.22733
2.22346
2.21927
2.21464
2.20961
2.20426
2.19885
2.19341
2.18784
2.18231
2.17658
2.17082
2.16497
2.159
1
1
1
1
1
1
1
1
1
1
1
1
1
1
1
1
1
1
1
1
1
1
1
1
1
1
1
1
1
1
1
1
1
1
1
1
1
1
1
1
1
1
1
1
1
1
1
1
1
1
1
1
1
1
1
1
1
1
1
1
1
1
1
1
1
1
1
1
1
1
1
1
1
1
1.00004
1.00759
1.20883
1.7808
2.1502
2.21859
2.21786
2.21752
2.21575
2.21354
2.21058
2.20713
2.2032
2.19878
2.19391
2.18868
2.18311
2.1773
2.17142
2.16533
2.15924
2.1532
1
1
1
1
1
1
1
1
1
1
1
1
1
1
1
1
1
1
1
1
1
1
1
1
1
1
1
1
1
1
1
1
1
1
1
1
1
1
1
1
1
1
1
1
1
1
1
1
1
1
1
1
1
1
1
1
1
1
1
1
1
1
1
1
1
1
1
1
1
1
1
1
1
1
1
1.00002
1.00366
1.12854
1.64657
2.09897
2.18925
2.20141
2.19806
2.19792
2.19708
2.19547
2.19315
2.19014
2.18646
2.18219
2.17756
2.17243
2.16695
2.16112
2.15508
2.14871
1
1
1
1
1
1
1
1
1
1
1
1
1
1
1
1
1
1
1
1
1
1
1
1
1
1
1
1
1
1
1
1
1
1
1
1
1
1
1
1
1
1
1
1
1
1
1
1
1
1
1
1
1
1
1
1
1
1
1
1
1
1
1
1
1
1
1
1
1
1
1
1
1
1
1
1
1.00001
1.00152
1.06961
1.51608
2.02055
2.15804
2.1891
2.18094
2.18102
2.18062
2.17967
2.1779
2.17552
2.17265
2.16924
2.16527
2.16082
2.15583
2.1502
2.14475
1
1
1
1
1
1
1
1
1
1
1
1
1
1
1
1
1
1
1
1
1
1
1
1
1
1
1
1
1
1
1
1
1
1
1
1
1
1
1
1
1
1
1
1
1
1
1
1
1
1
1
1
1
1
1
1
1
1
1
1
1
1
1
1
1
1
1
1
1
1
1
1
1
1
1
1
1
1
1.00055
1.0338
1.38164
1.90407
2.13028
2.16916
2.16637
2.16473
2.1633
2.16217
2.16064
2.15891
2.15677
2.15438
2.15117
2.14744
2.14315
2.13843
1
1
1
1
1
1
1
1
1
1
1
1
1
1
1
1
1
1
1
1
1
1
1
1
1
1
1
1
1
1
1
1
1
1
1
1
1
1
1
1
1
1
1
1
1
1
1
1
1
1
1
1
1
1
1
1
1
1
1
1
1
1
1
1
1
1
1
1
1
1
1
1
1
1
1
1
1
1
1
1.00017
1.01458
1.246
1.75476
2.08854
2.14573
2.15255
2.1481
2.1462
2.1452
2.14393
2.14283
2.14104
2.13908
2.13619
2.13299
2.12863
1
1
1
1
1
1
1
1
1
1
1
1
1
1
1
1
1
1
1
1
1
1
1
1
1
1
1
1
1
1
1
1
1
1
1
1
1
1
1
1
1
1
1
1
1
1
1
1
1
1
1
1
1
1
1
1
1
1
1
1
1
1
1
1
1
1
1
1
1
1
1
1
1
1
1
1
1
1
1
1
1.00005
1.00544
1.13085
1.59216
2.01558
2.11664
2.13977
2.13501
2.13177
2.13031
2.12881
2.12647
2.12474
2.12156
2.11889
2.1198
1
1
1
1
1
1
1
1
1
1
1
1
1
1
1
1
1
1
1
1
1
1
1
1
1
1
1
1
1
1
1
1
1
1
1
1
1
1
1
1
1
1
1
1
1
1
1
1
1
1
1
1
1
1
1
1
1
1
1
1
1
1
1
1
1
1
1
1
1
1
1
1
1
1
1
1
1
1
1
1
1
1.00001
1.00168
1.05718
1.42999
1.89312
2.08835
2.12544
2.12458
2.12112
2.11688
2.11166
2.10912
2.11169
2.12072
2.14209
1
1
1
1
1
1
1
1
1
1
1
1
1
1
1
1
1
1
1
1
1
1
1
1
1
1
1
1
1
1
1
1
1
1
1
1
1
1
1
1
1
1
1
1
1
1
1
1
1
1
1
1
1
1
1
1
1
1
1
1
1
1
1
1
1
1
1
1
1
1
1
1
1
1
1
1
1
1
1
1
1
1
1
1.00042
1.02155
1.26529
1.73814
2.03706
2.10876
2.10713
2.10267
2.10893
2.12493
2.1589
2.21014
2.26912
1
1
1
1
1
1
1
1
1
1
1
1
1
1
1
1
1
1
1
1
1
1
1
1
1
1
1
1
1
1
1
1
1
1
1
1
1
1
1
1
1
1
1
1
1
1
1
1
1
1
1
1
1
1
1
1
1
1
1
1
1
1
1
1
1
1
1
1
1
1
1
1
1
1
1
1
1
1
1
1
1
1
1
1
1.00009
1.00679
1.13082
1.55011
1.96943
2.05332
2.12919
2.18569
2.2474
2.30173
2.34017
2.36091
1
1
1
1
1
1
1
1
1
1
1
1
1
1
1
1
1
1
1
1
1
1
1
1
1
1
1
1
1
1
1
1
1
1
1
1
1
1
1
1
1
1
1
1
1
1
1
1
1
1
1
1
1
1
1
1
1
1
1
1
1
1
1
1
1
1
1
1
1
1
1
1
1
1
1
1
1
1
1
1
1
1
1
1
1
1.00002
1.00171
1.05005
1.37365
1.83123
2.32236
2.39237
2.41355
2.41457
2.40757
2.39996
1
1
1
1
1
1
1
1
1
1
1
1
1
1
1
1
1
1
1
1
1
1
1
1
1
1
1
1
1
1
1
1
1
1
1
1
1
1
1
1
1
1
1
1
1
1
1
1
1
1
1
1
1
1
1
1
1
1
1
1
1
1
1
1
1
1
1
1
1
1
1
1
1
1
1
1
1
1
1
1
1
1
1
1
1
1
1
1.00033
1.01548
1.86818
2.65972
2.63486
2.59112
2.54859
2.50624
2.46989
1
1
1
1
1
1
1
1
1
1
1
1
1
1
1
1
1
1
1
1
1
1
1
1
1
1
1
1
1
1
1
1
1
1
1
1
1
1
1
1
1
1
1
1
1
1
1
1
1
1
1
1
1
1
1
1
1
1
1
1
1
1
1
1
1
1
1
1
1
1
1
1
1
1
1
1
1
1
1
1
1
1
1
1
1
1
1
1
1.00006
1.98686
2.72525
2.70032
2.66372
2.63131
2.59755
2.5633
1
1
1
1
1
1
1
1
1
1
1
1
1
1
1
1
1
1
1
1
1
1
1
1
1
1
1
1
1
1
1
1
1
1
1
1
1
1
1
1
1
1
1
1
1
1
1
1
1
1
1
1
1
1
1
1
1
1
1
1
1
1
1
1
1
1
1
1
1
1
1
1
1
1
1
1
1
1
1
1
1
1
1
1
1
1
1
1
1
1.85514
2.69878
2.72001
2.7116
2.7003
2.68046
2.6565
1
1
1
1
1
1
1
1
1
1
1
1
1
1
1
1
1
1
1
1
1
1
1
1
1
1
1
1
1
1
1
1
1
1
1
1
1
1
1
1
1
1
1
1
1
1
1
1
1
1
1
1
1
1
1
1
1
1
1
1
1
1
1
1
1
1
1
1
1
1
1
1
1
1
1
1
1
1
1
1
1
1
1
1
1
1
1
1
1
1.60083
2.6003
2.71372
2.71028
2.70623
2.69984
2.69195
1
1
1
1
1
1
1
1
1
1
1
1
1
1
1
1
1
1
1
1
1
1
1
1
1
1
1
1
1
1
1
1
1
1
1
1
1
1
1
1
1
1
1
1
1
1
1
1
1
1
1
1
1
1
1
1
1
1
1
1
1
1
1
1
1
1
1
1
1
1
1
1
1
1
1
1
1
1
1
1
1
1
1
1
1
1
1
1
1
1.30216
2.47122
2.7057
2.70541
2.70432
2.70148
2.69776
1
1
1
1
1
1
1
1
1
1
1
1
1
1
1
1
1
1
1
1
1
1
1
1
1
1
1
1
1
1
1
1
1
1
1
1
1
1
1
1
1
1
1
1
1
1
1
1
1
1
1
1
1
1
1
1
1
1
1
1
1
1
1
1
1
1
1
1
1
1
1
1
1
1
1
1
1
1
1
1
1
1
1
1
1
1
1
1
1
1.0162
2.31607
2.693
2.69959
2.69906
2.69861
2.69689
1
1
1
1
1
1
1
1
1
1
1
1
1
1
1
1
1
1
1
1
1
1
1
1
1
1
1
1
1
1
1
1
1
1
1
1
1
1
1
1
1
1
1
1
1
1
1
1
1
1
1
1
1
1
1
1
1
1
1
1
1
1
1
1
1
1
1
1
1
1
1
1
1
1
1
1
1
1
1
1
1
1
1
1
1
1
1
1
1
1.00002
2.14412
2.67212
2.69882
2.69694
2.69652
2.69539
1
1
1
1
1
1
1
1
1
1
1
1
1
1
1
1
1
1
1
1
1
1
1
1
1
1
1
1
1
1
1
1
1
1
1
1
1
1
1
1
1
1
1
1
1
1
1
1
1
1
1
1
1
1
1
1
1
1
1
1
1
1
1
1
1
1
1
1
1
1
1
1
1
1
1
1
1
1
1
1
1
1
1
1
1
1
1
1
1
1
1.94514
2.65266
2.70167
2.69841
2.69715
2.69519
1
1
1
1
1
1
1
1
1
1
1
1
1
1
1
1
1
1
1
1
1
1
1
1
1
1
1
1
1
1
1
1
1
1
1
1
1
1
1
1
1
1
1
1
1
1
1
1
1
1
1
1
1
1
1
1
1
1
1
1
1
1
1
1
1
1
1
1
1
1
1
1
1
1
1
1
1
1
1
1
1
1
1
1
1
1
1
1
1
1
1.72094
2.61785
2.70216
2.69774
2.69568
2.69315
1
1
1
1
1
1
1
1
1
1
1
1
1
1
1
1
1
1
1
1
1
1
1
1
1
1
1
1
1
1
1
1
1
1
1
1
1
1
1
1
1
1
1
1
1
1
1
1
1
1
1
1
1
1
1
1
1
1
1
1
1
1
1
1
1
1
1
1
1
1
1
1
1
1
1
1
1
1
1
1
1
1
1
1
1
1
1
1
1
1
1.49429
2.55491
2.69987
2.69526
2.69264
2.68998
1
1
1
1
1
1
1
1
1
1
1
1
1
1
1
1
1
1
1
1
1
1
1
1
1
1
1
1
1
1
1
1
1
1
1
1
1
1
1
1
1
1
1
1
1
1
1
1
1
1
1
1
1
1
1
1
1
1
1
1
1
1
1
1
1
1
1
1
1
1
1
1
1
1
1
1
1
1
1
1
1
1
1
1
1
1
1
1
1
1
1.29418
2.47209
2.69724
2.6932
2.69023
2.68774
1
1
1
1
1
1
1
1
1
1
1
1
1
1
1
1
1
1
1
1
1
1
1
1
1
1
1
1
1
1
1
1
1
1
1
1
1
1
1
1
1
1
1
1
1
1
1
1
1
1
1
1
1
1
1
1
1
1
1
1
1
1
1
1
1
1
1
1
1
1
1
1
1
1
1
1
1
1
1
1
1
1
1
1
1
1
1
1
1
1
1.11861
2.37424
2.69261
2.69204
2.68996
2.68867
1
1
1
1
1
1
1
1
1
1
1
1
1
1
1
1
1
1
1
1
1
1
1
1
1
1
1
1
1
1
1
1
1
1
1
1
1
1
1
1
1
1
1
1
1
1
1
1
1
1
1
1
1
1
1
1
1
1
1
1
1
1
1
1
1
1
1
1
1
1
1
1
1
1
1
1
1
1
1
1
1
1
1
1
1
1
1
1
1
1
1.00214
2.26688
2.68827
2.69876
2.69485
2.69337
1
1
1
1
1
1
1
1
1
1
1
1
1
1
1
1
1
1
1
1
1
1
1
1
1
1
1
1
1
1
1
1
1
1
1
1
1
1
1
1
1
1
1
1
1
1
1
1
1
1
1
1
1
1
1
1
1
1
1
1
1
1
1
1
1
1
1
1
1
1
1
1
1
1
1
1
1
1
1
1
1
1
1
1
1
1
1
1
1
1
1
2.15798
2.68444
2.70553
2.7013
2.69973
1
1
1
1
1
1
1
1
1
1
1
1
1
1
1
1
1
1
1
1
1
1
1
1
1
1
1
1
1
1
1
1
1
1
1
1
1
1
1
1
1
1
1
1
1
1
1
1
1
1
1
1
1
1
1
1
1
1
1
1
1
1
1
1
1
1
1
1
1
1
1
1
1
1
1
1
1
1
1
1
1
1
1
1
1
1
1
1
1
1
1
2.06027
2.68278
2.71331
2.70825
2.7058
1
1
1
1
1
1
1
1
1
1
1
1
1
1
1
1
1
1
1
1
1
1
1
1
1
1
1
1
1
1
1
1
1
1
1
1
1
1
1
1
1
1
1
1
1
1
1
1
1
1
1
1
1
1
1
1
1
1
1
1
1
1
1
1
1
1
1
1
1
1
1
1
1
1
1
1
1
1
1
1
1
1
1
1
1
1
1
1
1
1
1
1.97899
2.67939
2.71969
2.71367
2.71016
1
1
1
1
1
1
1
1
1
1
1
1
1
1
1
1
1
1
1
1
1
1
1
1
1
1
1
1
1
1
1
1
1
1
1
1
1
1
1
1
1
1
1
1
1
1
1
1
1
1
1
1
1
1
1
1
1
1
1
1
1
1
1
1
1
1
1
1
1
1
1
1
1
1
1
1
1
1
1
1
1
1
1
1
1
1
1
1
1
1
1
1.91442
2.67355
2.72383
2.71722
2.71283
1
1
1
1
1
1
1
1
1
1
1
1
1
1
1
1
1
1
1
1
1
1
1
1
1
1
1
1
1
1
1
1
1
1
1
1
1
1
1
1
1
1
1
1
1
1
1
1
1
1
1
1
1
1
1
1
1
1
1
1
1
1
1
1
1
1
1
1
1
1
1
1
1
1
1
1
1
1
1
1
1
1
1
1
1
1
1
1
1
1
1
1.86367
2.66492
2.7256
2.71901
2.71436
1
1
1
1
1
1
1
1
1
1
1
1
1
1
1
1
1
1
1
1
1
1
1
1
1
1
1
1
1
1
1
1
1
1
1
1
1
1
1
1
1
1
1
1
1
1
1
1
1
1
1
1
1
1
1
1
1
1
1
1
1
1
1
1
1
1
1
1
1
1
1
1
1
1
1
1
1
1
1
1
1
1
1
1
1
1
1
1
1
1
1
1.81845
2.65455
2.72545
2.71956
2.71558
1
1
1
1
1
1
1
1
1
1
1
1
1
1
1
1
1
1
1
1
1
1
1
1
1
1
1
1
1
1
1
1
1
1
1
1
1
1
1
1
1
1
1
1
1
1
1
1
1
1
1
1
1
1
1
1
1
1
1
1
1
1
1
1
1
1
1
1
1
1
1
1
1
1
1
1
1
1
1
1
1
1
1
1
1
1
1
1
1
1
1
1.78069
2.64308
2.72376
2.7192
2.71646
1
1
1
1
1
1
1
1
1
1
1
1
1
1
1
1
1
1
1
1
1
1
1
1
1
1
1
1
1
1
1
1
1
1
1
1
1
1
1
1
1
1
1
1
1
1
1
1
1
1
1
1
1
1
1
1
1
1
1
1
1
1
1
1
1
1
1
1
1
1
1
1
1
1
1
1
1
1
1
1
1
1
1
1
1
1
1
1
1
1
1
1.75393
2.63531
2.72157
2.71857
2.71695
1
1
1
1
1
1
1
1
1
1
1
1
1
1
1
1
1
1
1
1
1
1
1
1
1
1
1
1
1
1
1
1
1
1
1
1
1
1
1
1
1
1
1
1
1
1
1
1
1
1
1
1
1
1
1
1
1
1
1
1
1
1
1
1
1
1
1
1
1
1
1
1
1
1
1
1
1
1
1
1
1
1
1
1
1
1
1
1
1
1
1
1.74103
2.63073
2.71947
2.71751
2.71665
1.4847
0.906219
0.856476
0.774721
0.666618
0.768841
0.930954
1.0382
1.08861
1.15216
1.27817
1.39371
1.43435
1.45382
1.46561
1.4783
1.50126
1.53492
1.5617
1.58745
1.61043
1.61168
1.60338
1.59775
1.59527
1.59658
1.60879
1.62711
1.62866
1.62397
1.62034
1.62025
1.62165
1.62714
1.63505
1.64031
1.64113
1.63897
1.63819
1.6388
1.64199
1.64526
1.64836
1.65274
1.6555
1.65756
1.66066
1.66074
1.65931
1.65895
1.67695
2.20889
2.72422
2.71317
2.69865
2.69107
2.68627
2.68204
2.67739
2.67204
2.66536
2.65865
2.65222
2.64634
2.64115
2.63635
2.63159
2.62687
2.62188
2.61761
2.61393
2.60923
2.60153
2.59067
2.57826
2.5663
2.55632
2.54914
2.54476
2.54238
2.53957
2.53499
2.52963
2.52338
2.51685
2.51001
2.50326
2.49709
2.49128
2.48455
2.47669
2.46919
2.46245
2.45665
2.45193
2.44868
2.44604
2.44194
2.43589
2.42872
2.42044
2.41214
2.40421
2.3971
2.39175
2.38781
2.38341
2.37846
2.37379
2.36909
2.36377
2.35807
2.35299
2.34837
2.34363
2.33851
2.33303
2.32734
2.32172
2.31641
2.31159