/*--------------------------------*- C++ -*----------------------------------*\
  =========                 |
  \\      /  F ield         | OpenFOAM: The Open Source CFD Toolbox
   \\    /   O peration     | Website:  https://openfoam.org
    \\  /    A nd           | Version:  7
     \\/     M anipulation  |
\*---------------------------------------------------------------------------*/
FoamFile
{
    version     2.0;
    format      ascii;
    class       volVectorField;
    location    "4.8";
    object      U;
}
// * * * * * * * * * * * * * * * * * * * * * * * * * * * * * * * * * * * * * //

dimensions      [0 1 -1 0 0 0 0];

internalField   nonuniform List<vector> 
19968
(
(3 6.82889e-17 0)
(3 2.82641e-16 0)
(3 1.22303e-16 0)
(3 -1.03475e-16 0)
(3 -6.4617e-17 0)
(3 1.46763e-16 0)
(3 6.00141e-16 0)
(3 7.58858e-16 0)
(3 7.27122e-16 0)
(3 1.27985e-15 0)
(3 1.03055e-15 0)
(3 1.09717e-15 0)
(3 1.12429e-15 0)
(3 1.09751e-15 0)
(3 9.37789e-16 0)
(3 8.79679e-16 0)
(3 9.42757e-16 0)
(3 1.09923e-15 0)
(3 6.05389e-16 0)
(3 8.00016e-16 0)
(3 1.1194e-15 0)
(3 1.58122e-15 0)
(3 1.50767e-15 0)
(3 1.71952e-15 0)
(3 1.64058e-15 0)
(3 9.81074e-16 0)
(3 -7.58095e-18 0)
(3 6.8086e-16 0)
(3 1.02674e-15 0)
(3 3.96002e-16 0)
(3 -3.4191e-16 0)
(3 -4.7244e-16 0)
(3 -8.63771e-16 0)
(3 -1.44743e-15 0)
(3 -1.30343e-15 0)
(3 -1.54671e-15 0)
(3 -1.71696e-15 0)
(3 -1.19094e-15 0)
(3 -7.85516e-16 0)
(3 -3.27709e-17 0)
(3 9.55798e-16 0)
(3 1.07263e-15 0)
(3 1.1135e-15 0)
(3 6.97316e-16 0)
(3 4.24319e-16 0)
(3 2.38296e-16 0)
(3 7.23668e-16 0)
(3 -9.44032e-17 0)
(2.81686 0.00207989 0)
(0.974486 0.00628545 0)
(0.758947 0.00734249 0)
(0.744304 0.00776386 0)
(0.729517 0.00777951 0)
(0.715325 0.00809729 0)
(0.700063 0.00877345 0)
(0.683755 0.00961489 0)
(0.666846 0.0100247 0)
(0.650484 0.00953037 0)
(0.635538 0.00863185 0)
(0.621632 0.00832768 0)
(0.607581 0.00879297 0)
(0.592612 0.00932932 0)
(0.577122 0.0093824 0)
(0.561716 0.00927319 0)
(0.546303 0.00944916 0)
(0.530618 0.00968596 0)
(0.51488 0.0096762 0)
(0.499423 0.00961843 0)
(0.48419 0.00974557 0)
(0.468919 0.00995602 0)
(0.453397 0.0101236 0)
(0.437492 0.0102454 0)
(0.4212 0.0103443 0)
(0.404711 0.0104465 0)
(0.388316 0.0105787 0)
(0.372216 0.0107411 0)
(0.356419 0.0109032 0)
(0.34074 0.0110225 0)
(0.324914 0.0110916 0)
(0.308695 0.0111461 0)
(0.291965 0.0112152 0)
(0.274795 0.0113004 0)
(0.25738 0.0113964 0)
(0.239915 0.0115149 0)
(0.222522 0.0116706 0)
(0.205246 0.0118669 0)
(0.188055 0.0120993 0)
(0.170801 0.0123649 0)
(0.153221 0.0126647 0)
(0.134985 0.0129979 0)
(0.11583 0.0133592 0)
(0.0957032 0.0137253 0)
(0.0747937 0.0140855 0)
(0.0534194 0.0144022 0)
(0.0319014 0.0145132 0)
(0.010924 0.0145991 0)
(3 4.29868e-17 0)
(3 -1.03363e-17 0)
(3 -1.3655e-16 0)
(3 -5.45009e-16 0)
(3 -4.27049e-16 0)
(3 -3.83843e-16 0)
(3 -3.87802e-17 0)
(3 1.13381e-16 0)
(3 2.07258e-16 0)
(3 5.51163e-16 0)
(3 4.00519e-16 0)
(3 6.46767e-16 0)
(3 7.72676e-16 0)
(3 8.66281e-16 0)
(3 7.95608e-16 0)
(3 1.11431e-15 0)
(3 1.28688e-15 0)
(3 1.22102e-15 0)
(3 6.73152e-16 0)
(3 1.51801e-17 0)
(3 1.04182e-15 0)
(3 1.18262e-15 0)
(3 8.39129e-16 0)
(3 7.62823e-16 0)
(3 5.12786e-16 0)
(3 -2.85992e-16 0)
(3 -7.80351e-16 0)
(3 1.30423e-16 0)
(3 1.57436e-15 0)
(3 5.16793e-16 0)
(3 -2.4792e-15 0)
(3 -3.32677e-15 0)
(3 -4.12273e-15 0)
(3 -4.28774e-15 0)
(3 -3.70495e-15 0)
(3 -2.7825e-15 0)
(3 -1.29409e-15 0)
(3 -8.07647e-16 0)
(3 -7.77741e-16 0)
(3 9.5706e-16 0)
(3 1.88609e-15 0)
(3 2.26346e-15 0)
(3 1.32723e-15 0)
(3 1.58281e-15 0)
(3 1.74983e-15 0)
(3 2.03286e-15 0)
(3 1.31166e-15 0)
(3 -2.22716e-16 0)
(2.83077 0.0119471 0)
(0.979533 0.0292529 0)
(0.755533 0.0284524 0)
(0.740003 0.0233165 0)
(0.725196 0.0231707 0)
(0.710779 0.023836 0)
(0.695453 0.0257417 0)
(0.679329 0.0281054 0)
(0.662861 0.0292806 0)
(0.647029 0.0282587 0)
(0.632335 0.0261706 0)
(0.618217 0.0254183 0)
(0.603956 0.0267026 0)
(0.588876 0.0282299 0)
(0.573326 0.028399 0)
(0.557885 0.0280888 0)
(0.542474 0.0285661 0)
(0.526851 0.029232 0)
(0.511174 0.029227 0)
(0.495715 0.0291196 0)
(0.480408 0.0295346 0)
(0.465036 0.030131 0)
(0.449437 0.0305603 0)
(0.433501 0.0308926 0)
(0.417196 0.0312108 0)
(0.400686 0.0315438 0)
(0.384254 0.0319494 0)
(0.368099 0.0324535 0)
(0.352216 0.0329855 0)
(0.336421 0.0334093 0)
(0.320476 0.0336762 0)
(0.304174 0.0338745 0)
(0.287432 0.0340887 0)
(0.27033 0.034332 0)
(0.25305 0.0346058 0)
(0.23577 0.0349631 0)
(0.218599 0.0354586 0)
(0.201573 0.0360952 0)
(0.184648 0.0368404 0)
(0.167679 0.037664 0)
(0.150412 0.038561 0)
(0.132544 0.0395407 0)
(0.113828 0.0406213 0)
(0.0942048 0.0417611 0)
(0.0738221 0.0429591 0)
(0.0529193 0.0441018 0)
(0.0317369 0.0446501 0)
(0.0108944 0.0451856 0)
(3 -1.28242e-16 0)
(3 -1.19371e-16 0)
(3 -2.41719e-16 0)
(3 -1.79316e-16 0)
(3 -4.87975e-16 0)
(3 -1.25267e-15 0)
(3 -2.06459e-15 0)
(3 -1.86681e-15 0)
(3 -1.5788e-15 0)
(3 -1.90941e-15 0)
(3 -1.39768e-15 0)
(3 -6.43688e-16 0)
(3 6.89641e-17 0)
(3 3.05905e-16 0)
(3 1.67871e-16 0)
(3 2.32296e-16 0)
(3 3.79191e-16 0)
(3 -3.09274e-16 0)
(3 -6.12815e-16 0)
(3 -1.34092e-15 0)
(3 -5.07728e-16 0)
(3 -3.53272e-16 0)
(3 -2.35939e-16 0)
(3 -1.82679e-16 0)
(3 -4.88925e-16 0)
(3 -4.84036e-16 0)
(3 2.91607e-16 0)
(3 9.82049e-16 0)
(3 1.22808e-15 0)
(3 -4.38802e-16 0)
(3 -1.7913e-15 0)
(3 -2.69035e-15 0)
(3 -3.75225e-15 0)
(3 -3.98131e-15 0)
(3 -3.8997e-15 0)
(3 -2.99551e-15 0)
(3 -9.20031e-16 0)
(3 -2.2852e-16 0)
(3 -3.28852e-16 0)
(3 5.11128e-17 0)
(3 -1.80788e-16 0)
(3 -1.11115e-15 0)
(3 -1.9963e-15 0)
(3 -9.69597e-16 0)
(3 3.61627e-16 0)
(3 2.04117e-15 0)
(3 2.32518e-15 0)
(3 1.10041e-15 0)
(2.86446 0.0190581 0)
(0.99652 0.0504219 0)
(0.759951 0.0486646 0)
(0.744552 0.0409115 0)
(0.728494 0.0405893 0)
(0.713175 0.0419217 0)
(0.697182 0.0447576 0)
(0.680782 0.0480011 0)
(0.664362 0.0494171 0)
(0.648737 0.047864 0)
(0.634031 0.0450053 0)
(0.619471 0.0441003 0)
(0.604809 0.046174 0)
(0.589431 0.0485889 0)
(0.573622 0.0488833 0)
(0.557968 0.0484237 0)
(0.542415 0.0491762 0)
(0.526756 0.0502204 0)
(0.511057 0.0502328 0)
(0.495506 0.050136 0)
(0.480028 0.0508935 0)
(0.464434 0.0518864 0)
(0.448613 0.0525491 0)
(0.432498 0.0530833 0)
(0.41604 0.0536558 0)
(0.399363 0.0542399 0)
(0.382727 0.054874 0)
(0.366318 0.0556253 0)
(0.350118 0.056432 0)
(0.333949 0.057096 0)
(0.317603 0.0575308 0)
(0.300931 0.0578658 0)
(0.283895 0.0582227 0)
(0.266601 0.0586056 0)
(0.249237 0.0590051 0)
(0.231966 0.0595086 0)
(0.214872 0.0602173 0)
(0.197967 0.0611517 0)
(0.181194 0.0622766 0)
(0.164417 0.0635553 0)
(0.147407 0.0649845 0)
(0.129892 0.0665813 0)
(0.111648 0.0683837 0)
(0.0925876 0.070323 0)
(0.0728001 0.0724061 0)
(0.0524279 0.0744601 0)
(0.0315966 0.0755513 0)
(0.0108691 0.0767132 0)
(3 8.63965e-17 0)
(3 1.82588e-16 0)
(3 8.22041e-18 0)
(3 -1.35702e-16 0)
(3 -3.754e-16 0)
(3 -3.81207e-16 0)
(3 -6.78215e-16 0)
(3 -9.02672e-16 0)
(3 -1.51917e-15 0)
(3 -1.5769e-15 0)
(3 -7.24887e-16 0)
(3 -4.33098e-16 0)
(3 -2.68775e-16 0)
(3 -1.30786e-16 0)
(3 -7.07902e-17 0)
(3 -9.67345e-16 0)
(3 -1.64154e-15 0)
(3 -1.84954e-15 0)
(3 -1.54426e-15 0)
(3 -9.04134e-16 0)
(3 -6.83677e-16 0)
(3 -8.99535e-16 0)
(3 -1.25466e-15 0)
(3 -8.7435e-16 0)
(3 1.04406e-16 0)
(3 4.24472e-16 0)
(3 -2.00201e-16 0)
(3 -1.75323e-15 0)
(3 -2.97714e-15 0)
(3 -2.02409e-15 0)
(3 -1.91578e-15 0)
(3 -2.19722e-15 0)
(3 -1.48874e-15 0)
(3 -1.05135e-15 0)
(3 -3.4e-16 0)
(3 1.37592e-15 0)
(3 1.51499e-15 0)
(3 4.13008e-16 0)
(3 1.26833e-17 0)
(3 -3.15889e-16 0)
(3 -1.06977e-15 0)
(3 -1.13166e-15 0)
(3 -1.83958e-16 0)
(3 -4.69517e-16 0)
(3 3.15346e-16 0)
(3 2.12276e-15 0)
(3 2.69174e-15 0)
(3 1.97193e-15 0)
(2.9078 0.0233763 0)
(1.02018 0.0709942 0)
(0.761628 0.0676777 0)
(0.746526 0.0595505 0)
(0.730828 0.0593521 0)
(0.715544 0.0609434 0)
(0.699659 0.0644813 0)
(0.683505 0.0681929 0)
(0.667525 0.0695675 0)
(0.652361 0.067758 0)
(0.637826 0.0646599 0)
(0.62309 0.0638702 0)
(0.608314 0.0666663 0)
(0.592914 0.0698731 0)
(0.577078 0.0703536 0)
(0.561388 0.0698372 0)
(0.545813 0.0708294 0)
(0.530204 0.0721998 0)
(0.514528 0.0722815 0)
(0.49889 0.0723045 0)
(0.483224 0.0735116 0)
(0.467362 0.0749753 0)
(0.451249 0.0758959 0)
(0.434884 0.0766699 0)
(0.4182 0.0775901 0)
(0.40126 0.0785205 0)
(0.384284 0.0794271 0)
(0.367441 0.080431 0)
(0.35071 0.0815202 0)
(0.333919 0.0824548 0)
(0.316898 0.0831004 0)
(0.299552 0.0836091 0)
(0.281892 0.0841276 0)
(0.264054 0.0846378 0)
(0.246242 0.085103 0)
(0.228616 0.085634 0)
(0.211244 0.0863825 0)
(0.194117 0.0874092 0)
(0.177184 0.0887093 0)
(0.160334 0.0902668 0)
(0.143389 0.0920975 0)
(0.126136 0.0942309 0)
(0.108392 0.0967342 0)
(0.0900313 0.0995169 0)
(0.0710438 0.102577 0)
(0.051437 0.105703 0)
(0.0311552 0.107526 0)
(0.0107532 0.109549 0)
(3 -1.98751e-18 0)
(3 -2.46427e-16 0)
(3 -4.77327e-16 0)
(3 -3.41441e-16 0)
(3 2.61339e-17 0)
(3 9.62884e-16 0)
(3 9.74181e-16 0)
(3 7.06012e-16 0)
(3 3.22235e-16 0)
(3 5.35289e-16 0)
(3 5.01487e-17 0)
(3 -3.29109e-16 0)
(3 -4.1204e-16 0)
(3 -1.44352e-16 0)
(3 4.46791e-17 0)
(3 -4.02123e-16 0)
(3 -9.7123e-16 0)
(3 -1.38512e-15 0)
(3 -1.23359e-15 0)
(3 -1.12157e-15 0)
(3 -1.56383e-15 0)
(3 -2.3035e-15 0)
(3 -2.47042e-15 0)
(3 -2.67102e-15 0)
(3 -2.31807e-15 0)
(3 -2.25581e-15 0)
(3 -3.70345e-15 0)
(3 -4.46159e-15 0)
(3 -3.73404e-15 0)
(3 -3.32339e-15 0)
(3 -3.108e-15 0)
(3 -3.28073e-15 0)
(3 -4.53129e-15 0)
(3 -3.70498e-15 0)
(3 -1.28408e-15 0)
(3 8.45288e-16 0)
(3 1.20609e-15 0)
(3 9.5659e-16 0)
(3 1.01114e-15 0)
(3 1.32143e-15 0)
(3 1.5078e-15 0)
(3 1.49621e-15 0)
(3 1.22758e-15 0)
(3 9.46816e-16 0)
(3 1.31629e-15 0)
(3 2.82025e-15 0)
(3 2.70278e-15 0)
(3 5.9632e-16 0)
(2.95311 0.0186302 0)
(1.04815 0.0983339 0)
(0.765234 0.0858581 0)
(0.75165 0.0775304 0)
(0.736603 0.0786068 0)
(0.720986 0.0809999 0)
(0.704816 0.0852468 0)
(0.688447 0.0890175 0)
(0.672516 0.0900846 0)
(0.657455 0.0882295 0)
(0.642907 0.0853108 0)
(0.628101 0.0848117 0)
(0.613466 0.0881405 0)
(0.598478 0.0919634 0)
(0.583066 0.0927203 0)
(0.567647 0.0923681 0)
(0.552216 0.0936734 0)
(0.536726 0.0953734 0)
(0.521122 0.0956191 0)
(0.505453 0.0958941 0)
(0.489689 0.0976742 0)
(0.473655 0.0997149 0)
(0.457347 0.100927 0)
(0.440866 0.101962 0)
(0.424131 0.103318 0)
(0.407112 0.104714 0)
(0.389957 0.105973 0)
(0.372815 0.107278 0)
(0.35566 0.108721 0)
(0.338325 0.110047 0)
(0.320652 0.111052 0)
(0.302581 0.111877 0)
(0.284158 0.11268 0)
(0.26555 0.113413 0)
(0.246982 0.113992 0)
(0.228626 0.114527 0)
(0.210532 0.115204 0)
(0.192665 0.116118 0)
(0.17497 0.117301 0)
(0.157375 0.118776 0)
(0.139788 0.120608 0)
(0.122118 0.122881 0)
(0.104303 0.125747 0)
(0.0862625 0.129154 0)
(0.0679273 0.133063 0)
(0.0492152 0.137274 0)
(0.029822 0.139916 0)
(0.0102945 0.142934 0)
(3 8.9788e-17 0)
(3 9.01155e-17 0)
(3 4.05408e-16 0)
(3 1.02501e-15 0)
(3 1.42788e-15 0)
(3 1.60554e-15 0)
(3 1.73121e-15 0)
(3 1.8044e-15 0)
(3 1.67622e-15 0)
(3 1.21764e-15 0)
(3 2.04877e-16 0)
(3 2.05246e-16 0)
(3 8.83697e-16 0)
(3 8.38402e-16 0)
(3 3.50479e-16 0)
(3 3.09694e-16 0)
(3 -2.55947e-16 0)
(3 -9.62289e-16 0)
(3 -1.2952e-15 0)
(3 -1.41454e-15 0)
(3 -1.6087e-15 0)
(3 -2.21613e-15 0)
(3 -2.63466e-15 0)
(3 -3.51669e-15 0)
(3 -4.45191e-15 0)
(3 -4.80665e-15 0)
(3 -4.27246e-15 0)
(3 -3.22587e-15 0)
(3 -2.91268e-15 0)
(3 -1.799e-15 0)
(3 -1.47089e-15 0)
(3 -1.25475e-15 0)
(3 -1.5517e-15 0)
(3 -1.73781e-15 0)
(3 -1.48746e-15 0)
(3 -1.17312e-15 0)
(3 -1.30951e-15 0)
(3 -4.16493e-16 0)
(3 1.60001e-15 0)
(3 1.1968e-15 0)
(3 8.10188e-16 0)
(3 1.10816e-15 0)
(3 1.61859e-15 0)
(3 1.62748e-15 0)
(3 1.45941e-15 0)
(3 1.25838e-15 0)
(3 1.01307e-15 0)
(3 8.91077e-16 0)
(3.00037 0.00275447 0)
(1.12167 0.115789 0)
(0.775638 0.0981605 0)
(0.758683 0.0948811 0)
(0.744859 0.0986871 0)
(0.729093 0.102259 0)
(0.713158 0.106953 0)
(0.696879 0.11038 0)
(0.681069 0.110912 0)
(0.666057 0.109027 0)
(0.651552 0.106375 0)
(0.636951 0.10607 0)
(0.622757 0.10949 0)
(0.608514 0.113484 0)
(0.593778 0.114636 0)
(0.578733 0.114845 0)
(0.563497 0.116651 0)
(0.548155 0.118645 0)
(0.532735 0.119003 0)
(0.517234 0.119526 0)
(0.501636 0.121917 0)
(0.485702 0.124635 0)
(0.46943 0.12615 0)
(0.45305 0.127392 0)
(0.436496 0.129209 0)
(0.419645 0.131186 0)
(0.402552 0.132911 0)
(0.385353 0.134604 0)
(0.368036 0.136516 0)
(0.35043 0.138419 0)
(0.332369 0.14002 0)
(0.313796 0.141418 0)
(0.294773 0.142778 0)
(0.275478 0.144028 0)
(0.256163 0.145018 0)
(0.237022 0.145824 0)
(0.218091 0.146643 0)
(0.199292 0.147599 0)
(0.180527 0.148761 0)
(0.161717 0.150178 0)
(0.142836 0.151942 0)
(0.123917 0.154164 0)
(0.105058 0.157052 0)
(0.0862945 0.160656 0)
(0.0675615 0.164913 0)
(0.0488027 0.169829 0)
(0.0294662 0.173037 0)
(0.0101549 0.176916 0)
(3 1.26375e-16 0)
(3 3.02739e-16 0)
(3 9.23677e-16 0)
(3 1.08917e-15 0)
(3 9.82411e-16 0)
(3 7.65142e-16 0)
(3 6.20193e-16 0)
(3 1.83419e-16 0)
(3 2.02344e-16 0)
(3 2.95845e-16 0)
(3 6.86222e-17 0)
(3 5.40447e-16 0)
(3 1.44661e-15 0)
(3 1.47492e-15 0)
(3 1.21467e-15 0)
(3 2.14953e-16 0)
(3 -1.99786e-16 0)
(3 -1.13058e-15 0)
(3 -1.16786e-15 0)
(3 -3.85717e-16 0)
(3 -3.0992e-16 0)
(3 -4.78663e-16 0)
(3 -1.0872e-15 0)
(3 -1.03209e-15 0)
(3 -2.00867e-15 0)
(3 -2.31297e-15 0)
(3 -2.34515e-15 0)
(3 -1.22473e-15 0)
(3 -1.09719e-15 0)
(3 -5.03898e-17 0)
(3 5.35828e-16 0)
(3 1.16208e-15 0)
(3 1.74948e-15 0)
(3 1.56517e-15 0)
(3 7.87842e-16 0)
(3 -6.99068e-16 0)
(3 -9.09898e-16 0)
(3 -1.13135e-15 0)
(3 -5.62436e-16 0)
(3 -1.47083e-16 0)
(3 2.07553e-16 0)
(3 6.71402e-16 0)
(3 1.00518e-15 0)
(3 1.18721e-15 0)
(3 4.58038e-16 0)
(3 -4.0713e-16 0)
(3 -2.85213e-16 0)
(3 6.56615e-16 0)
(3.00002 7.30772e-06 0)
(1.2468 0.139516 0)
(0.777633 0.120402 0)
(0.75278 0.114191 0)
(0.739838 0.119745 0)
(0.724231 0.124491 0)
(0.708965 0.129943 0)
(0.693077 0.133305 0)
(0.677406 0.133774 0)
(0.662215 0.132129 0)
(0.647521 0.129598 0)
(0.633033 0.129066 0)
(0.619294 0.132222 0)
(0.605867 0.136399 0)
(0.591836 0.138503 0)
(0.577185 0.139874 0)
(0.562189 0.14238 0)
(0.547073 0.144517 0)
(0.532051 0.144812 0)
(0.517023 0.145511 0)
(0.501995 0.148532 0)
(0.486637 0.152061 0)
(0.470834 0.153978 0)
(0.454948 0.15543 0)
(0.438972 0.157741 0)
(0.422726 0.160423 0)
(0.406154 0.16275 0)
(0.389384 0.164911 0)
(0.37244 0.167335 0)
(0.355162 0.16986 0)
(0.337353 0.172104 0)
(0.318939 0.174097 0)
(0.299974 0.176022 0)
(0.280638 0.177817 0)
(0.261196 0.179282 0)
(0.241869 0.180438 0)
(0.222703 0.18147 0)
(0.203581 0.182509 0)
(0.184349 0.183648 0)
(0.164895 0.184961 0)
(0.145211 0.186566 0)
(0.125415 0.188599 0)
(0.105725 0.191283 0)
(0.0863119 0.194818 0)
(0.0671343 0.199036 0)
(0.0482782 0.204357 0)
(0.0289833 0.207884 0)
(0.00999265 0.212472 0)
(3 -1.44829e-16 0)
(3 -9.89422e-17 0)
(3 -5.03596e-16 0)
(3 -6.40207e-16 0)
(3 -9.06563e-16 0)
(3 -8.64959e-16 0)
(3 -1.14334e-15 0)
(3 -1.39249e-15 0)
(3 -1.43514e-15 0)
(3 -1.21743e-15 0)
(3 -4.49185e-16 0)
(3 -1.09228e-16 0)
(3 1.36184e-17 0)
(3 -4.17547e-16 0)
(3 -1.52419e-16 0)
(3 1.45834e-15 0)
(3 1.54467e-15 0)
(3 1.08242e-15 0)
(3 -9.23402e-17 0)
(3 -3.1109e-16 0)
(3 7.25032e-17 0)
(3 5.0292e-16 0)
(3 3.876e-16 0)
(3 -3.80694e-16 0)
(3 -5.24355e-16 0)
(3 -3.45314e-16 0)
(3 3.31024e-16 0)
(3 4.13144e-16 0)
(3 3.99346e-16 0)
(3 -1.67284e-16 0)
(3 -4.02296e-16 0)
(3 -1.56179e-16 0)
(3 1.18328e-16 0)
(3 1.49681e-16 0)
(3 -8.45712e-16 0)
(3 -2.76508e-15 0)
(3 -2.92296e-15 0)
(3 -2.58189e-15 0)
(3 -2.54552e-15 0)
(3 -1.93409e-15 0)
(3 -9.37072e-16 0)
(3 -4.22515e-16 0)
(3 -6.51079e-16 0)
(3 -1.2293e-15 0)
(3 -2.13745e-15 0)
(3 -2.88241e-15 0)
(3 -1.56288e-15 0)
(3 -3.70528e-16 0)
(3 1.61332e-08 0)
(1.45787 0.16702 0)
(0.793032 0.148778 0)
(0.754624 0.136753 0)
(0.740473 0.142368 0)
(0.724436 0.147627 0)
(0.709313 0.153235 0)
(0.693595 0.15663 0)
(0.677866 0.157489 0)
(0.662219 0.156431 0)
(0.646965 0.153966 0)
(0.632216 0.15248 0)
(0.618483 0.154436 0)
(0.605634 0.158311 0)
(0.592361 0.161462 0)
(0.578345 0.164319 0)
(0.563851 0.167621 0)
(0.549182 0.169626 0)
(0.534803 0.169501 0)
(0.520483 0.170187 0)
(0.506281 0.173779 0)
(0.491781 0.178261 0)
(0.476644 0.180767 0)
(0.461414 0.1824 0)
(0.446194 0.185129 0)
(0.430767 0.188579 0)
(0.414912 0.191683 0)
(0.398723 0.194487 0)
(0.382269 0.19759 0)
(0.365412 0.200956 0)
(0.34792 0.204126 0)
(0.329686 0.207024 0)
(0.310748 0.209837 0)
(0.291273 0.212541 0)
(0.27152 0.214898 0)
(0.251738 0.216852 0)
(0.23201 0.218537 0)
(0.21223 0.220058 0)
(0.192222 0.221503 0)
(0.171846 0.222955 0)
(0.151084 0.224533 0)
(0.130081 0.226406 0)
(0.10913 0.228762 0)
(0.0885505 0.232042 0)
(0.0683417 0.235867 0)
(0.0488031 0.241284 0)
(0.0290936 0.244896 0)
(0.0100351 0.250027 0)
(3 -4.64973e-17 0)
(3 -1.42261e-16 0)
(3 -3.21283e-16 0)
(3 -5.81501e-16 0)
(3 -7.79055e-16 0)
(3 -1.18249e-15 0)
(3 -1.66264e-15 0)
(3 -1.5508e-15 0)
(3 -1.48787e-15 0)
(3 -1.4956e-15 0)
(3 -1.15503e-15 0)
(3 -8.83665e-16 0)
(3 -1.38407e-15 0)
(3 -1.3971e-15 0)
(3 -7.45004e-16 0)
(3 1.21832e-16 0)
(3 1.44494e-16 0)
(3 1.48671e-17 0)
(3 1.6392e-16 0)
(3 -5.05516e-16 0)
(3 -6.42667e-16 0)
(3 -3.89254e-16 0)
(3 6.0733e-17 0)
(3 1.15379e-16 0)
(3 1.13352e-16 0)
(3 3.92582e-16 0)
(3 4.1783e-16 0)
(3 -3.49364e-17 0)
(3 -2.60562e-16 0)
(3 -9.89526e-16 0)
(3 -1.42701e-15 0)
(3 -1.33426e-15 0)
(3 -9.53693e-16 0)
(3 -2.15085e-15 0)
(3 -2.93673e-15 0)
(3 -2.54522e-15 0)
(3 -2.75586e-15 0)
(3 -2.00966e-15 0)
(3 -1.29644e-15 0)
(3 -7.52092e-16 0)
(3 -7.93784e-16 0)
(3 -5.50511e-16 0)
(3 -5.49993e-16 0)
(3 -2.26375e-15 0)
(3 -2.10509e-15 0)
(3 -2.22193e-15 0)
(3 -2.3457e-15 0)
(3 -2.50247e-15 0)
(3 3.14211e-11 0)
(1.77176 0.188066 0)
(0.821827 0.181844 0)
(0.761641 0.163988 0)
(0.74503 0.167441 0)
(0.728311 0.171551 0)
(0.713143 0.176619 0)
(0.697542 0.180417 0)
(0.681707 0.1826 0)
(0.665545 0.182963 0)
(0.649491 0.181061 0)
(0.634082 0.178351 0)
(0.619594 0.178271 0)
(0.60626 0.181184 0)
(0.592945 0.185185 0)
(0.57899 0.189685 0)
(0.564445 0.193907 0)
(0.549667 0.195653 0)
(0.535388 0.194821 0)
(0.521246 0.195226 0)
(0.507432 0.199285 0)
(0.493545 0.204868 0)
(0.478884 0.208243 0)
(0.464162 0.210038 0)
(0.449684 0.21307 0)
(0.435281 0.217344 0)
(0.420481 0.221447 0)
(0.405256 0.225098 0)
(0.389706 0.229019 0)
(0.373722 0.233367 0)
(0.35704 0.23766 0)
(0.339508 0.241689 0)
(0.321146 0.245616 0)
(0.302091 0.249471 0)
(0.282563 0.253006 0)
(0.262802 0.256073 0)
(0.24292 0.258736 0)
(0.222839 0.261055 0)
(0.202373 0.263097 0)
(0.181342 0.264937 0)
(0.159682 0.266667 0)
(0.137524 0.268498 0)
(0.11519 0.270522 0)
(0.0931364 0.273499 0)
(0.0714588 0.276704 0)
(0.0507399 0.28199 0)
(0.0300513 0.285521 0)
(0.0103729 0.291059 0)
(3 3.70016e-17 0)
(3 -3.17087e-16 0)
(3 -3.66866e-16 0)
(3 -3.03757e-16 0)
(3 -2.95623e-16 0)
(3 -2.45105e-16 0)
(3 -3.33676e-16 0)
(3 -3.27282e-16 0)
(3 -7.24753e-16 0)
(3 -1.04713e-15 0)
(3 -1.05239e-15 0)
(3 -8.11034e-16 0)
(3 -9.2615e-16 0)
(3 -8.62381e-16 0)
(3 -8.91021e-16 0)
(3 -9.9998e-16 0)
(3 4.41237e-16 0)
(3 7.85111e-16 0)
(3 1.22276e-15 0)
(3 1.28909e-15 0)
(3 8.23284e-16 0)
(3 6.93082e-16 0)
(3 6.45247e-16 0)
(3 1.05343e-15 0)
(3 9.4981e-16 0)
(3 1.72191e-16 0)
(3 -9.97127e-16 0)
(3 -1.29139e-15 0)
(3 -1.34582e-15 0)
(3 -1.39123e-15 0)
(3 -1.91014e-15 0)
(3 -2.12591e-15 0)
(3 -2.3614e-15 0)
(3 -1.85503e-15 0)
(3 -1.25431e-15 0)
(3 -1.0924e-16 0)
(3 3.78288e-16 0)
(3 7.58425e-16 0)
(3 1.04319e-15 0)
(3 9.81364e-16 0)
(3 1.21878e-15 0)
(3 1.52914e-15 0)
(3 1.07476e-15 0)
(3 5.93866e-16 0)
(3 -6.13383e-16 0)
(3 -1.44014e-15 0)
(3 -2.26418e-15 0)
(3 -2.90385e-15 0)
(3 5.70318e-14 0)
(2.19214 0.195423 0)
(0.866212 0.220491 0)
(0.761108 0.199708 0)
(0.744062 0.196819 0)
(0.728936 0.198028 0)
(0.715622 0.202132 0)
(0.70169 0.206465 0)
(0.68715 0.210266 0)
(0.671817 0.212455 0)
(0.656026 0.211602 0)
(0.64062 0.208068 0)
(0.625735 0.20571 0)
(0.611659 0.20706 0)
(0.598004 0.2114 0)
(0.584015 0.217369 0)
(0.569273 0.222558 0)
(0.5541 0.224116 0)
(0.539451 0.222439 0)
(0.52487 0.222088 0)
(0.510705 0.226116 0)
(0.496814 0.23256 0)
(0.482037 0.236864 0)
(0.467146 0.238581 0)
(0.452691 0.24139 0)
(0.438719 0.246134 0)
(0.424582 0.251186 0)
(0.410027 0.255705 0)
(0.395185 0.260407 0)
(0.380022 0.265737 0)
(0.364262 0.27128 0)
(0.347687 0.276673 0)
(0.330258 0.281989 0)
(0.312044 0.287319 0)
(0.293166 0.292446 0)
(0.273789 0.29715 0)
(0.254028 0.301396 0)
(0.233842 0.305163 0)
(0.213075 0.308433 0)
(0.191549 0.311222 0)
(0.169162 0.313538 0)
(0.14601 0.315639 0)
(0.122395 0.317486 0)
(0.098864 0.320227 0)
(0.0756214 0.322701 0)
(0.0534737 0.327643 0)
(0.0315409 0.330951 0)
(0.0108795 0.336775 0)
(3 8.16549e-17 0)
(3 9.64406e-17 0)
(3 -2.74202e-16 0)
(3 -4.4148e-16 0)
(3 -5.90514e-16 0)
(3 -8.76267e-16 0)
(3 -9.21972e-16 0)
(3 -8.44071e-16 0)
(3 -7.1986e-16 0)
(3 -7.9248e-16 0)
(3 -5.55484e-16 0)
(3 -3.1136e-16 0)
(3 -3.11468e-16 0)
(3 -6.92442e-16 0)
(3 -1.31807e-15 0)
(3 -1.61372e-15 0)
(3 9.14356e-17 0)
(3 2.95439e-15 0)
(3 3.02092e-15 0)
(3 2.68544e-15 0)
(3 2.20492e-15 0)
(3 1.6614e-15 0)
(3 1.08662e-15 0)
(3 -1.23177e-16 0)
(3 -3.18332e-16 0)
(3 -8.83336e-17 0)
(3 -3.24914e-16 0)
(3 -1.19041e-15 0)
(3 -2.49343e-15 0)
(3 -2.74145e-15 0)
(3 -2.38104e-15 0)
(3 -2.28124e-15 0)
(3 -2.39829e-15 0)
(3 -2.2541e-15 0)
(3 6.42838e-17 0)
(3 2.54951e-15 0)
(3 3.45269e-15 0)
(3 3.16634e-15 0)
(3 2.67582e-15 0)
(3 1.70075e-15 0)
(3 1.69034e-15 0)
(3 2.11103e-15 0)
(3 7.95247e-16 0)
(3 3.05317e-16 0)
(3 -1.49237e-16 0)
(3 -1.61787e-15 0)
(3 -2.18266e-15 0)
(3 -2.36029e-15 0)
(3 -1.45327e-15 0)
(2.71893 0.166809 0)
(0.974061 0.259677 0)
(0.785667 0.234261 0)
(0.775017 0.220658 0)
(0.756148 0.220145 0)
(0.740712 0.223377 0)
(0.725328 0.228517 0)
(0.710069 0.234326 0)
(0.694501 0.239123 0)
(0.678456 0.240528 0)
(0.662666 0.237723 0)
(0.647199 0.234097 0)
(0.631893 0.234088 0)
(0.617151 0.23863 0)
(0.602689 0.246092 0)
(0.587543 0.25271 0)
(0.571689 0.254881 0)
(0.556124 0.253039 0)
(0.540467 0.252009 0)
(0.525144 0.255761 0)
(0.510566 0.262979 0)
(0.495121 0.268605 0)
(0.47925 0.270553 0)
(0.463769 0.272833 0)
(0.449049 0.277571 0)
(0.434546 0.283308 0)
(0.419679 0.288526 0)
(0.404534 0.293692 0)
(0.389207 0.299627 0)
(0.373499 0.306144 0)
(0.357168 0.312782 0)
(0.340143 0.319468 0)
(0.322488 0.326314 0)
(0.304282 0.333165 0)
(0.285609 0.33974 0)
(0.266518 0.345901 0)
(0.246912 0.351531 0)
(0.226567 0.356518 0)
(0.205208 0.360823 0)
(0.182601 0.364373 0)
(0.158751 0.367465 0)
(0.133875 0.369883 0)
(0.108606 0.373028 0)
(0.0832452 0.375207 0)
(0.0588603 0.379917 0)
(0.0346921 0.382996 0)
(0.011962 0.38909 0)
(3 -6.15087e-17 0)
(3 2.71055e-17 0)
(3 1.87492e-16 0)
(3 1.61537e-16 0)
(3 -4.34959e-16 0)
(3 -3.9076e-16 0)
(3 -3.71694e-16 0)
(3 -5.39707e-16 0)
(3 -1.33901e-16 0)
(3 5.38381e-16 0)
(3 3.59236e-16 0)
(3 1.73698e-16 0)
(3 3.79008e-16 0)
(3 2.85466e-16 0)
(3 -2.83989e-16 0)
(3 -7.89852e-16 0)
(3 -7.4488e-16 0)
(3 -3.38365e-16 0)
(3 1.15099e-16 0)
(3 1.98006e-16 0)
(3 2.01334e-16 0)
(3 3.81839e-17 0)
(3 -9.74148e-16 0)
(3 -1.15064e-15 0)
(3 -1.09574e-15 0)
(3 -5.82519e-16 0)
(3 -3.92721e-16 0)
(3 -5.46558e-16 0)
(3 -1.28169e-15 0)
(3 -1.57608e-15 0)
(3 -4.95574e-16 0)
(3 1.81066e-16 0)
(3 5.84718e-16 0)
(3 7.37782e-16 0)
(3 1.71464e-15 0)
(3 2.68843e-15 0)
(3 2.79053e-15 0)
(3 2.96598e-15 0)
(3 2.77292e-15 0)
(3 2.27448e-15 0)
(3 1.42127e-15 0)
(3 4.80423e-16 0)
(3 5.09062e-16 0)
(3 3.96062e-16 0)
(3 2.98754e-16 0)
(3 7.64973e-16 0)
(3 1.44149e-17 0)
(3 -7.66476e-17 0)
(3 -2.09786e-17 0)
(3.01874 0.00854528 0)
(1.16847 0.27842 0)
(0.8111 0.235602 0)
(0.796556 0.246907 0)
(0.779957 0.251069 0)
(0.7638 0.253645 0)
(0.748192 0.257407 0)
(0.73328 0.262425 0)
(0.71886 0.26721 0)
(0.70431 0.26924 0)
(0.689683 0.267416 0)
(0.674944 0.263679 0)
(0.659691 0.262423 0)
(0.644658 0.266163 0)
(0.630411 0.273888 0)
(0.615813 0.281562 0)
(0.600171 0.285034 0)
(0.584327 0.284013 0)
(0.568196 0.28256 0)
(0.552029 0.285545 0)
(0.536872 0.293081 0)
(0.521171 0.300491 0)
(0.504472 0.303828 0)
(0.48783 0.305924 0)
(0.471883 0.310486 0)
(0.456506 0.316927 0)
(0.440861 0.323176 0)
(0.424841 0.328985 0)
(0.40864 0.335435 0)
(0.392184 0.342761 0)
(0.375238 0.350535 0)
(0.357694 0.358517 0)
(0.33963 0.36681 0)
(0.321137 0.375399 0)
(0.302218 0.384054 0)
(0.282821 0.39259 0)
(0.262774 0.400823 0)
(0.241788 0.408523 0)
(0.219578 0.415511 0)
(0.195913 0.42153 0)
(0.170887 0.426702 0)
(0.144708 0.43061 0)
(0.118008 0.434742 0)
(0.0908728 0.437099 0)
(0.0642952 0.441492 0)
(0.0379382 0.444059 0)
(0.0129486 0.450064 0)
(3 -5.0464e-17 0)
(3 -3.98627e-17 0)
(3 3.22932e-16 0)
(3 9.42148e-16 0)
(3 9.90379e-16 0)
(3 1.14133e-15 0)
(3 9.25131e-16 0)
(3 7.42595e-16 0)
(3 6.76468e-16 0)
(3 7.753e-16 0)
(3 7.08978e-16 0)
(3 6.86876e-16 0)
(3 7.44482e-16 0)
(3 7.1822e-16 0)
(3 5.14847e-16 0)
(3 -4.95721e-16 0)
(3 -1.21889e-15 0)
(3 -1.89706e-15 0)
(3 -2.39275e-15 0)
(3 -2.39958e-15 0)
(3 -2.73074e-15 0)
(3 -2.40738e-15 0)
(3 -1.99853e-15 0)
(3 -1.39011e-15 0)
(3 -1.6077e-15 0)
(3 -1.7703e-15 0)
(3 -1.91301e-15 0)
(3 -1.48687e-15 0)
(3 -5.02365e-16 0)
(3 2.45835e-17 0)
(3 9.86271e-17 0)
(3 3.18433e-16 0)
(3 1.3696e-15 0)
(3 2.41737e-15 0)
(3 2.89605e-15 0)
(3 2.10566e-15 0)
(3 1.46053e-15 0)
(3 1.66841e-15 0)
(3 2.24451e-15 0)
(3 2.10145e-15 0)
(3 1.98494e-15 0)
(3 1.73423e-15 0)
(3 1.50085e-15 0)
(3 2.01895e-15 0)
(3 2.38349e-15 0)
(3 2.84547e-15 0)
(3 2.79376e-15 0)
(3 2.52985e-15 0)
(3 1.2802e-15 0)
(3.00024 9.16704e-06 0)
(1.59364 0.312286 0)
(0.826721 0.27958 0)
(0.780231 0.279192 0)
(0.766492 0.283254 0)
(0.752915 0.284403 0)
(0.740156 0.287286 0)
(0.727499 0.29175 0)
(0.715169 0.296721 0)
(0.702773 0.300044 0)
(0.690112 0.300307 0)
(0.677116 0.29829 0)
(0.663362 0.297205 0)
(0.649313 0.300214 0)
(0.636087 0.307599 0)
(0.623197 0.316119 0)
(0.609365 0.321189 0)
(0.595063 0.321615 0)
(0.580396 0.320476 0)
(0.565281 0.322548 0)
(0.551025 0.329566 0)
(0.536941 0.338208 0)
(0.521483 0.343482 0)
(0.505493 0.345851 0)
(0.489796 0.34981 0)
(0.474815 0.356296 0)
(0.459788 0.363351 0)
(0.444215 0.369799 0)
(0.428262 0.376519 0)
(0.411985 0.384261 0)
(0.395176 0.39285 0)
(0.377697 0.401932 0)
(0.359683 0.4115 0)
(0.341374 0.421678 0)
(0.322829 0.432311 0)
(0.303979 0.443173 0)
(0.284628 0.453994 0)
(0.264486 0.464515 0)
(0.243035 0.474301 0)
(0.219985 0.482978 0)
(0.195161 0.490589 0)
(0.168358 0.496941 0)
(0.139889 0.503869 0)
(0.109426 0.509205 0)
(0.0780709 0.515353 0)
(0.0461087 0.518382 0)
(0.0155317 0.524006 0)
(3 1.75356e-16 0)
(3 4.47805e-16 0)
(3 8.77667e-16 0)
(3 1.01002e-15 0)
(3 1.60122e-15 0)
(3 1.67961e-15 0)
(3 1.38123e-15 0)
(3 1.303e-15 0)
(3 9.98461e-16 0)
(3 5.99093e-16 0)
(3 3.66073e-16 0)
(3 4.1769e-16 0)
(3 3.22767e-16 0)
(3 4.16186e-17 0)
(3 -1.9748e-16 0)
(3 -3.28422e-16 0)
(3 -5.65277e-16 0)
(3 -8.66064e-16 0)
(3 -9.68451e-16 0)
(3 -1.25266e-15 0)
(3 -1.43744e-15 0)
(3 -1.05822e-15 0)
(3 -7.80743e-16 0)
(3 -1.92898e-15 0)
(3 -2.68086e-15 0)
(3 -2.62256e-15 0)
(3 -2.4284e-15 0)
(3 -2.62031e-15 0)
(3 -2.60863e-15 0)
(3 -1.86663e-15 0)
(3 -1.13562e-15 0)
(3 -5.07358e-16 0)
(3 3.42297e-16 0)
(3 1.20835e-15 0)
(3 9.15836e-16 0)
(3 3.24962e-16 0)
(3 -2.94874e-16 0)
(3 3.34873e-16 0)
(3 9.02066e-16 0)
(3 1.0615e-15 0)
(3 1.68641e-15 0)
(3 1.48012e-15 0)
(3 1.44662e-15 0)
(3 1.81982e-15 0)
(3 2.2304e-15 0)
(3 2.28872e-15 0)
(3 2.40693e-15 0)
(3 2.2475e-15 0)
(3 1.10005e-15 0)
(3 1.61185e-08 0)
(2.43112 0.273717 0)
(0.929012 0.338279 0)
(0.793376 0.317869 0)
(0.78122 0.309896 0)
(0.766686 0.311267 0)
(0.753852 0.314605 0)
(0.741033 0.319167 0)
(0.728622 0.323913 0)
(0.716585 0.327642 0)
(0.704541 0.329515 0)
(0.692132 0.329492 0)
(0.679055 0.329185 0)
(0.665428 0.331547 0)
(0.652327 0.337924 0)
(0.640136 0.34631 0)
(0.627613 0.352622 0)
(0.614503 0.354937 0)
(0.600946 0.355011 0)
(0.586731 0.356716 0)
(0.572819 0.362922 0)
(0.559736 0.372323 0)
(0.545684 0.380296 0)
(0.530512 0.384498 0)
(0.515211 0.38858 0)
(0.500531 0.39516 0)
(0.4862 0.403285 0)
(0.471364 0.411162 0)
(0.455916 0.418863 0)
(0.440035 0.427477 0)
(0.423535 0.437178 0)
(0.406228 0.447697 0)
(0.388239 0.458868 0)
(0.369939 0.470861 0)
(0.351309 0.483634 0)
(0.332408 0.497069 0)
(0.312926 0.511041 0)
(0.292416 0.525262 0)
(0.270208 0.539542 0)
(0.245544 0.553423 0)
(0.218229 0.566982 0)
(0.188061 0.579624 0)
(0.156261 0.592523 0)
(0.123255 0.603723 0)
(0.0894986 0.61281 0)
(0.0545026 0.61734 0)
(0.0175532 0.62082 0)
(3 8.13426e-17 0)
(3 1.02421e-16 0)
(3 2.22492e-16 0)
(3 1.88644e-16 0)
(3 1.57955e-16 0)
(3 3.73106e-16 0)
(3 5.63837e-16 0)
(3 7.85132e-16 0)
(3 7.16214e-16 0)
(3 2.47504e-16 0)
(3 6.48884e-17 0)
(3 -5.41134e-16 0)
(3 -6.38976e-16 0)
(3 -5.95481e-16 0)
(3 -5.04263e-17 0)
(3 3.1876e-16 0)
(3 4.59145e-16 0)
(3 1.66781e-16 0)
(3 2.06256e-16 0)
(3 2.28805e-16 0)
(3 4.22859e-16 0)
(3 -1.73623e-16 0)
(3 -9.62681e-16 0)
(3 -1.67643e-15 0)
(3 -1.92177e-15 0)
(3 -2.09901e-15 0)
(3 -2.15737e-15 0)
(3 -1.96627e-15 0)
(3 -1.59068e-15 0)
(3 -1.01531e-15 0)
(3 -4.21332e-16 0)
(3 4.7356e-16 0)
(3 4.97275e-16 0)
(3 4.39492e-16 0)
(3 1.59625e-16 0)
(3 -2.95767e-16 0)
(3 -4.87613e-16 0)
(3 -6.35139e-16 0)
(3 -1.35004e-15 0)
(3 -1.56704e-15 0)
(3 -1.53431e-15 0)
(3 -9.56059e-16 0)
(3 -1.11632e-16 0)
(3 9.70906e-17 0)
(3 1.34652e-16 0)
(3 2.12549e-16 0)
(3 4.94606e-17 0)
(3 -1.57412e-16 0)
(3 -1.54837e-16 0)
(3 -5.47022e-09 0)
(3.02788 0.0154664 0)
(1.27322 0.380077 0)
(0.842288 0.325341 0)
(0.821973 0.331424 0)
(0.806328 0.334588 0)
(0.791287 0.339061 0)
(0.776516 0.34381 0)
(0.762357 0.347987 0)
(0.748987 0.351615 0)
(0.736175 0.354923 0)
(0.723228 0.357626 0)
(0.709683 0.359507 0)
(0.695613 0.361989 0)
(0.681765 0.367144 0)
(0.668949 0.374563 0)
(0.656622 0.381501 0)
(0.643982 0.386005 0)
(0.6308 0.38845 0)
(0.616982 0.390909 0)
(0.602985 0.396377 0)
(0.589881 0.405685 0)
(0.576917 0.415817 0)
(0.562781 0.423005 0)
(0.548105 0.428158 0)
(0.533796 0.434739 0)
(0.520125 0.443483 0)
(0.506227 0.453039 0)
(0.491896 0.462481 0)
(0.476973 0.472489 0)
(0.461319 0.483599 0)
(0.44486 0.495865 0)
(0.427592 0.509066 0)
(0.40978 0.523266 0)
(0.391657 0.53869 0)
(0.373354 0.555365 0)
(0.354801 0.57336 0)
(0.335494 0.592417 0)
(0.315042 0.612485 0)
(0.292753 0.633012 0)
(0.268206 0.653356 0)
(0.241034 0.672097 0)
(0.211219 0.688277 0)
(0.179189 0.70347 0)
(0.141862 0.721432 0)
(0.0958368 0.743033 0)
(0.037024 0.76273 0)
(3 -1.92776e-16 0)
(3 -2.39793e-16 0)
(3 -5.66459e-16 0)
(3 -8.47395e-16 0)
(3 -1.05208e-15 0)
(3 -9.72821e-16 0)