/*--------------------------------*- C++ -*----------------------------------*\
  =========                 |
  \\      /  F ield         | OpenFOAM: The Open Source CFD Toolbox
   \\    /   O peration     | Website:  https://openfoam.org
    \\  /    A nd           | Version:  7
     \\/     M anipulation  |
\*---------------------------------------------------------------------------*/
FoamFile
{
    version     2.0;
    format      ascii;
    class       volScalarField;
    location    "9.3";
    object      p;
}
// * * * * * * * * * * * * * * * * * * * * * * * * * * * * * * * * * * * * * //

dimensions      [1 -1 -2 0 0 0 0];

internalField   nonuniform List<scalar> 
19968
(
1
1
1
1
1
1
1
1
1
1
1
1
1
1
1
1
1
1
1
1
1
1
1
1
1
1
1
1
1
1
1
1
1
1
1
1
1
1
1
1
1
1
1
1
1
1
1
1
1.58299
8.08567
10.4164
10.452
10.5163
10.5705
10.6269
10.6853
10.7473
10.8085
10.8646
10.9147
10.9617
11.0107
11.0632
11.116
11.1675
11.2166
11.2628
11.3066
11.3493
11.3914
11.4323
11.472
11.5113
11.5506
11.5893
11.6258
11.6595
11.6907
11.7205
11.7502
11.7805
11.8113
11.8419
11.8712
11.8982
11.9218
11.9414
11.9572
11.9704
11.9822
11.9938
12.0059
12.0184
12.0299
12.0387
12.0465
1
1
1
1
1
1
1
1
1
1
1
1
1
1
1
1
1
1
1
1
1
1
1
1
1
1
1
1
1
1
1
1
1
1
1
1
1
1
1
1
1
1
1
1
1
1
1
1
1.54667
8.00837
10.4055
10.4556
10.5177
10.5718
10.6274
10.6848
10.7458
10.8066
10.8625
10.9128
10.9598
11.0083
11.06
11.1126
11.1641
11.2131
11.2592
11.3029
11.3456
11.3878
11.4287
11.4683
11.5073
11.5463
11.5846
11.6212
11.6551
11.6865
11.7165
11.7462
11.7764
11.807
11.8374
11.8666
11.8934
11.9167
11.936
11.9517
11.9647
11.9762
11.9876
11.9995
12.0116
12.0227
12.0312
12.0388
1
1
1
1
1
1
1
1
1
1
1
1
1
1
1
1
1
1
1
1
1
1
1
1
1
1
1
1
1
1
1
1
1
1
1
1
1
1
1
1
1
1
1
1
1
1
1
1
1.46858
7.84834
10.4071
10.4464
10.5115
10.5663
10.6215
10.6781
10.7385
10.7994
10.8554
10.9065
10.9538
11.0017
11.0527
11.105
11.1566
11.2057
11.2518
11.2954
11.3382
11.3804
11.4213
11.4606
11.4992
11.5376
11.5758
11.6125
11.6468
11.6785
11.7085
11.738
11.7679
11.7984
11.8288
11.858
11.8847
11.9078
11.9269
11.9424
11.9553
11.9668
11.9781
11.9898
12.0016
12.0124
12.0206
12.0279
1
1
1
1
1
1
1
1
1
1
1
1
1
1
1
1
1
1
1
1
1
1
1
1
1
1
1
1
1
1
1
1
1
1
1
1
1
1
1
1
1
1
1
1
1
1
1
1
1.35934
7.59347
10.4026
10.4403
10.5049
10.5597
10.6141
10.6698
10.7294
10.7903
10.8465
10.8983
10.9458
10.9931
11.0431
11.0946
11.1463
11.1953
11.2415
11.2852
11.3281
11.3702
11.4108
11.4495
11.4872
11.5249
11.5627
11.5996
11.6345
11.6668
11.6969
11.7262
11.7556
11.7856
11.8157
11.8446
11.8707
11.8931
11.9114
11.9263
11.9389
11.9503
11.9616
11.9733
11.9851
11.9959
12.0041
12.0112
1
1
1
1
1
1
1
1
1
1
1
1
1
1
1
1
1
1
1
1
1
1
1
1
1
1
1
1
1
1
1
1
1
1
1
1
1
1
1
1
1
1
1
1
1
1
1
1
1.22777
7.26528
10.4109
10.4365
10.4967
10.5499
10.6027
10.6575
10.7166
10.7776
10.8347
10.8878
10.9359
10.9829
11.0318
11.0822
11.1335
11.1822
11.2284
11.2722
11.3152
11.3571
11.3972
11.4351
11.4719
11.5087
11.5461
11.5835
11.6194
11.6526
11.6831
11.7122
11.7413
11.771
11.8009
11.8296
11.8551
11.8765
11.8936
11.9073
11.9187
11.9292
11.9395
11.9501
11.9607
11.9705
11.9779
11.9844
1
1
1
1
1
1
1
1
1
1
1
1
1
1
1
1
1
1
1
1
1
1
1
1
1
1
1
1
1
1
1
1
1
1
1
1
1
1
1
1
1
1
1
1
1
1
1
1
1.01454
6.73322
10.4128
10.4373
10.4898
10.5436
10.5964
10.6507
10.7085
10.7685
10.8257
10.8794
10.9277
10.9742
11.0214
11.0696
11.1193
11.1666
11.212
11.2553
11.2977
11.3389
11.3778
11.4143
11.4493
11.4844
11.5206
11.5577
11.594
11.6277
11.6584
11.6872
11.7155
11.7446
11.7741
11.8024
11.8277
11.8487
11.8655
11.8789
11.8903
11.9008
11.9112
11.9216
11.9319
11.9412
11.9482
11.9542
1
1
1
1
1
1
1
1
1
1
1
1
1
1
1
1
1
1
1
1
1
1
1
1
1
1
1
1
1
1
1
1
1
1
1
1
1
1
1
1
1
1
1
1
1
1
1
1
1.00008
6.01372
10.3189
10.3889
10.4429
10.4996
10.5536
10.609
10.6672
10.7271
10.7846
10.8391
10.8885
10.9364
10.9845
11.0328
11.0824
11.1295
11.1746
11.2178
11.2607
11.3022
11.3412
11.3771
11.4111
11.4449
11.4802
11.5173
11.5545
11.5893
11.6208
11.6497
11.6777
11.7062
11.7352
11.7633
11.7885
11.8095
11.8262
11.8394
11.8508
11.8612
11.8714
11.8814
11.8911
11.8998
11.9062
11.9118
1
1
1
1
1
1
1
1
1
1
1
1
1
1
1
1
1
1
1
1
1
1
1
1
1
1
1
1
1
1
1
1
1
1
1
1
1
1
1
1
1
1
1
1
1
1
1
1
1
5.09616
10.1802
10.3532
10.4125
10.4735
10.5287
10.5841
10.6414
10.6997
10.7561
10.8095
10.8585
10.9064
10.9546
11.0019
11.05
11.0958
11.1395
11.1818
11.2243
11.2659
11.3046
11.3398
11.3724
11.4044
11.438
11.4743
11.5116
11.5471
11.5791
11.6078
11.635
11.6622
11.6898
11.7168
11.7414
11.7621
11.7787
11.7919
11.8029
11.8129
11.8226
11.832
11.8408
11.8487
11.8545
11.8595
1
1
1
1
1
1
1
1
1
1
1
1
1
1
1
1
1
1
1
1
1
1
1
1
1
1
1
1
1
1
1
1
1
1
1
1
1
1
1
1
1
1
1
1
1
1
1
1
1
4.03271
9.90599
10.3108
10.3736
10.4409
10.4982
10.5543
10.6103
10.6666
10.7213
10.7732
10.8221
10.8701
10.9184
10.9646
11.0103
11.0536
11.0948
11.1353
11.1767
11.2174
11.2552
11.2891
11.32
11.35
11.3816
11.4163
11.4529
11.4885
11.5209
11.5496
11.576
11.6016
11.627
11.6521
11.6757
11.6964
11.7135
11.7273
11.7387
11.7487
11.7581
11.767
11.7752
11.7826
11.7878
11.7924
1
1
1
1
1
1
1
1
1
1
1
1
1
1
1
1
1
1
1
1
1
1
1
1
1
1
1
1
1
1
1
1
1
1
1
1
1
1
1
1
1
1
1
1
1
1
1
1
1
2.91819
9.36464
10.291
10.3532
10.4232
10.4819
10.5373
10.5898
10.6421
10.6927
10.7412
10.7881
10.8345
10.8817
10.9266
10.9695
11.0099
11.0482
11.0865
11.1266
11.1661
11.2022
11.2339
11.2621
11.289
11.3171
11.3484
11.3825
11.4168
11.4486
11.477
11.5024
11.526
11.5489
11.5716
11.5937
11.6143
11.6321
11.6464
11.6577
11.6669
11.6749
11.6822
11.689
11.6955
11.7002
11.7041
1
1
1
1
1
1
1
1
1
1
1
1
1
1
1
1
1
1
1
1
1
1
1
1
1
1
1
1
1
1
1
1
1
1
1
1
1
1
1
1
1
1
1
1
1
1
1
1
1
1.86947
8.4167
10.3171
10.3234
10.3948
10.444
10.4982
10.5497
10.6015
10.6516
10.6996
10.7459
10.7915
10.8373
10.881
10.9219
10.9601
10.9963
11.0326
11.0709
11.1094
11.1445
11.175
11.2012
11.2256
11.2503
11.2777
11.308
11.3392
11.3686
11.3946
11.4168
11.436
11.4535
11.4706
11.4882
11.5058
11.5222
11.5362
11.5475
11.5564
11.564
11.5708
11.5774
11.584
11.589
11.5931
1
1
1
1
1
1
1
1
1
1
1
1
1
1
1
1
1
1
1
1
1
1
1
1
1
1
1
1
1
1
1
1
1
1
1
1
1
1
1
1
1
1
1
1
1
1
1
1
1
1.03477
6.74617
10.3502
10.3664
10.4014
10.4395
10.4851
10.5317
10.5786
10.6234
10.6656
10.7064
10.7471
10.7879
10.8285
10.8657
10.8993
10.9305
10.9619
10.9956
11.0312
11.0641
11.093
11.1176
11.1397
11.1613
11.1846
11.2106
11.2382
11.2651
11.2889
11.3087
11.3248
11.3386
11.3519
11.3659
11.3812
11.3963
11.4091
11.4181
11.4228
11.4248
11.425
11.4252
11.4275
11.4303
11.4334
1
1
1
1
1
1
1
1
1
1
1
1
1
1
1
1
1
1
1
1
1
1
1
1
1
1
1
1
1
1
1
1
1
1
1
1
1
1
1
1
1
1
1
1
1
1
1
1
1
1.00006
4.64535
9.92544
10.1999
10.2608
10.3214
10.3747
10.426
10.4748
10.5206
10.5635
10.6044
10.6453
10.6864
10.7267
10.764
10.7965
10.8252
10.8538
10.8843
10.9179
10.9507
10.9802
11.0056
11.0271
11.0465
11.0659
11.0873
11.1105
11.1336
11.1539
11.1696
11.1808
11.1888
11.1955
11.202
11.2093
11.2167
11.2222
11.2241
11.2232
11.2207
11.2187
11.2184
11.2219
11.2256
11.23
1
1
1
1
1
1
1
1
1
1
1
1
1
1
1
1
1
1
1
1
1
1
1
1
1
1
1
1
1
1
1
1
1
1
1
1
1
1
1
1
1
1
1
1
1
1
1
1
1
1
2.4147
8.80185
10.1468
10.1898
10.2681
10.3244
10.3741
10.4197
10.4625
10.5026
10.5402
10.5774
10.6155
10.6531
10.6883
10.7184
10.7429
10.7656
10.7896
10.8166
10.8456
10.8726
10.896
10.9143
10.9285
10.941
10.9546
10.9699
10.9859
10.9995
11.0079
11.0113
11.0117
11.0106
11.0096
11.0104
11.0119
11.0122
11.0086
10.9994
10.9843
10.9665
10.945
10.9228
10.9005
10.8819
1
1
1
1
1
1
1
1
1
1
1
1
1
1
1
1
1
1
1
1
1
1
1
1
1
1
1
1
1
1
1
1
1
1
1
1
1
1
1
1
1
1
1
1
1
1
1
1
1
1
1.06044
6.41994
10.2205
10.2356
10.2567
10.2874
10.3191
10.3534
10.3881
10.4218
10.4535
10.4841
10.5163
10.5497
10.5823
10.6111
10.6329
10.65
10.6673
10.6866
10.7094
10.732
10.7516
10.7662
10.7752
10.7806
10.7852
10.7913
10.7992
10.8052
10.8055
10.7988
10.7868
10.7722
10.7573
10.7429
10.7258
10.7024
10.6684
10.6226
10.5684
10.5127
10.4673
10.4298
10.4121
10.4049
1
1
1
1
1
1
1
1
1
1
1
1
1
1
1
1
1
1
1
1
1
1
1
1
1
1
1
1
1
1
1
1
1
1
1
1
1
1
1
1
1
1
1
1
1
1
1
1
1
1
1.00009
3.32912
9.28304
10.0463
10.1067
10.1546
10.1951
10.233
10.2681
10.3012
10.3326
10.3629
10.3941
10.4275
10.4605
10.4897
10.5121
10.5271
10.5385
10.5498
10.5631
10.5783
10.5927
10.6025
10.6055
10.6006
10.5916
10.5846
10.582
10.579
10.5694
10.5495
10.52
10.485
10.4485
10.4116
10.3709
10.3222
10.2618
10.1905
10.1122
10.0328
9.9439
9.86027
9.74439
9.83422
1
1
1
1
1
1
1
1
1
1
1
1
1
1
1
1
1
1
1
1
1
1
1
1
1
1
1
1
1
1
1
1
1
1
1
1
1
1
1
1
1
1
1
1
1
1
1
1
1
1
1
1.25911
7.36758
10.0795
10.0585
10.0835
10.1187
10.1539
10.1876
10.2184
10.2464
10.2718
10.2961
10.3229
10.3514
10.3782
10.3999
10.4131
10.419
10.4224
10.4258
10.4317
10.4392
10.4445
10.4416
10.428
10.4066
10.385
10.3696
10.3564
10.3374
10.3055
10.2593
10.2024
10.1398
10.0738
9.99982
9.91118
9.7967
9.65051
9.45587
9.2012
8.82662
8.27514
7.34565
5.46856
1
1
1
1
1
1
1
1
1
1
1
1
1
1
1
1
1
1
1
1
1
1
1
1
1
1
1
1
1
1
1
1
1
1
1
1
1
1
1
1
1
1
1
1
1
1
1
1
1
1
1
1.00235
4.68082
9.58352
9.92077
9.96947
10.0228
10.0625
10.0939
10.119
10.1428
10.1649
10.1857
10.2087
10.2347
10.2608
10.2825
10.297
10.3036
10.3028
10.2985
10.2955
10.2962
10.298
10.2938
10.2771
10.2475
10.2127
10.1821
10.1559
10.1268
10.0854
10.0266
9.95142
9.86386
9.76848
9.65941
9.53123
9.36436
9.15502
8.87245
8.51527
8.00457
7.34363
6.1302
4.52308
1
1
1
1
1
1
1
1
1
1
1
1
1
1
1
1
1
1
1
1
1
1
1
1
1
1
1
1
1
1
1
1
1
1
1
1
1
1
1
1
1
1
1
1
1
1
1
1
1
1
1
0.999995
1.96631
8.17882
9.88835
9.89937
9.95862
9.99812
10.0292
10.0504
10.0706
10.0898
10.1066
10.1233
10.1417
10.1615
10.1792
10.1925
10.1976
10.193
10.1809
10.1675
10.1572
10.1507
10.1422
10.1231
10.0894
10.0448
9.99842
9.95532
9.91151
9.85833
9.78683
9.69549
9.58502
9.46232
9.32069
9.1562
8.94939
8.69208
8.36465
7.94537
7.40627
6.65636
5.64431
4.53222
1
1
1
1
1
1
1
1
1
1
1
1
1
1
1
1
1
1
1
1
1
1
1
1
1
1
1
1
1
1
1
1
1
1
1
1
1
1
1
1
1
1
1
1
1
1
1
1
1
1
1
0.999999
1.03507
5.40635
9.73497
9.8404
9.86798
9.90001
9.92995
9.95461
9.97944
10.0027
10.0196
10.0329
10.0446
10.0562
10.0675
10.0761
10.0785
10.0721
10.0567
10.0367
10.0161
9.99817
9.98053
9.95683
9.9212
9.8723
9.81508
9.75694
9.69731
9.63076
9.54643
9.44145
9.31315
9.16827
9.00222
8.81007
8.57865
8.29503
7.9498
7.51531
6.99231
6.31454
5.54608
4.72345
1
1
1
1
1
1
1
1
1
1
1
1
1
1
1
1
1
1
1
1
1
1
1
1
1
1
1
1
1
1
1
1
1
1
1
1
1
1
1
1
1
1
1
1
1
1
1
1
1
1
1
1
1.00001
2.18351
8.39947
9.85353
9.81049
9.83734
9.8607
9.87853
9.89715
9.91815
9.93409
9.94593
9.95343
9.95679
9.95852
9.95727
9.95251
9.94339
9.92839
9.9072
9.8815
9.85375
9.82451
9.79169
9.7503
9.69814
9.63474
9.56635
9.49314
9.41263
9.31551
9.19851
9.05798
8.8981
8.71712
8.50987
8.26787
7.97849
7.63749
7.22109
6.74144
6.17809
5.58406
4.92976
1
1
1
1
1
1
1
1
1
1
1
1
1
1
1
1
1
1
1
1
1
1
1
1
1
1
1
1
1
1
1
1
1
1
1
1
1
1
1
1
1
1
1
1
1
1
1
1
1
1
1
1
1
1.04564
5.44586
9.69714
9.75123
9.77661
9.78926
9.8018
9.81613
9.83315
9.84679
9.85671
9.86022
9.85886
9.85309
9.84248
9.82918
9.81364
9.79481
9.7724
9.74474
9.71124
9.67286
9.63024
9.58113
9.52507
9.45834
9.38371
9.29978
9.20617
9.09725
8.9706
8.82292
8.65492
8.4663
8.25319
8.01126
7.72869
7.41112
7.02256
6.6052
6.13785
5.64142
5.12185
1
1
1
1
1
1
1
1
1
1
1
1
1
1
1
1
1
1
1
1
1
1
1
1
1
1
1
1
1
1
1
1
1
1
1
1
1
1
1
1
1
1
1
1
1
1
1
1
1
1
1
1
1
1.00004
2.03428
8.1968
9.74209
9.71187
9.7195
9.72248
9.7277
9.73631
9.74527
9.75272
9.75354
9.75124
9.74161
9.72412
9.70465
9.6823
9.65716
9.63155
9.6019
9.56579
9.52215
9.47192
9.41559
9.35516
9.28653
9.20863
9.11791
9.01424
8.89565
8.76176
8.61036
8.43992
8.25038
8.0383
7.80422
7.53444
7.24045
6.89806
6.53742
6.12786
5.70989
5.27393
1
1
1
1
1
1
1
1
1
1
1
1
1
1
1
1
1
1
1
1
1
1
1
1
1
1
1
1
1
1
1
1
1
1
1
1
1
1
1
1
1
1
1
1
1
1
1
1
1
1
1
1
1
1
1.03339
4.88798
9.43367
9.61885
9.63104
9.63862
9.65223
9.65953
9.66466
9.66715
9.66402
9.66022
9.64809
9.62597
9.60085
9.57162
9.53743
9.50338
9.46694
9.42615
9.37748
9.32148
9.25974
9.19532
9.12494
9.04482
8.94974
8.83914
8.71363
8.57511
8.4224
8.25327
8.06738
7.86074
7.63676
7.38021
7.11251
6.81389
6.4893
6.13909
5.78395
5.40838
1
1
1
1
1
1
1
1
1
1
1
1
1
1
1
1
1
1
1
1
1
1
1
1
1
1
1
1
1
1
1
1
1
1
1
1
1
1
1
1
1
1
1
1
1
1
1
1
1
1
1
1
1
1
1.00003
1.5421
7.61484
9.67185
9.61296
9.59306
9.58193
9.57442
9.56868
9.56226
9.55445
9.54875
9.53595
9.51273
9.48552
9.45412
9.41493
9.37547
9.33294
9.28785
9.23587
9.17671
9.11123
9.04276
8.9695
8.88743
8.79059
8.67721
8.54894
8.40854
8.25643
8.09078
7.91228
7.7143
7.50176
7.26415
7.01846
6.74571
6.46221
6.16309
5.84731
5.51015
1
1
1
1
1
1
1
1
1
1
1
1
1
1
1
1
1
1
1
1
1
1
1
1
1
1
1
1
1
1
1
1
1
1
1
1
1
1
1
1
1
1
1
1
1
1
1
1
1
1
1
1
1
1
1
1.00868
3.89536
9.01783
9.41317
9.44434
9.46466
9.46298
9.45626
9.44725
9.43739
9.43082
9.4175
9.39544
9.36911
9.3381
9.29782
9.25653
9.20866
9.15803
9.10198
9.04033
8.97249
8.90089
8.82316
8.73758
8.63978
8.52713
8.40075
8.26202
8.11289
7.95151
7.78214
7.59132
7.39234
7.17609
6.94397
6.69603
6.45033
6.18212
5.88933
5.59778
1
1
1
1
1
1
1
1
1
1
1
1
1
1
1
1
1
1
1
1
1
1
1
1
1
1
1
1
1
1
1
1
1
1
1
1
1
1
1
1
1
1
1
1
1
1
1
1
1
1
1
1
1
1
1
1
1.21971
6.29533
9.38031
9.40044
9.38475
9.37136
9.36367
9.35166
9.33898
9.32808
9.31244
9.28777
9.26067
9.22956
9.18975
9.14732
9.09603
9.04064
8.98222
8.91616
8.84588
8.77066
8.68843
8.59898
8.49967
8.38856
8.26674
8.13223
7.98838
7.83104
7.67008
7.48606
7.30192
7.10213
6.88636
6.66771
6.44127
6.18926
5.92903
5.67973
1
1
1
1
1
1
1
1
1
1
1
1
1
1
1
1
1
1
1
1
1
1
1
1
1
1
1
1
1
1
1
1
1
1
1
1
1
1
1
1
1
1
1
1
1
1
1
1
1
1
1
1
1
1
1
1
1.00146
2.19599
8.0343
9.30594
9.26089
9.26632
9.26111
9.25231
9.23915
9.22424
9.20752
9.18361
9.15594
9.1245
9.08476
9.04028
8.98722
8.92853
8.8692
8.80045
8.72631
8.64834
8.56332
8.47125
8.37045
8.26036
8.14321
8.0147
7.88161
7.72743
7.57207
7.39832
7.22492
7.03788
6.84465
6.64507
6.42517
6.1993
5.97299
5.74701
1
1
1
1
1
1
1
1
1
1
1
1
1
1
1
1
1
1
1
1
1
1
1
1
1
1
1
1
1
1
1
1
1
1
1
1
1
1
1
1
1
1
1
1
1
1
1
1
1
1
1
1
1
1
1
1
1
1.04049
4.186
8.88605
9.17011
9.18237
9.18292
9.17406
9.15736
9.13548
9.11517
9.08933
9.05883
9.02626
8.9867
8.94016
8.88589
8.82369
8.76178
8.69256
8.61665
8.53683
8.45225
8.36176
8.25893
8.15058
8.03607
7.91339
7.78628
7.63862
7.4896
7.32791
7.16094
6.98584
6.80959
6.61784
6.41172
6.21658
6.01038
5.79921
1
1
1
1
1
1
1
1
1
1
1
1
1
1
1
1
1
1
1
1
1
1
1
1
1
1
1
1
1
1
1
1
1
1
1
1
1
1
1
1
1
1
1
1
1
1
1
1
1
1
1
1
1
1
1
1
1
1.00008
1.25931
5.74204
8.99813
9.15294
9.14239
9.12714
9.10336
9.06952
9.03889
9.0068
8.9703
8.93297
8.892
8.84403
8.78875
8.72482
8.65924
8.59196
8.51508
8.43541
8.34989
8.26044
8.16044
8.05293
7.9405
7.82214
7.69625
7.55994
7.41795
7.26649
7.10727
6.94426
6.77785
6.59375
6.40781
6.23198
6.03903
5.84268
1
1
1
1
1
1
1
1
1
1
1
1
1
1
1
1
1
1
1
1
1
1
1
1
1
1
1
1
1
1
1
1
1
1
1
1
1
1
1
1
1
1
1
1
1
1
1
1
1
1
1
1
1
1
1
1
1
1
1.00211
1.63252
7.24983
9.1608
9.11533
9.07269
9.02561
8.98065
8.93901
8.90143
8.86507
8.82737
8.78794
8.74375
8.69125
8.62918
8.56243
8.49615
8.4195
8.33992
8.25552
8.16696
8.07155
7.96886
7.85986
7.7436
7.62131
7.49243
7.35725
7.21399
7.06443
6.91232
6.75193
6.57935
6.4122
6.24707
6.06781
5.88934
1
1
1
1
1
1
1
1
1
1
1
1
1
1
1
1
1
1
1
1
1
1
1
1
1
1
1
1
1
1
1
1
1
1
1
1
1
1
1
1
1
1
1
1
1
1
1
1
1
1
1
1
1
1
1
1
1
1
1
1.01151
3.05999
8.32068
8.95164
8.89338
8.86632
8.84179
8.81772
8.78978
8.75966
8.72531
8.68556
8.64264
8.59506
8.53659
8.47267
8.40896
8.33458
8.2557
8.17207
8.08384
7.99063
7.89013
7.78445
7.67237
7.5542
7.43114
7.30274
7.168
7.02967
6.88753
6.73251
6.57618
6.42641
6.27038
6.10695
5.94838
1
1
1
1
1
1
1
1
1
1
1
1
1
1
1
1
1
1
1
1
1
1
1
1
1
1
1
1
1
1
1
1
1
1
1
1
1
1
1
1
1
1
1
1
1
1
1
1
1
1
1
1
1
1
1
1
1
1
1
1.00002
1.11118
4.38301
8.5984
8.79248
8.76908
8.77132
8.7573
8.73248
8.69918
8.65988
8.61534
8.56769
8.52063
8.46293
8.40033
8.33682
8.2632
8.18389
8.09995
8.01113
7.91932
7.82101
7.71715
7.60917
7.4961
7.37968
7.25923
7.13393
7.00527
6.87069
6.72502
6.58817
6.45606
6.31457
6.17229
6.03715
1
1
1
1
1
1
1
1
1
1
1
1
1
1
1
1
1
1
1
1
1
1
1
1
1
1
1
1
1
1
1
1
1
1
1
1
1
1
1
1
1
1
1
1
1
1
1
1
1
1
1
1
1
1
1
1
1
1
1
1
1.00053
1.29848
5.20267
8.58706
8.71949
8.72016
8.70945
8.68331
8.64799
8.60503
8.55612
8.50314
8.45056
8.39091
8.32893
8.26369
8.191
8.11313
8.03031
7.942
7.85028
7.75553
7.65471
7.54935
7.44387
7.33582
7.22306
7.10722
6.98861
6.86568
6.74172
6.63205
6.5197
6.39909
6.28663
6.17717
1
1
1
1
1
1
1
1
1
1
1
1
1
1
1
1
1
1
1
1
1
1
1
1
1
1
1
1
1
1
1
1
1
1
1
1
1
1
1
1
1
1
1
1
1
1
1
1
1
1
1
1
1
1
1
1
1
1
1
1
1
1.00291
1.4956
5.88674
8.59093
8.694
8.66587
8.6348
8.59776
8.55233
8.50147
8.44774
8.39209
8.33066
8.26685
8.19896
8.12582
8.04849
7.96702
7.88075
7.79055
7.69907
7.60401
7.50272
7.403
7.30282
7.20019
7.09891
7.00019
6.90411
6.80948
6.72983
6.64088
6.54301
6.45661
6.36292
1
1
1
1
1
1
1
1
1
1
1
1
1
1
1
1
1
1
1
1
1
1
1
1
1
1
1
1
1
1
1
1
1
1
1
1
1
1
1
1
1
1
1
1
1
1
1
1
1
1
1
1
1
1
1
1
1
1
1
1
1
1
1.00736
1.72553
6.47243
8.56895
8.61483
8.5858
8.54392
8.49837
8.44664
8.39219
8.33341
8.27059
8.20416
8.13331
8.05919
7.98225
7.90234
7.81896
7.73283
7.64634
7.55761
7.46589
7.37732
7.29245
7.21313
7.14405
7.07694
7.01165
6.94896
6.89208
6.81227
6.72776
6.6501
6.5553
1
1
1
1
1
1
1
1
1
1
1
1
1
1
1
1
1
1
1
1
1
1
1
1
1
1
1
1
1
1
1
1
1
1
1
1
1
1
1
1
1
1
1
1
1
1
1
1
1
1
1
1
1
1
1
1
1
1
1
1
1
1
1.00001
1.01488
1.99004
6.91407
8.54003
8.54515
8.5068
8.45478
8.40005
8.34216
8.27939
8.21431
8.1454
8.07283
7.99844
7.92232
7.84435
7.76445
7.68404
7.60343
7.5258
7.45566
7.39578
7.34427
7.3036
7.26791
7.22977
7.18723
7.13744
7.0793
6.99316
6.91064
6.82699
6.72564
1
1
1
1
1
1
1
1
1
1
1
1
1
1
1
1
1
1
1
1
1
1
1
1
1
1
1
1
1
1
1
1
1
1
1
1
1
1
1
1
1
1
1
1
1
1
1
1
1
1
1
1
1
1
1
1
1
1
1
1
1
1
1
1.00004
1.02679
2.25287
7.30666
8.50147
8.459
8.40936
8.34539
8.28477
8.22112
8.15578
8.08553
8.01327
7.93987
7.86477
7.78914
7.71395
7.64196
7.57921
7.53272
7.50692
7.49241
7.47844
7.4731
7.45925
7.42671
7.38262
7.32426
7.25097
7.15664
7.07158
6.98218
6.87881
1
1
1
1
1
1
1
1
1
1
1
1
1
1
1
1
1
1
1
1
1
1
1
1
1
1
1
1
1
1
1
1
1
1
1
1
1
1
1
1
1
1
1
1
1
1
1
1
1
1
1
1
1
1
1
1
1
1
1
1
1
1
1
1
1.00008
1.04224
2.66549
7.5352
8.38633
8.33195
8.28634
8.22575
8.16291
8.09719
8.02942
7.95942
7.88769
7.81399
7.74246
7.68021
7.64078
7.62624
7.63435
7.65502
7.67891
7.69156
7.69916
7.66975
7.61819
7.55867
7.48543
7.39685
7.29918
7.21497
7.12488
7.02355
1
1
1
1
1
1
1
1
1
1
1
1
1
1
1
1
1
1
1
1
1
1
1
1
1
1
1
1
1
1
1
1
1
1
1
1
1
1
1
1
1
1
1
1
1
1
1
1
1
1
1
1
1
1
1
1
1
1
1
1
1
1
1
1
1
1.00015
1.07324
2.94764
7.57793
8.27017
8.21695
8.15991
8.10504
8.04551
7.97943
7.90969
7.84049
7.77725
7.73749
7.72151
7.741
7.79425
7.85511
7.90536
7.93266
7.93581
7.90933
7.84669
7.77486
7.70578
7.62249
7.52593
7.43364
7.35615
7.26806
7.17017
1
1
1
1
1
1
1
1
1
1
1
1
1
1
1
1
1
1
1
1
1
1
1
1
1
1
1
1
1
1
1
1
1
1
1
1
1
1
1
1
1
1
1
1
1
1
1
1
1
1
1
1
1
1
1
1
1
1
1
1
1
1
1
1
1
1
1.00035
1.10126
3.03764
7.49913
8.15909
8.10863
8.05552
7.99504
7.93377
7.86698
7.81909
7.792
7.80957
7.88651
7.97827
8.08132
8.14852
8.17699
8.16972
8.13406
8.0711
7.9835
7.90521
7.83511
7.74719
7.65051
7.56937
7.49843
7.41087
7.31708
1
1
1
1
1
1
1
1
1
1
1
1
1
1
1
1
1
1
1
1
1
1
1
1
1
1
1
1
1
1
1
1
1
1
1
1
1
1
1
1
1
1
1
1
1
1
1
1
1
1
1
1
1
1
1
1
1
1
1
1
1
1
1
1
1
1
1
1.00059
1.11318
2.97437
7.36668
8.07152
8.01935
7.95559
7.89528
7.85176
7.84786
7.92095
8.0417
8.20381
8.33009
8.41058
8.43789
8.40588
8.35367
8.29075
8.20562
8.11206
8.03772
7.96791
7.87863
7.78782
7.71747
7.64691
7.55682
7.46664
1
1
1
1
1
1
1
1
1
1
1
1
1
1
1
1
1
1
1
1
1
1
1
1
1
1
1
1
1
1
1
1
1
1
1
1
1
1
1
1
1
1
1
1
1
1
1
1
1
1
1
1
1
1
1
1
1
1
1
1
1
1
1
1
1
1
1
1
1.00072
1.10808
2.89048
7.17887
7.95697
7.90193
7.88234
7.90872
8.03286
8.24419
8.45136
8.60202
8.67002
8.68689
8.64353
8.57077
8.50268
8.42509
8.32963
8.23937
8.17232
8.10354
8.0135
7.93111
7.86904
7.79586
7.70503
7.6214
1
1
1
1
1
1
1
1
1
1
1
1
1
1
1
1
1
1
1
1
1
1
1
1
1
1
1
1
1
1
1
1
1
1
1
1
1
1
1
1
1
1
1
1
1
1
1
1
1
1
1
1
1
1
1
1
1
1
1
1
1
1
1
1
1
1
1
1
1
1.00068
1.09939
2.74857
6.89726
7.86309
7.98356
8.1721
8.51612
8.76302
8.88754
8.93039
8.9138
8.85693
8.77591
8.69865
8.63182
8.55078
8.45823
8.38485
8.3287
8.25894
8.16466
8.08595
8.02397
7.94485
7.85527
7.77774
1
1
1
1
1
1
1
1
1
1
1
1
1
1
1
1
1
1
1
1
1
1
1
1
1
1
1
1
1
1
1
1
1
1
1
1
1
1
1
1
1
1
1
1
1
1
1
1
1
1
1
1
1
1
1
1
1
1
1
1
1
1
1
1
1
1
1
1
1
1
1.0006
1.08507
2.5279
6.64604
8.30758
8.82152
9.07747
9.17426
9.18084
9.13312
9.07263
8.98274
8.88865
8.81854
8.75462
8.66993
8.58578
8.531
8.4816
8.40499
8.30976
8.24255
8.18557
8.10403
8.01577
7.94007
1
1
1
1
1
1
1
1
1
1
1
1
1
1
1
1
1
1
1
1
1
1
1
1
1
1
1
1
1
1
1
1
1
1
1
1
1
1
1
1
1
1
1
1
1
1
1
1
1
1
1
1
1
1
1
1
1
1
1
1
1
1
1
1
1
1
1
1
1
1
1
1.00048
1.06506
2.3959
7.9734
9.59513
9.47461
9.39688
9.3191
9.25037
9.18485
9.10171
9.02074
8.96082
8.89964
8.81438
8.73651
8.686
8.63025
8.54139
8.44742
8.39077
8.33796
8.2519
8.16416
8.09508
1
1
1
1
1
1
1
1
1
1
1
1
1
1
1
1
1
1
1
1
1
1
1
1
1
1
1
1
1
1
1
1
1
1
1
1
1
1
1
1
1
1
1
1
1
1
1
1
1
1
1
1
1
1
1
1
1
1
1
1
1
1
1
1
1
1
1
1
1
1
1
1
1.00036
1.0547
5.30096
9.68574
9.61374
9.53413
9.46259
9.39662
9.31446
9.21941
9.13828
9.08406
9.02482
8.94608
8.87987
8.83494
8.77956
8.69231
8.60702
8.55309
8.49471
8.39862
8.31136
8.24793
1
1
1
1
1
1
1
1
1
1
1
1
1
1
1
1
1
1
1
1
1
1
1
1
1
1
1
1
1
1
1
1
1
1
1
1
1
1
1
1
1
1
1
1
1
1
1
1
1
1
1
1
1
1
1
1
1
1
1
1
1
1
1
1
1
1
1
1
1
1
1
1
1
1.00013
1.97337
8.22554
9.75442
9.62927
9.55873
9.47272
9.3919
9.32069
9.26893
9.2257
9.16399
9.09094
9.0283
8.9783
8.91484
8.82649
8.74718
8.69732
8.63778
8.54807
8.47335
8.41304
1
1
1
1
1
1
1
1
1
1
1
1
1
1
1
1
1
1
1
1
1
1
1
1
1
1
1
1
1
1
1
1
1
1
1
1
1
1
1
1
1
1
1
1
1
1
1
1
1
1
1
1
1
1
1
1
1
1
1
1
1
1
1
1
1
1
1
1
1
1
1
1
1
1
1.02642
5.04973
9.54656
9.66429
9.61028
9.56417
9.51679
9.46794
9.41679
9.36072
9.29802
9.23936
9.18315
9.12298
9.04869
8.96502
8.89411
8.84389
8.77913
8.69082
8.61848
8.55544
1
1
1
1
1
1
1
1
1
1
1
1
1
1
1
1
1
1
1
1
1
1
1
1
1
1
1
1
1
1
1
1
1
1
1
1
1
1
1
1
1
1
1
1
1
1
1
1
1
1
1
1
1
1
1
1
1
1
1
1
1
1
1
1
1
1
1
1
1
1
1
1
1
1
1.00003
1.91856
8.22937
9.80556
9.71649
9.67038
9.62789
9.58809
9.54101
9.48692
9.42785
9.36751
9.30219
9.23362
9.16227
9.09766
9.04235
8.98701
8.91478
8.83304
8.76499
8.70107
1
1
1
1
1
1
1
1
1
1
1
1
1
1
1
1
1
1
1
1
1
1
1
1
1
1
1
1
1
1
1
1
1
1
1
1
1
1
1
1
1
1
1
1
1
1
1
1
1
1
1
1
1
1
1
1
1
1
1
1
1
1
1
1
1
1
1
1
1
1
1
1
1
1
1
1.02598
5.37828
9.65012
9.77962
9.7291
9.69305
9.65013
9.6037
9.55584
9.50549
9.45246
9.39525
9.337
9.27933
9.22185
9.16207
9.09745
9.02564
8.95936
8.90116
8.83977
1
1
1
1
1
1
1
1
1
1
1
1
1
1
1
1
1
1
1
1
1
1
1
1
1
1
1
1
1
1
1
1
1
1
1
1
1
1
1
1
1
1
1
1
1
1
1
1
1
1
1
1
1
1
1
1
1
1
1
1
1
1
1
1
1
1
1
1
1
1
1
1
1
1
1
1.00001
2.36206
8.61888
9.8777
9.81337
9.77147
9.72982
9.68378
9.63601
9.5881
9.54005
9.4906
9.44056
9.38913
9.33326
9.27405
9.21046
9.14619
9.08551
9.02085
8.95341
1
1
1
1
1
1
1
1
1
1
1
1
1
1
1
1
1
1
1
1
1
1
1
1
1
1
1
1
1
1
1
1
1
1
1
1
1
1
1
1
1
1
1
1
1
1
1
1
1
1
1
1
1
1
1
1
1
1
1
1
1
1
1
1
1
1
1
1
1
1
1
1
1
1
1
1
1.06058
6.2655
9.88066
9.9192
9.84099
9.79093
9.74155
9.69613
9.64974
9.60129
9.55208
9.50143
9.44909
9.39573
9.34054
9.28427
9.22828
9.1727
9.11228
9.05133
1
1
1
1
1
1
1
1
1
1
1
1
1
1
1
1
1
1
1
1
1
1
1
1
1
1
1
1
1
1
1
1
1
1
1
1
1
1
1
1
1
1
1
1
1
1
1
1
1
1
1
1
1
1
1
1
1
1
1
1
1
1
1
1
1
1
1
1
1
1
1
1
1
1
1
1
1.00007
3.33408
9.15491
9.92137
9.86226
9.82697
9.78361
9.74202
9.69849
9.65367
9.60718
9.55877
9.50808
9.45734
9.4054
9.35374
9.30141
9.24795
9.19376
9.1389
1
1
1
1
1
1
1
1
1
1
1
1
1
1
1
1
1
1
1
1
1
1
1
1
1
1
1
1
1
1
1
1
1
1
1
1
1
1
1
1
1
1
1
1
1
1
1
1
1
1
1
1
1
1
1
1
1
1
1
1
1
1
1
1
1
1
1
1
1
1
1
1
1
1
1
1
1
1.36605
7.68407
10.0756
9.95698
9.89218
9.84278
9.79934
9.75564
9.71096
9.6649
9.61792
9.5707
9.52331
9.47435
9.42522
9.37419
9.32052
9.26506
9.2088
1
1
1
1
1
1
1
1
1
1
1
1
1
1
1
1
1
1
1
1
1
1
1
1
1
1
1
1
1
1
1
1
1
1
1
1
1
1
1
1
1
1
1
1
1
1
1
1
1
1
1
1
1
1
1
1
1
1
1
1
1
1
1
1
1
1
1
1
1
1
1
1
1
1
1
1
1
1.00421
5.37237
9.83355
9.96502
9.93788
9.90088
9.85361
9.80705
9.76086
9.71437
9.66745
9.62033
9.57247
9.52354
9.47434
9.42355
9.37238
9.32114
9.26854
1
1
1
1
1
1
1
1
1
1
1
1
1
1
1
1
1
1
1
1
1
1
1
1
1
1
1
1
1
1
1
1
1
1
1
1
1
1
1
1
1
1
1
1
1
1
1
1
1
1
1
1
1
1
1
1
1
1
1
1
1
1
1
1
1
1
1
1
1
1
1
1
1
1
1
1
1
0.999998
2.93587
9.04919
10.0585
10.0001
9.96264
9.91233
9.86487
9.81743
9.76994
9.7222
9.67443
9.62604
9.57748
9.5285
9.47881
9.42898
9.3789
9.32751
1
1
1
1
1
1
1
1
1
1
1
1
1
1
1
1
1
1
1
1
1
1
1
1
1
1
1
1
1
1
1
1
1
1
1
1
1
1
1
1
1
1
1
1
1
1
1
1
1
1
1
1
1
1
1
1
1
1
1
1
1
1
1
1
1
1
1
1
1
1
1
1
1
1
1
1
1
1
1.33222
7.61291
10.1763
10.065
9.99527
9.94422
9.89956
9.85492
9.80973
9.76396
9.71787
9.67082
9.62374
9.57575
9.52719
9.47809
9.42852
9.37835
1
1
1
1
1
1
1
1
1
1
1
1
1
1
1
1
1
1
1
1
1
1
1
1
1
1
1
1
1
1
1
1
1
1
1
1
1
1
1
1
1
1
1
1
1
1
1
1
1
1
1
1
1
1
1
1
1
1
1
1
1
1
1
1
1
1
1
1
1
1
1
1
1
1
1
1
1
1
1.00388
5.68788
9.99142
10.0695
10.0285
9.99124
9.94604
9.89939
9.85266
9.80614
9.75999
9.71336
9.66684
9.61946
9.57156
9.52304
9.47391
9.42442
1
1
1
1
1
1
1
1
1
1
1
1
1
1
1
1
1
1
1
1
1
1
1
1
1
1
1
1
1
1
1
1
1
1
1
1
1
1
1
1
1
1
1
1
1
1
1
1
1
1
1
1
1
1
1
1
1
1
1
1
1
1
1
1
1
1
1
1
1
1
1
1
1
1
1
1
1
1
0.999997
3.64113
9.42703
10.0596
10.0098
9.98818
9.95109
9.91264
9.87181
9.82985
9.78731
9.74359
9.69935
9.65396
9.60785
9.56096
9.51316
9.46502
1
1
1
1
1
1
1
1
1
1
1
1
1
1
1
1
1
1
1
1
1
1
1
1
1
1
1
1
1
1
1
1
1
1
1
1
1
1
1
1
1
1
1
1
1
1
1
1
1
1
1
1
1
1
1
1
1
1
1
1
1
1
1
1
1
1
1
1
1
1
1
1
1
1
1
1
1
1
1
2.02328
8.4435
10.2356
10.1493
10.0975
10.043
9.9944
9.94683
9.90026
9.85411
9.80772
9.76123
9.71415
9.66667
9.61866
9.56993
9.52098
1
1
1
1
1
1
1
1
1
1
1
1
1
1
1
1
1
1
1
1
1
1
1
1
1
1
1
1
1
1
1
1
1
1
1
1
1
1
1
1
1
1
1
1
1
1
1
1
1
1
1
1
1
1
1
1
1
1
1
1
1
1
1
1
1
1
1
1
1
1
1
1
1
1
1
1
1
1
1
1.05024
6.93584
10.2695
10.1876
10.1113
10.0595
10.0153
9.97313
9.9299
9.88572
9.8407
9.79509
9.74878
9.70204
9.65477
9.60682
9.55854
1
1
1
1
1
1
1
1
1
1
1
1
1
1
1
1
1
1
1
1
1
1
1
1
1
1
1
1
1
1
1
1
1
1
1
1
1
1
1
1
1
1
1
1
1
1
1
1
1
1
1
1
1
1
1
1
1
1
1
1
1
1
1
1
1
1
1
1
1
1
1
1
1
1
1
1
1
1
1
1.00005
5.33504
10.0277
10.1569
10.1196
10.0879
10.0478
10.0062
9.96242
9.91776
9.87247
9.82671
9.78041
9.7339
9.68702
9.63959
9.59183
1
1
1
1
1
1
1
1
1
1
1
1
1
1
1
1
1
1
1
1
1
1
1
1
1
1
1
1
1
1
1
1
1
1
1
1
1
1
1
1
1
1
1
1
1
1
1
1
1
1
1
1
1
1
1
1
1
1
1
1
1
1
1
1
1
1
1
1
1
1
1
1
1
1
1
1
1
1
1
1
3.8233
9.58726
10.1769
10.1303
10.1051
10.068
10.0293
9.98788
9.94513
9.90149
9.85699
9.81168
9.766
9.71985
9.67306
9.62577
1
1
1
1
1
1
1
1
1
1
1
1
1
1
1
1
1
1
1
1
1
1
1
1
1
1
1
1
1
1
1
1
1
1
1
1
1
1
1
1
1
1
1
1
1
1
1
1
1
1
1
1
1
1
1
1
1
1
1
1
1
1
1
1
1
1
1
1
1
1
1
1
1
1
1
1
1
1
1
1
2.52347
8.93741
10.2583
10.1844
10.149
10.1043
10.0604
10.0158
9.97117
9.92669
9.882
9.83679
9.79109
9.74502
9.6986
9.65158
1
1
1
1
1
1
1
1
1
1
1
1
1
1
1
1
1
1
1
1
1
1
1
1
1
1
1
1
1
1
1
1
1
1
1
1
1
1
1
1
1
1
1
1
1
1
1
1
1
1
1
1
1
1
1
1
1
1
1
1
1
1
1
1
1
1
1
1
1
1
1
1
1
1
1
1
1
1
1
1
1.56288
7.99989
10.3274
10.232
10.1816
10.1324
10.0862
10.0409
9.9966
9.95325
9.90994
9.86629
9.82203
9.77728
9.73199
9.68595
1
1
1
1
1
1
1
1
1
1
1
1
1
1
1
1
1
1
1
1
1
1
1
1
1
1
1
1
1
1
1
1
1
1
1
1
1
1
1
1
1
1
1
1
1
1
1
1
1
1
1
1
1
1
1
1
1
1
1
1
1
1
1
1
1
1
1
1
1
1
1
1
1
1
1
1
1
1
1
1
1.05622
6.95381
10.3367
10.2668
10.2033
10.1503
10.1023
10.0571
10.0134
9.97071
9.92825
9.8856
9.842
9.79793
9.75339
9.70803
1
1
1
1
1
1
1
1
1
1
1
1
1
1
1
1
1
1
1
1
1
1
1
1
1
1
1
1
1
1
1
1
1
1
1
1
1
1
1
1
1
1
1
1
1
1
1
1
1
1
1
1
1
1
1
1
1
1
1
1
1
1
1
1
1
1
1
1
1
1
1
1
1
1
1
1
1
1
1
1
1.00026
5.82929
10.1707
10.2398
10.188
10.1529
10.1134
10.0738
10.0329
9.99139
9.94952
9.90726
9.86372
9.81983
9.77549
9.73037
1
1
1
1
1
1
1
1
1
1
1
1
1
1
1
1
1
1
1
1
1
1
1
1
1
1
1
1
1
1
1
1
1
1
1
1
1
1
1
1
1
1
1
1
1
1
1
1
1
1
1
1
1
1
1
1
1
1
1
1
1
1
1
1
1
1
1
1
1
1
1
1
1
1
1
1
1
1
1
1
1
4.73726
9.95538
10.2465
10.1941
10.1653
10.1278
10.0902
10.0507
10.0099
9.96848
9.92649
9.88317
9.83947
9.79541
9.75075
1
1
1
1
1
1
1
1
1
1
1
1
1
1
1
1
1
1
1
1
1
1
1
1
1
1
1
1
1
1
1
1
1
1
1
1
1
1
1
1
1
1
1
1
1
1
1
1
1
1
1
1
1
1
1
1
1
1
1
1
1
1
1
1
1
1
1
1
1
1
1
1
1
1
1
1
1
1
1
1
1
3.76152
9.66319
10.2829
10.221
10.1928
10.1558
10.1187
10.0794
10.0386
9.99715
9.95472
9.91149
9.86765
9.82333
9.77859
1
1
1
1
1
1
1
1
1
1
1
1
1
1
1
1
1
1
1
1
1
1
1
1
1
1
1
1
1
1
1
1
1
1
1
1
1
1
1
1
1
1
1
1
1
1
1
1
1
1
1
1
1
1
1
1
1
1
1
1
1
1
1
1
1
1
1
1
1
1
1
1
1
1
1
1
1
1
1
1
1
2.93064
9.3388
10.3143
10.2388
10.2051
10.1654
10.1266
10.0868
10.0455
10.0041
9.96149
9.91888
9.87508
9.83083
9.78643
1
1
1
1
1
1
1
1
1
1
1
1
1
1
1
1
1
1
1
1
1
1
1
1
1
1
1
1
1
1
1
1
1
1
1
1
1
1
1
1
1
1
1
1
1
1
1
1
1
1
1
1
1
1
1
1
1
1
1
1
1
1
1
1
1
1
1
1
1
1
1
1
1
1
1
1
1
1
1
1
1
2.28018
8.92686
10.3418
10.2601
10.223
10.1816
10.142
10.1022
10.0614
10.0207
9.9787
9.93699
9.89381
9.85046
9.80685
1
1
1
1
1
1
1
1
1
1
1
1
1
1
1
1
1
1
1
1
1
1
1
1
1
1
1
1
1
1
1
1
1
1
1
1
1
1
1
1
1
1
1
1
1
1
1
1
1
1
1
1
1
1
1
1
1
1
1
1
1
1
1
1
1
1
1
1
1
1
1
1
1
1
1
1
1
1
1
1
1
1.82649
8.45627
10.363
10.2782
10.2378
10.1951
10.1543
10.1138
10.0728
10.0318
9.98991
9.94837
9.90539
9.86242
9.81907
1
1
1
1
1
1
1
1
1
1
1
1
1
1
1
1
1
1
1
1
1
1
1
1
1
1
1
1
1
1
1
1
1
1
1
1
1
1
1
1
1
1
1
1
1
1
1
1
1
1
1
1
1
1
1
1
1
1
1
1
1
1
1
1
1
1
1
1
1
1
1
1
1
1
1
1
1
1
1
1
1
1.53561
7.98997
10.3597
10.2876
10.2471
10.2053
10.1645
10.1239
10.0833
10.0424
10.0009
9.95941
9.91682
9.87409
9.83076
1
1
1
1
1
1
1
1
1
1
1
1
1
1
1
1
1
1
1
1
1
1
1
1
1
1
1
1
1
1
1
1
1
1
1
1
1
1
1
1
1
1
1
1
1
1
1
1
1
1
1
1
1
1
1
1
1
1
1
1
1
1
1
1
1
1
1
1
1
1
1
1
1
1
1
1
1
1
1
1
1
1.33853
7.54894
10.3426
10.2957
10.2546
10.2152
10.175
10.1342
10.0934
10.0519
10.0102
9.96802
9.92553
9.88252
9.83878
1
1
1
1
1
1
1
1
1
1
1
1
1
1
1
1
1
1
1
1
1
1
1
1
1
1
1
1
1
1
1
1
1
1
1
1
1
1
1
1
1
1
1
1
1
1
1
1
1
1
1
1
1
1
1
1
1
1
1
1
1
1
1
1
1
1
1
1
1
1
1
1
1
1
1
1
1
1
1
1
1
1.19288
7.15541
10.3186
10.3004
10.2529
10.2164
10.1768
10.1371
10.0974
10.0569
10.0166
9.97532
9.93429
9.89234
9.84932
1
1
1
1
1
1
1
1
1
1
1
1
1
1
1
1
1
1
1
1
1
1
1
1
1
1
1
1
1
1
1
1
1
1
1
1
1
1
1
1
1
1
1
1
1
1
1
1
1
1
1
1
1
1
1
1
1
1
1
1
1
1
1
1
1
1
1
1
1
1
1
1
1
1
1
1
1
1
1
1
1
1.0605
6.8689
10.3096
10.3151
10.2567
10.2227
10.1837
10.1445
10.1052
10.0649
10.0247
9.98301
9.94184
9.89964
9.85625
1
1
1
1
1
1
1
1
1
1
1
1
1
1
1
1
1
1
1
1
1
1
1
1
1
1
1
1
1
1
1
1
1
1
1
1
1
1
1
1
1
1
1
1
1
1
1
1
1
1
1
1
1
1
1
1
1
1
1
1
1
1
1
1
1
1
1
1
1
1
1
1
1
1
1
1
1
1
1
1
1
1.00105
6.59577
10.3047
10.3261
10.263
10.2284
10.1884
10.1487
10.1087
10.0684
10.0281
9.98647
9.94535
9.90358
9.86065