/*--------------------------------*- C++ -*----------------------------------*\
  =========                 |
  \\      /  F ield         | OpenFOAM: The Open Source CFD Toolbox
   \\    /   O peration     | Website:  https://openfoam.org
    \\  /    A nd           | Version:  7
     \\/     M anipulation  |
\*---------------------------------------------------------------------------*/
FoamFile
{
    version     2.0;
    format      ascii;
    class       volScalarField;
    location    "9.3";
    object      T;
}
// * * * * * * * * * * * * * * * * * * * * * * * * * * * * * * * * * * * * * //

dimensions      [0 0 0 1 0 0 0];

internalField   nonuniform List<scalar> 
19968
(
1
1
1
1
1
1
1
1
1
1
1
1
1
1
1
1
1
1
1
1
1
1
1
1
1
1
1
1
1
1
1
1
1
1
1
1
1
1
1
1
1
1
1
1
1
1
1
1
1.28347
2.4614
2.69187
2.6938
2.69789
2.70145
2.70536
2.70944
2.71361
2.71761
2.72137
2.72508
2.72897
2.73312
2.73726
2.74091
2.74406
2.74699
2.74999
2.75319
2.75649
2.75959
2.76231
2.76478
2.76734
2.77016
2.77313
2.7759
2.77822
2.78013
2.78188
2.78372
2.78577
2.78794
2.79008
2.79207
2.79386
2.79541
2.79673
2.79782
2.79872
2.79951
2.80028
2.80109
2.80192
2.80269
2.80328
2.8038
1
1
1
1
1
1
1
1
1
1
1
1
1
1
1
1
1
1
1
1
1
1
1
1
1
1
1
1
1
1
1
1
1
1
1
1
1
1
1
1
1
1
1
1
1
1
1
1
1.26882
2.45345
2.69069
2.69393
2.698
2.70159
2.70542
2.70938
2.71347
2.71745
2.72122
2.72497
2.72885
2.73294
2.73697
2.74059
2.74376
2.74671
2.74974
2.75296
2.75625
2.75935
2.76205
2.76451
2.76705
2.76986
2.77281
2.77558
2.77791
2.77984
2.7816
2.78345
2.78548
2.78764
2.78978
2.79176
2.79353
2.79507
2.79637
2.79744
2.79833
2.79911
2.79987
2.80066
2.80146
2.80221
2.80278
2.80328
1
1
1
1
1
1
1
1
1
1
1
1
1
1
1
1
1
1
1
1
1
1
1
1
1
1
1
1
1
1
1
1
1
1
1
1
1
1
1
1
1
1
1
1
1
1
1
1
1.23545
2.43504
2.6896
2.6927
2.69735
2.70113
2.70497
2.70888
2.71295
2.717
2.72084
2.72463
2.72847
2.73239
2.73628
2.73983
2.74306
2.74611
2.74924
2.75252
2.75581
2.75886
2.76152
2.76395
2.76647
2.76927
2.77223
2.77501
2.77736
2.7793
2.78107
2.7829
2.78492
2.78707
2.7892
2.79118
2.79295
2.79448
2.79576
2.79682
2.7977
2.79848
2.79923
2.8
2.80079
2.80151
2.80206
2.80254
1
1
1
1
1
1
1
1
1
1
1
1
1
1
1
1
1
1
1
1
1
1
1
1
1
1
1
1
1
1
1
1
1
1
1
1
1
1
1
1
1
1
1
1
1
1
1
1
1.18648
2.40612
2.68787
2.69136
2.69644
2.70046
2.70437
2.7083
2.71245
2.71663
2.72052
2.72429
2.72796
2.73165
2.73532
2.73881
2.74214
2.74537
2.74867
2.75201
2.75527
2.75822
2.76079
2.76316
2.76565
2.76843
2.77138
2.77418
2.77657
2.77854
2.78031
2.78213
2.78412
2.78624
2.78834
2.7903
2.79203
2.7935
2.79473
2.79574
2.7966
2.79737
2.79812
2.79889
2.79968
2.8004
2.80095
2.80143
1
1
1
1
1
1
1
1
1
1
1
1
1
1
1
1
1
1
1
1
1
1
1
1
1
1
1
1
1
1
1
1
1
1
1
1
1
1
1
1
1
1
1
1
1
1
1
1
1.12309
2.3672
2.68712
2.69042
2.69564
2.69977
2.7037
2.7077
2.71193
2.71623
2.7202
2.72392
2.72739
2.73081
2.73426
2.7377
2.74121
2.74467
2.74812
2.75149
2.75465
2.75745
2.75989
2.76219
2.76464
2.76739
2.77034
2.77318
2.77563
2.77766
2.77946
2.78127
2.78322
2.78531
2.7874
2.78933
2.79102
2.79243
2.79357
2.79449
2.79526
2.79596
2.79663
2.79733
2.79804
2.79869
2.79919
2.79962
1
1
1
1
1
1
1
1
1
1
1
1
1
1
1
1
1
1
1
1
1
1
1
1
1
1
1
1
1
1
1
1
1
1
1
1
1
1
1
1
1
1
1
1
1
1
1
1
1.00764
2.30021
2.68619
2.69024
2.69527
2.69974
2.70383
2.70789
2.7121
2.71638
2.72036
2.72397
2.72709
2.7301
2.73326
2.73666
2.74037
2.74407
2.74764
2.75091
2.75384
2.75638
2.75862
2.7608
2.76316
2.76583
2.76871
2.77152
2.77401
2.77609
2.7779
2.77968
2.78158
2.78361
2.78566
2.78757
2.78923
2.79061
2.79172
2.79261
2.79337
2.79406
2.79474
2.79542
2.7961
2.79672
2.79719
2.79759
1
1
1
1
1
1
1
1
1
1
1
1
1
1
1
1
1
1
1
1
1
1
1
1
1
1
1
1
1
1
1
1
1
1
1
1
1
1
1
1
1
1
1
1
1
1
1
1
1.00003
2.21338
2.68091
2.68699
2.69158
2.69624
2.70053
2.70481
2.70924
2.71365
2.7177
2.72126
2.72421
2.72708
2.73024
2.73381
2.73783
2.74182
2.74551
2.7487
2.75147
2.75388
2.75607
2.75824
2.76059
2.76321
2.76601
2.76882
2.77138
2.77357
2.77547
2.77727
2.77913
2.7811
2.7831
2.78499
2.78665
2.78802
2.78912
2.79
2.79074
2.79142
2.79207
2.79272
2.79336
2.79394
2.79436
2.79473
1
1
1
1
1
1
1
1
1
1
1
1
1
1
1
1
1
1
1
1
1
1
1
1
1
1
1
1
1
1
1
1
1
1
1
1
1
1
1
1
1
1
1
1
1
1
1
1
1
2.08878
2.67205
2.68405
2.68821
2.69267
2.69691
2.70136
2.70602
2.7106
2.7147
2.71823
2.72122
2.72417
2.72745
2.7311
2.73518
2.73917
2.74279
2.74589
2.74862
2.75107
2.75334
2.75557
2.75791
2.76042
2.76309
2.76582
2.76842
2.77073
2.77273
2.77456
2.77637
2.77823
2.78011
2.78192
2.78354
2.78489
2.78598
2.78684
2.78756
2.78819
2.7888
2.7894
2.78997
2.79049
2.79087
2.7912
1
1
1
1
1
1
1
1
1
1
1
1
1
1
1
1
1
1
1
1
1
1
1
1
1
1
1
1
1
1
1
1
1
1
1
1
1
1
1
1
1
1
1
1
1
1
1
1
1
1.9151
2.64512
2.67796
2.68231
2.68708
2.69145
2.69604
2.70084
2.70561
2.70996
2.71375
2.71707
2.7203
2.72379
2.72747
2.73138
2.73515
2.73856
2.74158
2.74438
2.74699
2.74944
2.75178
2.7541
2.75647
2.75897
2.76159
2.76421
2.76664
2.76879
2.77069
2.77246
2.77419
2.77592
2.77759
2.77915
2.78051
2.78163
2.78253
2.78326
2.78389
2.78447
2.78502
2.78554
2.78602
2.78636
2.78667
1
1
1
1
1
1
1
1
1
1
1
1
1
1
1
1
1
1
1
1
1
1
1
1
1
1
1
1
1
1
1
1
1
1
1
1
1
1
1
1
1
1
1
1
1
1
1
1
1
1.68793
2.58894
2.67216
2.67683
2.68204
2.68642
2.69077
2.69522
2.69998
2.70463
2.70883
2.71255
2.71605
2.71965
2.72326
2.72687
2.73031
2.73348
2.73646
2.73941
2.74227
2.74494
2.74736
2.7496
2.75176
2.75398
2.75638
2.75893
2.76142
2.7637
2.76569
2.76745
2.76906
2.77061
2.77214
2.77362
2.77499
2.77616
2.7771
2.77781
2.77837
2.77884
2.77928
2.7797
2.78011
2.78042
2.78069
1
1
1
1
1
1
1
1
1
1
1
1
1
1
1
1
1
1
1
1
1
1
1
1
1
1
1
1
1
1
1
1
1
1
1
1
1
1
1
1
1
1
1
1
1
1
1
1
1
1.38369
2.48274
2.67058
2.67268
2.6787
2.68198
2.68576
2.6898
2.69439
2.69914
2.70356
2.70753
2.71119
2.71478
2.71825
2.72158
2.72472
2.72768
2.73062
2.7337
2.73683
2.73976
2.74234
2.74455
2.74654
2.74851
2.75067
2.75306
2.75553
2.75783
2.75981
2.76145
2.76281
2.76402
2.76519
2.76639
2.76759
2.7687
2.76962
2.77033
2.77086
2.7713
2.77169
2.77209
2.77253
2.77288
2.77317
1
1
1
1
1
1
1
1
1
1
1
1
1
1
1
1
1
1
1
1
1
1
1
1
1
1
1
1
1
1
1
1
1
1
1
1
1
1
1
1
1
1
1
1
1
1
1
1
1
1.01619
2.29935
2.67805
2.67806
2.67967
2.68191
2.685
2.68849
2.69227
2.69604
2.69963
2.70301
2.70626
2.70947
2.71264
2.71557
2.71826
2.72081
2.72345
2.72638
2.72956
2.73259
2.73528
2.7375
2.73937
2.74114
2.74306
2.74527
2.74767
2.75001
2.75203
2.75364
2.75488
2.7559
2.75687
2.7579
2.75899
2.76005
2.76092
2.76148
2.7617
2.76174
2.76168
2.76165
2.76179
2.76199
2.76221
1
1
1
1
1
1
1
1
1
1
1
1
1
1
1
1
1
1
1
1
1
1
1
1
1
1
1
1
1
1
1
1
1
1
1
1
1
1
1
1
1
1
1
1
1
1
1
1
1
1.00003
2.0201
2.64606
2.66176
2.66565
2.67056
2.67518
2.67954
2.68353
2.68716
2.69053
2.69373
2.69693
2.70014
2.7033
2.70624
2.70885
2.71123
2.7137
2.71645
2.71956
2.72271
2.72558
2.72798
2.72991
2.73158
2.7333
2.73528
2.73752
2.73979
2.74177
2.74328
2.74433
2.74508
2.74571
2.7463
2.74691
2.7475
2.74789
2.74798
2.74785
2.74759
2.74737
2.74728
2.74739
2.74742
2.74759
1
1
1
1
1
1
1
1
1
1
1
1
1
1
1
1
1
1
1
1
1
1
1
1
1
1
1
1
1
1
1
1
1
1
1
1
1
1
1
1
1
1
1
1
1
1
1
1
1
1
1.54843
2.51648
2.64653
2.65356
2.66175
2.66739
2.6722
2.67648
2.68033
2.68375
2.68681
2.68973
2.69274
2.6958
2.69878
2.70141
2.7036
2.70565
2.70785
2.71039
2.71319
2.7159
2.71825
2.72008
2.72149
2.7228
2.7243
2.72607
2.72797
2.72965
2.73086
2.73157
2.73198
2.73218
2.73232
2.7326
2.73289
2.73301
2.73279
2.73215
2.73107
2.72974
2.72791
2.72557
2.72293
2.72087
1
1
1
1
1
1
1
1
1
1
1
1
1
1
1
1
1
1
1
1
1
1
1
1
1
1
1
1
1
1
1
1
1
1
1
1
1
1
1
1
1
1
1
1
1
1
1
1
1
1
1.02816
2.25407
2.65633
2.65572
2.65707
2.65994
2.66353
2.66757
2.67152
2.67495
2.67774
2.68018
2.68274
2.68561
2.68866
2.69152
2.69378
2.69554
2.69721
2.69904
2.70126
2.70359
2.70574
2.70743
2.70862
2.70953
2.71045
2.71156
2.71291
2.7142
2.71497
2.71513
2.71481
2.71422
2.71355
2.71291
2.712
2.71054
2.70821
2.70494
2.70101
2.69689
2.69325
2.6896
2.68705
2.68577
1
1
1
1
1
1
1
1
1
1
1
1
1
1
1
1
1
1
1
1
1
1
1
1
1
1
1
1
1
1
1
1
1
1
1
1
1
1
1
1
1
1
1
1
1
1
1
1
1
1
1.00005
1.76721
2.5626
2.6339
2.63984
2.64425
2.64864
2.65334
2.65786
2.66175
2.66484
2.6674
2.66998
2.673
2.67639
2.67973
2.68246
2.68435
2.68567
2.68688
2.6883
2.69004
2.69186
2.69339
2.69437
2.69462
2.69459
2.69467
2.69516
2.69579
2.69594
2.69537
2.69393
2.692
2.68994
2.68781
2.68531
2.68211
2.67791
2.67274
2.66679
2.66062
2.65489
2.65244
2.64936
2.66361
1
1
1
1
1
1
1
1
1
1
1
1
1
1
1
1
1
1
1
1
1
1
1
1
1
1
1
1
1
1
1
1
1
1
1
1
1
1
1
1
1
1
1
1
1
1
1
1
1
1
1
1.12373
2.34886
2.63125
2.63014
2.63252
2.63644
2.64108
2.64583
2.65005
2.65346
2.65614
2.65855
2.66134
2.66467
2.66821
2.67134
2.67348
2.67462
2.67533
2.67606
2.67712
2.67852
2.67989
2.68049
2.68022
2.67934
2.67832
2.67782
2.67764
2.67713
2.67568
2.6731
2.66967
2.66578
2.66155
2.65662
2.65045
2.64215
2.63114
2.6159
2.59539
2.56555
2.52353
2.45921
2.33036
1
1
1
1
1
1
1
1
1
1
1
1
1
1
1
1
1
1
1
1
1
1
1
1
1
1
1
1
1
1
1
1
1
1
1
1
1
1
1
1
1
1
1
1
1
1
1
1
1
1
1
1.00124
2.01995
2.59864
2.61314
2.61706
2.62241
2.6276
2.63245
2.63666
2.64027
2.64318
2.64571
2.6485
2.6519
2.65571
2.65925
2.66191
2.66349
2.66406
2.66437
2.66489
2.66587
2.66713
2.66782
2.66741
2.66598
2.66401
2.66239
2.66119
2.65985
2.65764
2.65412
2.64934
2.64357
2.63709
2.62943
2.62013
2.6076
2.59132
2.56852
2.5386
2.49477
2.4373
2.32725
2.16497
1
1
1
1
1
1
1
1
1
1
1
1
1
1
1
1
1
1
1
1
1
1
1
1
1
1
1
1
1
1
1
1
1
1
1
1
1
1
1
1
1
1
1
1
1
1
1
1
1
1
1
0.999999
1.39719
2.42807
2.5984
2.60298
2.60971
2.61511
2.62048
2.62496
2.6287
2.63164
2.63404
2.63655
2.63964
2.64331
2.647
2.65006
2.65194
2.65262
2.65261
2.65261
2.65294
2.65374
2.65436
2.65398
2.6524
2.6498
2.64703
2.64453
2.642
2.63879
2.63423
2.62815
2.62053
2.61182
2.60146
2.58909
2.57305
2.55241
2.52517
2.48874
2.43991
2.3679
2.26231
2.13314
1
1
1
1
1
1
1
1
1
1
1
1
1
1
1
1
1
1
1
1
1
1
1
1
1
1
1
1
1
1
1
1
1
1
1
1
1
1
1
1
1
1
1
1
1
1
1
1
1
1
1
1
1.01603
2.12073
2.59708
2.59619
2.59725
2.60118
2.60673
2.61181
2.61598
2.61909
2.62135
2.62358
2.6263
2.62957
2.63307
2.63619
2.63836
2.63936
2.63941
2.63921
2.63904
2.6392
2.63941
2.63904
2.63756
2.63481
2.63131
2.62769
2.6239
2.61958
2.61392
2.60664
2.59746
2.58679
2.57425
2.55933
2.54084
2.51741
2.48783
2.4489
2.39966
2.33128
2.24646
2.14807
1
1
1
1
1
1
1
1
1
1
1
1
1
1
1
1
1
1
1
1
1
1
1
1
1
1
1
1
1
1
1
1
1
1
1
1
1
1
1
1
1
1
1
1
1
1
1
1
1
1
1
1
1.00001
1.46065
2.43965
2.58792
2.58769
2.59248
2.59776
2.60169
2.60471
2.60712
2.60892
2.61082
2.61316
2.61577
2.6187
2.62138
2.62339
2.62457
2.62496
2.62484
2.62458
2.62431
2.62398
2.62327
2.62167
2.61898
2.61522
2.61092
2.60612
2.60071
2.59397
2.5856
2.57523
2.56311
2.54905
2.53252
2.51267
2.48814
2.45818
2.41995
2.37366
2.31579
2.25022
2.17158
1
1
1
1
1
1
1
1
1
1
1
1
1
1
1
1
1
1
1
1
1
1
1
1
1
1
1
1
1
1
1
1
1
1
1
1
1
1
1
1
1
1
1
1
1
1
1
1
1
1
1
1
1
1.02071
2.1189
2.58493
2.58528
2.58724
2.58989
2.59233
2.5943
2.59592
2.59716
2.5986
2.60032
2.60234
2.60463
2.60673
2.60828
2.60907
2.60928
2.60919
2.60894
2.60849
2.6078
2.60672
2.60493
2.60232
2.5986
2.59401
2.58852
2.58215
2.57448
2.56525
2.55414
2.54112
2.52614
2.50875
2.48845
2.46396
2.43552
2.39918
2.35832
2.31005
2.25565
2.19467
1
1
1
1
1
1
1
1
1
1
1
1
1
1
1
1
1
1
1
1
1
1
1
1
1
1
1
1
1
1
1
1
1
1
1
1
1
1
1
1
1
1
1
1
1
1
1
1
1
1
1
1
1
1.00002
1.41056
2.40945
2.57598
2.57743
2.58091
2.58305
2.58412
2.58484
2.58542
2.58633
2.58746
2.58907
2.59079
2.59229
2.5933
2.59338
2.59301
2.59258
2.59213
2.59157
2.59071
2.58938
2.58743
2.58486
2.58132
2.57673
2.57091
2.5639
2.55556
2.54578
2.53432
2.52097
2.5057
2.4881
2.46813
2.44434
2.41758
2.38517
2.34963
2.307
2.26162
2.2117
1
1
1
1
1
1
1
1
1
1
1
1
1
1
1
1
1
1
1
1
1
1
1
1
1
1
1
1
1
1
1
1
1
1
1
1
1
1
1
1
1
1
1
1
1
1
1
1
1
1
1
1
1
1
1.01524
2.03601
2.55906
2.56813
2.57127
2.57325
2.57493
2.5754
2.57575
2.57629
2.57688
2.57817
2.57946
2.58022
2.58048
2.57999
2.57857
2.57709
2.57581
2.57472
2.57347
2.57187
2.56978
2.56722
2.5638
2.55926
2.55328
2.5459
2.53717
2.52718
2.51572
2.50252
2.48751
2.47023
2.45094
2.42806
2.40343
2.37497
2.34287
2.30684
2.26837
2.22591
1
1
1
1
1
1
1
1
1
1
1
1
1
1
1
1
1
1
1
1
1
1
1
1
1
1
1
1
1
1
1
1
1
1
1
1
1
1
1
1
1
1
1
1
1
1
1
1
1
1
1
1
1
1
1.00002
1.23875
2.34701
2.56422
2.56177
2.56289
2.56378
2.56398
2.56415
2.56443
2.56493
2.56621
2.56746
2.56776
2.56764
2.56676
2.56463
2.56226
2.56003
2.55823
2.55647
2.55455
2.55222
2.54946
2.54595
2.54137
2.53536
2.52787
2.51906
2.5091
2.49791
2.48521
2.47097
2.4545
2.43619
2.41495
2.39227
2.3662
2.33811
2.3074
2.27362
2.23605
1
1
1
1
1
1
1
1
1
1
1
1
1
1
1
1
1
1
1
1
1
1
1
1
1
1
1
1
1
1
1
1
1
1
1
1
1
1
1
1
1
1
1
1
1
1
1
1
1
1
1
1
1
1
1
1.00409
1.85684
2.50675
2.54016
2.54526
2.54859
2.54954
2.55009
2.55075
2.55168
2.55337
2.55486
2.55528
2.55503
2.55401
2.55166
2.54885
2.54573
2.54303
2.54057
2.53814
2.53543
2.53233
2.52844
2.52354
2.51739
2.5099
2.50126
2.49155
2.48083
2.46877
2.45559
2.43997
2.42303
2.40386
2.38253
2.35891
2.3347
2.30735
2.27637
2.24436
1
1
1
1
1
1
1
1
1
1
1
1
1
1
1
1
1
1
1
1
1
1
1
1
1
1
1
1
1
1
1
1
1
1
1
1
1
1
1
1
1
1
1
1
1
1
1
1
1
1
1
1
1
1
1
1
1.10039
2.21001
2.53601
2.53741
2.53639
2.53602
2.53646
2.53712
2.53833
2.54027
2.54215
2.54283
2.54259
2.54162
2.53941
2.53649
2.53288
2.52945
2.52643
2.52329
2.52008
2.51646
2.51203
2.50664
2.50013
2.49251
2.48404
2.47461
2.46441
2.45289
2.44073
2.42599
2.41066
2.39325
2.37365
2.35309
2.3311
2.30568
2.27846
2.25156
1
1
1
1
1
1
1
1
1
1
1
1
1
1
1
1
1
1
1
1
1
1
1
1
1
1
1
1
1
1
1
1
1
1
1
1
1
1
1
1
1
1
1
1
1
1
1
1
1
1
1
1
1
1
1
1
1.00067
1.4524
2.36496
2.51467
2.51466
2.51741
2.51951
2.52135
2.52322
2.52554
2.52805
2.52945
2.52939
2.52867
2.52676
2.52391
2.5202
2.51641
2.51315
2.50957
2.50583
2.50177
2.49689
2.49104
2.48409
2.47616
2.46767
2.45842
2.44899
2.43774
2.42621
2.41262
2.39853
2.38255
2.36535
2.34699
2.3259
2.30346
2.28025
2.25637
1
1
1
1
1
1
1
1
1
1
1
1
1
1
1
1
1
1
1
1
1
1
1
1
1
1
1
1
1
1
1
1
1
1
1
1
1
1
1
1
1
1
1
1
1
1
1
1
1
1
1
1
1
1
1
1
1
1.01824
1.89307
2.46862
2.49871
2.50356
2.50622
2.50797
2.50953
2.51143
2.51393
2.5155
2.51559
2.51512
2.51356
2.51088
2.50736
2.50345
2.50007
2.49649
2.49259
2.48832
2.48336
2.47747
2.47009
2.46191
2.45318
2.44394
2.43464
2.4237
2.41266
2.40021
2.38685
2.37217
2.35684
2.33943
2.31994
2.30105
2.2803
2.25856
1
1
1
1
1
1
1
1
1
1
1
1
1
1
1
1
1
1
1
1
1
1
1
1
1
1
1
1
1
1
1
1
1
1
1
1
1
1
1
1
1
1
1
1
1
1
1
1
1
1
1
1
1
1
1
1
1
1.00003
1.11765
2.12268
2.47681
2.49609
2.49684
2.49799
2.49874
2.49931
2.50057
2.50146
2.50141
2.50087
2.49944
2.49696
2.49375
2.49005
2.48666
2.48349
2.4797
2.47558
2.47063
2.46481
2.45755
2.44921
2.44028
2.43094
2.42123
2.41088
2.40018
2.38854
2.37588
2.3624
2.34811
2.33145
2.31419
2.29754
2.27865
2.25871
1
1
1
1
1
1
1
1
1
1
1
1
1
1
1
1
1
1
1
1
1
1
1
1
1
1
1
1
1
1
1
1
1
1
1
1
1
1
1
1
1
1
1
1
1
1
1
1
1
1
1
1
1
1
1
1
1
1
1.00093
1.26818
2.26517
2.4792
2.48105
2.4826
2.48295
2.48331
2.48386
2.48445
2.4847
2.48445
2.48348
2.48168
2.47912
2.47599
2.47286
2.47011
2.46665
2.46282
2.45818
2.45259
2.4458
2.43784
2.42903
2.41955
2.40974
2.39964
2.38919
2.37806
2.36616
2.35368
2.3399
2.32444
2.30905
2.29344
2.27604
2.2584
1
1
1
1
1
1
1
1
1
1
1
1
1
1
1
1
1
1
1
1
1
1
1
1
1
1
1
1
1
1
1
1
1
1
1
1
1
1
1
1
1
1
1
1
1
1
1
1
1
1
1
1
1
1
1
1
1
1
1
1.00518
1.65919
2.37599
2.45763
2.4558
2.45793
2.46051
2.46297
2.4648
2.46603
2.46626
2.46583
2.46478
2.46324
2.46098
2.45854
2.4564
2.45351
2.45008
2.44583
2.44056
2.43419
2.42659
2.4181
2.4089
2.39924
2.38938
2.37928
2.36871
2.35773
2.34611
2.33275
2.31875
2.30498
2.29019
2.27444
2.25905
1
1
1
1
1
1
1
1
1
1
1
1
1
1
1
1
1
1
1
1
1
1
1
1
1
1
1
1
1
1
1
1
1
1
1
1
1
1
1
1
1
1
1
1
1
1
1
1
1
1
1
1
1
1
1
1
1
1
1
1.00001
1.04998
1.90928
2.4171
2.44523
2.44481
2.44676
2.44808
2.44904
2.44952
2.44943
2.44896
2.44813
2.44735
2.44587
2.44415
2.44254
2.44015
2.43709
2.4332
2.42825
2.42235
2.41526
2.4072
2.3985
2.38934
2.38005
2.3706
2.36082
2.35066
2.33959
2.32712
2.31498
2.30295
2.28993
2.27636
2.26319
1
1
1
1
1
1
1
1
1
1
1
1
1
1
1
1
1
1
1
1
1
1
1
1
1
1
1
1
1
1
1
1
1
1
1
1
1
1
1
1
1
1
1
1
1
1
1
1
1
1
1
1
1
1
1
1
1
1
1
1
1.00022
1.13358
2.0253
2.41255
2.43621
2.43831
2.43862
2.438
2.43706
2.43587
2.4345
2.43306
2.43192
2.43047
2.42906
2.42757
2.42549
2.42279
2.41926
2.41471
2.40922
2.40287
2.39549
2.3874
2.3792
2.37084
2.36222
2.35332
2.34406
2.33422
2.32408
2.31524
2.30545
2.29423
2.28355
2.27298
1
1
1
1
1
1
1
1
1
1
1
1
1
1
1
1
1
1
1
1
1
1
1
1
1
1
1
1
1
1
1
1
1
1
1
1
1
1
1
1
1
1
1
1
1
1
1
1
1
1
1
1
1
1
1
1
1
1
1
1
1
1.00125
1.213
2.10371
2.39975
2.42929
2.42855
2.42784
2.42662
2.42482
2.42281
2.42089
2.41911
2.41715
2.41528
2.41327
2.4109
2.40806
2.40462
2.40036
2.3953
2.38964
2.3832
2.3759
2.36859
2.36122
2.35365
2.34649
2.3396
2.33327
2.32652
2.32051
2.31326
2.30454
2.29655
2.28762
1
1
1
1
1
1
1
1
1
1
1
1
1
1
1
1
1
1
1
1
1
1
1
1
1
1
1
1
1
1
1
1
1
1
1
1
1
1
1
1
1
1
1
1
1
1
1
1
1
1
1
1
1
1
1
1
1
1
1
1
1
1
1.0032
1.29612
2.15745
2.39012
2.41055
2.41322
2.41309
2.41244
2.41107
2.40937
2.40733
2.40505
2.40257
2.3998
2.39677
2.39343
2.38971
2.3855
2.38078
2.37571
2.37007
2.36381
2.35774
2.35227
2.34747
2.34416
2.34118
2.33788
2.33453
2.33124
2.32532
2.31823
2.31138
2.30258
1
1
1
1
1
1
1
1
1
1
1
1
1
1
1
1
1
1
1
1
1
1
1
1
1
1
1
1
1
1
1
1
1
1
1
1
1
1
1
1
1
1
1
1
1
1
1
1
1
1
1
1
1
1
1
1
1
1
1
1
1
1
1
1.00652
1.37999
2.1969
2.37694
2.39103
2.39489
2.39576
2.39569
2.39508
2.39381
2.39207
2.38974
2.38685
2.38358
2.37996
2.37602
2.37175
2.36721
2.36232
2.35752
2.35352
2.35039
2.3485
2.34854
2.34851
2.34826
2.34742
2.34572
2.34288
2.33687
2.33041
2.32342
2.31436
1
1
1
1
1
1
1
1
1
1
1
1
1
1
1
1
1
1
1
1
1
1
1
1
1
1
1
1
1
1
1
1
1
1
1
1
1
1
1
1
1
1
1
1
1
1
1
1
1
1
1
1
1
1
1
1
1
1
1
1
1
1
1
1.00001
1.01181
1.45439
2.22833
2.36809
2.37089
2.37329
2.37426
2.37533
2.37537
2.37489
2.37361
2.37167
2.36913
2.366
2.36241
2.35846
2.35436
2.35094
2.34871
2.34928
2.35114
2.35283
2.35549
2.35761
2.35813
2.35742
2.35524
2.3513
2.34486
2.33867
2.33166
2.32286
1
1
1
1
1
1
1
1
1
1
1
1
1
1
1
1
1
1
1
1
1
1
1
1
1
1
1
1
1
1
1
1
1
1
1
1
1
1
1
1
1
1
1
1
1
1
1
1
1
1
1
1
1
1
1
1
1
1
1
1
1
1
1
1
1.00003
1.01871
1.55688
2.25555
2.3544
2.35259
2.35335
2.35352
2.35394
2.35424
2.35408
2.35341
2.35206
2.34996
2.34744
2.34473
2.34479
2.3464
2.34989
2.35435
2.35897
2.36339
2.36764
2.36755
2.36649
2.36466
2.36132
2.35605
2.34942
2.34362
2.33693
2.32874
1
1
1
1
1
1
1
1
1
1
1
1
1
1
1
1
1
1
1
1
1
1
1
1
1
1
1
1
1
1
1
1
1
1
1
1
1
1
1
1
1
1
1
1
1
1
1
1
1
1
1
1
1
1
1
1
1
1
1
1
1
1
1
1
1
1.00005
1.03259
1.62044
2.26459
2.34097
2.33805
2.33603
2.33527
2.33476
2.33419
2.33355
2.33293
2.33245
2.33371
2.33671
2.34211
2.35079
2.35924
2.36657
2.37221
2.3765
2.37672
2.37457
2.37159
2.36869
2.36433
2.35833
2.35233
2.34734
2.34109
2.33356
1
1
1
1
1
1
1
1
1
1
1
1
1
1
1
1
1
1
1
1
1
1
1
1
1
1
1
1
1
1
1
1
1
1
1
1
1
1
1
1
1
1
1
1
1
1
1
1
1
1
1
1
1
1
1
1
1
1
1
1
1
1
1
1
1
1
1.00013
1.04504
1.63896
2.25641
2.32821
2.32514
2.32263
2.32029
2.31838
2.31621
2.31678
2.31938
2.32482
2.33731
2.34965
2.3624
2.37188
2.3788
2.38235
2.38231
2.3804
2.37637
2.37288
2.36982
2.36505
2.35929
2.35457
2.35043
2.34451
2.3377
1
1
1
1
1
1
1
1
1
1
1
1
1
1
1
1
1
1
1
1
1
1
1
1
1
1
1
1
1
1
1
1
1
1
1
1
1
1
1
1
1
1
1
1
1
1
1
1
1
1
1
1
1
1
1
1
1
1
1
1
1
1
1
1
1
1
1
1.00022
1.05018
1.62396
2.23813
2.31671
2.3137
2.31031
2.30705
2.30609
2.30848
2.31904
2.33318
2.35026
2.36473
2.37526
2.38323
2.38444
2.38382
2.38218
2.379
2.37501
2.37232
2.36974
2.36526
2.36033
2.35689
2.35319
2.34749
2.34145
1
1
1
1
1
1
1
1
1
1
1
1
1
1
1
1
1
1
1
1
1
1
1
1
1
1
1
1
1
1
1
1
1
1
1
1
1
1
1
1
1
1
1
1
1
1
1
1
1
1
1
1
1
1
1
1
1
1
1
1
1
1
1
1
1
1
1
1
1.00027
1.04774
1.60433
2.21524
2.30263
2.29951
2.3001
2.30432
2.31728
2.33682
2.35632
2.37137
2.38007
2.3863
2.38566
2.38359
2.38194
2.37961
2.37576
2.37219
2.37039
2.3683
2.36419
2.36029
2.35796
2.35456
2.34933
2.34442
1
1
1
1
1
1
1
1
1
1
1
1
1
1
1
1
1
1
1
1
1
1
1
1
1
1
1
1
1
1
1
1
1
1
1
1
1
1
1
1
1
1
1
1
1
1
1
1
1
1
1
1
1
1
1
1
1
1
1
1
1
1
1
1
1
1
1
1
1
1.00025
1.04379
1.57101
2.1852
2.28573
2.30117
2.31931
2.34904
2.37017
2.38161
2.38899
2.3894
2.38757
2.38419
2.38124
2.37918
2.3762
2.37238
2.37015
2.36917
2.36713
2.36296
2.35987
2.35793
2.35442
2.34967
2.34573
1
1
1
1
1
1
1
1
1
1
1
1
1
1
1
1
1
1
1
1
1
1
1
1
1
1
1
1
1
1
1
1
1
1
1
1
1
1
1
1
1
1
1
1
1
1
1
1
1
1
1
1
1
1
1
1
1
1
1
1
1
1
1
1
1
1
1
1
1
1
1.00022
1.03726
1.5183
2.15196
2.31498
2.35901
2.3806
2.38931
2.39358
2.39217
2.39011
2.38614
2.3817
2.379
2.37677
2.37305
2.36958
2.36852
2.3678
2.36511
2.36087
2.3589
2.35755
2.3541
2.34971
2.34625
1
1
1
1
1
1
1
1
1
1
1
1
1
1
1
1
1
1
1
1
1
1
1
1
1
1
1
1
1
1
1
1
1
1
1
1
1
1
1
1
1
1
1
1
1
1
1
1
1
1
1
1
1
1
1
1
1
1
1
1
1
1
1
1
1
1
1
1
1
1
1
1.00018
1.02828
1.48097
2.27459
2.41973
2.41087
2.4048
2.39986
2.39578
2.39204
2.38719
2.38278
2.38026
2.37784
2.3737
2.37022
2.369
2.36746
2.36338
2.35892
2.35754
2.35637
2.35256
2.3484
2.34561
1
1
1
1
1
1
1
1
1
1
1
1
1
1
1
1
1
1
1
1
1
1
1
1
1
1
1
1
1
1
1
1
1
1
1
1
1
1
1
1
1
1
1
1
1
1
1
1
1
1
1
1
1
1
1
1
1
1
1
1
1
1
1
1
1
1
1
1
1
1
1
1
1.00013
1.02407
2.05425
2.49692
2.4764
2.45352
2.43583
2.42192
2.40961
2.39883
2.39099
2.38631
2.38188
2.37664
2.373
2.37124
2.36892
2.36436
2.36011
2.35852
2.35666
2.3517
2.34732
2.34481
1
1
1
1
1
1
1
1
1
1
1
1
1
1
1
1
1
1
1
1
1
1
1
1
1
1
1
1
1
1
1
1
1
1
1
1
1
1
1
1
1
1
1
1
1
1
1
1
1
1
1
1
1
1
1
1
1
1
1
1
1
1
1
1
1
1
1
1
1
1
1
1
1
1.00005
1.39569
2.39989
2.5269
2.51016
2.48999
2.46859
2.44919
2.43302
2.42062
2.41065
2.40066
2.39178
2.38516
2.38032
2.3751
2.3687
2.36368
2.36124
2.35818
2.35286
2.34889
2.34616
1
1
1
1
1
1
1
1
1
1
1
1
1
1
1
1
1
1
1
1
1
1
1
1
1
1
1
1
1
1
1
1
1
1
1
1
1
1
1
1
1
1
1
1
1
1
1
1
1
1
1
1
1
1
1
1
1
1
1
1
1
1
1
1
1
1
1
1
1
1
1
1
1
1
1.01237
2.06905
2.56504
2.55572
2.54043
2.52391
2.50631
2.48859
2.47141
2.45556
2.44071
2.42786
2.41649
2.40597
2.39558
2.38585
2.37816
2.37272
2.36664
2.35945
2.35414
2.34979
1
1
1
1
1
1
1
1
1
1
1
1
1
1
1
1
1
1
1
1
1
1
1
1
1
1
1
1
1
1
1
1
1
1
1
1
1
1
1
1
1
1
1
1
1
1
1
1
1
1
1
1
1
1
1
1
1
1
1
1
1
1
1
1
1
1
1
1
1
1
1
1
1
1
1.00001
1.3806
2.42892
2.5815
2.57245
2.56294
2.55164
2.53915
2.52476
2.50917
2.49309
2.47736
2.46186
2.44703
2.43318
2.42114
2.41044
2.40048
2.38997
2.3798
2.37158
2.36417
1
1
1
1
1
1
1
1
1
1
1
1
1
1
1
1
1
1
1
1
1
1
1
1
1
1
1
1
1
1
1
1
1
1
1
1
1
1
1
1
1
1
1
1
1
1
1
1
1
1
1
1
1
1
1
1
1
1
1
1
1
1
1
1
1
1
1
1
1
1
1
1
1
1
1
1.01207
2.11833
2.59268
2.58991
2.58295
2.57655
2.56893
2.55989
2.54941
2.53755
2.52453
2.51058
2.49631
2.48215
2.46819
2.45459
2.44117
2.42798
2.41611
2.40544
2.39495
1
1
1
1
1
1
1
1
1
1
1
1
1
1
1
1
1
1
1
1
1
1
1
1
1
1
1
1
1
1
1
1
1
1
1
1
1
1
1
1
1
1
1
1
1
1
1
1
1
1
1
1
1
1
1
1
1
1
1
1
1
1
1
1
1
1
1
1
1
1
1
1
1
1
1
1.00001
1.51767
2.47397
2.60117
2.5969
2.59319
2.58841
2.5824
2.57553
2.56781
2.55916
2.54952
2.53904
2.52773
2.51544
2.50251
2.48908
2.47565
2.46264
2.44961
2.43682
1
1
1
1
1
1
1
1
1
1
1
1
1
1
1
1
1
1
1
1
1
1
1
1
1
1
1
1
1
1
1
1
1
1
1
1
1
1
1
1
1
1
1
1
1
1
1
1
1
1
1
1
1
1
1
1
1
1
1
1
1
1
1
1
1
1
1
1
1
1
1
1
1
1
1
1
1.0274
2.23013
2.61469
2.61292
2.60534
2.60018
2.59509
2.59003
2.5845
2.57845
2.57185
2.56453
2.5564
2.54753
2.53791
2.52766
2.51696
2.50593
2.49423
2.48231
1
1
1
1
1
1
1
1
1
1
1
1
1
1
1
1
1
1
1
1
1
1
1
1
1
1
1
1
1
1
1
1
1
1
1
1
1
1
1
1
1
1
1
1
1
1
1
1
1
1
1
1
1
1
1
1
1
1
1
1
1
1
1
1
1
1
1
1
1
1
1
1
1
1
1
1
1.00004
1.76231
2.54069
2.61113
2.60633
2.60364
2.60038
2.59709
2.5934
2.58921
2.58449
2.57918
2.5733
2.56711
2.56048
2.55345
2.54591
2.5378
2.52913
2.52002
1
1
1
1
1
1
1
1
1
1
1
1
1
1
1
1
1
1
1
1
1
1
1
1
1
1
1
1
1
1
1
1
1
1
1
1
1
1
1
1
1
1
1
1
1
1
1
1
1
1
1
1
1
1
1
1
1
1
1
1
1
1
1
1
1
1
1
1
1
1
1
1
1
1
1
1
1
1.17188
2.37331
2.61986
2.61199
2.60835
2.60543
2.60262
2.59957
2.59621
2.59252
2.58854
2.58433
2.57983
2.57496
2.56978
2.56412
2.55788
2.55126
2.54434
1
1
1
1
1
1
1
1
1
1
1
1
1
1
1
1
1
1
1
1
1
1
1
1
1
1
1
1
1
1
1
1
1
1
1
1
1
1
1
1
1
1
1
1
1
1
1
1
1
1
1
1
1
1
1
1
1
1
1
1
1
1
1
1
1
1
1
1
1
1
1
1
1
1
1
1
1
1.00212
2.12195
2.62027
2.61924
2.61612
2.61256
2.60856
2.60488
2.60137
2.59787
2.5943
2.59063
2.58681
2.58279
2.5786
2.57412
2.56943
2.56448
2.55917
1
1
1
1
1
1
1
1
1
1
1
1
1
1
1
1
1
1
1
1
1
1
1
1
1
1
1
1
1
1
1
1
1
1
1
1
1
1
1
1
1
1
1
1
1
1
1
1
1
1
1
1
1
1
1
1
1
1
1
1
1
1
1
1
1
1
1
1
1
1
1
1
1
1
1
1
1
1
1.68166
2.54431
2.63045
2.62506
2.62103
2.61625
2.612
2.60799
2.60413
2.60034
2.59661
2.59288
2.58914
2.58536
2.58148
2.57749
2.57334
2.56894
1
1
1
1
1
1
1
1
1
1
1
1
1
1
1
1
1
1
1
1
1
1
1
1
1
1
1
1
1
1
1
1
1
1
1
1
1
1
1
1
1
1
1
1
1
1
1
1
1
1
1
1
1
1
1
1
1
1
1
1
1
1
1
1
1
1
1
1
1
1
1
1
1
1
1
1
1
1
1.15899
2.37579
2.63915
2.63195
2.62724
2.62297
2.61877
2.61446
2.61022
2.60613
2.60219
2.59833
2.59458
2.59084
2.58708
2.58324
2.57932
2.57529
1
1
1
1
1
1
1
1
1
1
1
1
1
1
1
1
1
1
1
1
1
1
1
1
1
1
1
1
1
1
1
1
1
1
1
1
1
1
1
1
1
1
1
1
1
1
1
1
1
1
1
1
1
1
1
1
1
1
1
1
1
1
1
1
1
1
1
1
1
1
1
1
1
1
1
1
1
1
1.00198
2.1681
2.64243
2.64021
2.63522
2.63085
2.62605
2.62125
2.61665
2.61227
2.6081
2.60406
2.60014
2.59625
2.59237
2.58846
2.58452
2.58054
1
1
1
1
1
1
1
1
1
1
1
1
1
1
1
1
1
1
1
1
1
1
1
1
1
1
1
1
1
1
1
1
1
1
1
1
1
1
1
1
1
1
1
1
1
1
1
1
1
1
1
1
1
1
1
1
1
1
1
1
1
1
1
1
1
1
1
1
1
1
1
1
1
1
1
1
1
1
1
1.84197
2.598
2.6407
2.63571
2.63267
2.62876
2.625
2.62115
2.61725
2.61333
2.60937
2.60542
2.60143
2.59745
2.59346
2.58946
2.58549
1
1
1
1
1
1
1
1
1
1
1
1
1
1
1
1
1
1
1
1
1
1
1
1
1
1
1
1
1
1
1
1
1
1
1
1
1
1
1
1
1
1
1
1
1
1
1
1
1
1
1
1
1
1
1
1
1
1
1
1
1
1
1
1
1
1
1
1
1
1
1
1
1
1
1
1
1
1
1
1.42806
2.4747
2.65181
2.64616
2.64255
2.63838
2.63447
2.63051
2.6265
2.62239
2.61817
2.61389
2.60955
2.60522
2.60091
2.59665
2.59246
1
1
1
1
1
1
1
1
1
1
1
1
1
1
1
1
1
1
1
1
1
1
1
1
1
1
1
1
1
1
1
1
1
1
1
1
1
1
1
1
1
1
1
1
1
1
1
1
1
1
1
1
1
1
1
1
1
1
1
1
1
1
1
1
1
1
1
1
1
1
1
1
1
1
1
1
1
1
1
1.02265
2.30904
2.65936
2.6534
2.64762
2.64364
2.64019
2.63677
2.63314
2.62927
2.62518
2.62092
2.61654
2.61211
2.6077
2.60332
2.59902
1
1
1
1
1
1
1
1
1
1
1
1
1
1
1
1
1
1
1
1
1
1
1
1
1
1
1
1
1
1
1
1
1
1
1
1
1
1
1
1
1
1
1
1
1
1
1
1
1
1
1
1
1
1
1
1
1
1
1
1
1
1
1
1
1
1
1
1
1
1
1
1
1
1
1
1
1
1
1
1.00003
2.1199
2.65193
2.65408
2.65125
2.64877
2.64562
2.64228
2.63869
2.63492
2.63097
2.62687
2.62262
2.61832
2.61399
2.60966
2.60536
1
1
1
1
1
1
1
1
1
1
1
1
1
1
1
1
1
1
1
1
1
1
1
1
1
1
1
1
1
1
1
1
1
1
1
1
1
1
1
1
1
1
1
1
1
1
1
1
1
1
1
1
1
1
1
1
1
1
1
1
1
1
1
1
1
1
1
1
1
1
1
1
1
1
1
1
1
1
1
1
1.87588
2.614
2.65777
2.6538
2.65136
2.64818
2.64502
2.64172
2.63831
2.63477
2.63106
2.62721
2.62326
2.61924
2.61516
2.61104
1
1
1
1
1
1
1
1
1
1
1
1
1
1
1
1
1
1
1
1
1
1
1
1
1
1
1
1
1
1
1
1
1
1
1
1
1
1
1
1
1
1
1
1
1
1
1
1
1
1
1
1
1
1
1
1
1
1
1
1
1
1
1
1
1
1
1
1
1
1
1
1
1
1
1
1
1
1
1
1
1.58426
2.538
2.66092
2.65568
2.65332
2.65017
2.647
2.64371
2.64037
2.63698
2.63352
2.62996
2.62632
2.62261
2.61883
2.61499
1
1
1
1
1
1
1
1
1
1
1
1
1
1
1
1
1
1
1
1
1
1
1
1
1
1
1
1
1
1
1
1
1
1
1
1
1
1
1
1
1
1
1
1
1
1
1
1
1
1
1
1
1
1
1
1
1
1
1
1
1
1
1
1
1
1
1
1
1
1
1
1
1
1
1
1
1
1
1
1
1.26539
2.42838
2.66311
2.65746
2.65505
2.65212
2.64903
2.64579
2.64253
2.63931
2.63607
2.63278
2.62942
2.62601
2.62253
2.61896
1
1
1
1
1
1
1
1
1
1
1
1
1
1
1
1
1
1
1
1
1
1
1
1
1
1
1
1
1
1
1
1
1
1
1
1
1
1
1
1
1
1
1
1
1
1
1
1
1
1
1
1
1
1
1
1
1
1
1
1
1
1
1
1
1
1
1
1
1
1
1
1
1
1
1
1
1
1
1
1
1.03048
2.32177
2.67199
2.66599
2.66059
2.65624
2.6524
2.6488
2.64537
2.64207
2.63881
2.63557
2.63225
2.6289
2.62552
2.62206
1
1
1
1
1
1
1
1
1
1
1
1
1
1
1
1
1
1
1
1
1
1
1
1
1
1
1
1
1
1
1
1
1
1
1
1
1
1
1
1
1
1
1
1
1
1
1
1
1
1
1
1
1
1
1
1
1
1
1
1
1
1
1
1
1
1
1
1
1
1
1
1
1
1
1
1
1
1
1
1
1.00014
2.18956
2.66872
2.66803
2.66334
2.66002
2.65648
2.65307
2.64966
2.64629
2.64295
2.63963
2.63623
2.63282
2.62939
2.62591
1
1
1
1
1
1
1
1
1
1
1
1
1
1
1
1
1
1
1
1
1
1
1
1
1
1
1
1
1
1
1
1
1
1
1
1
1
1
1
1
1
1
1
1
1
1
1
1
1
1
1
1
1
1
1
1
1
1
1
1
1
1
1
1
1
1
1
1
1
1
1
1
1
1
1
1
1
1
1
1
1
2.03237
2.65137
2.67091
2.66659
2.6638
2.66043
2.6572
2.65393
2.65062
2.64731
2.64398
2.64055
2.63709
2.63361
2.63008
1
1
1
1
1
1
1
1
1
1
1
1
1
1
1
1
1
1
1
1
1
1
1
1
1
1
1
1
1
1
1
1
1
1
1
1
1
1
1
1
1
1
1
1
1
1
1
1
1
1
1
1
1
1
1
1
1
1
1
1
1
1
1
1
1
1
1
1
1
1
1
1
1
1
1
1
1
1
1
1
1
1.86384
2.61897
2.67331
2.66855
2.66617
2.66316
2.66017
2.65707
2.65387
2.65065
2.64733
2.64395
2.64049
2.63697
2.6334
1
1
1
1
1
1
1
1
1
1
1
1
1
1
1
1
1
1
1
1
1
1
1
1
1
1
1
1
1
1
1
1
1
1
1
1
1
1
1
1
1
1
1
1
1
1
1
1
1
1
1
1
1
1
1
1
1
1
1
1
1
1
1
1
1
1
1
1
1
1
1
1
1
1
1
1
1
1
1
1
1
1.69022
2.5839
2.67302
2.66758
2.66528
2.66244
2.6596
2.65664
2.65355
2.65041
2.64716
2.64388
2.64047
2.63699
2.63347
1
1
1
1
1
1
1
1
1
1
1
1
1
1
1
1
1
1
1
1
1
1
1
1
1
1
1
1
1
1
1
1
1
1
1
1
1
1
1
1
1
1
1
1
1
1
1
1
1
1
1
1
1
1
1
1
1
1
1
1
1
1
1
1
1
1
1
1
1
1
1
1
1
1
1
1
1
1
1
1
1
1.52001
2.54117
2.67377
2.66793
2.66551
2.66268
2.65989
2.65703
2.65406
2.65105
2.64792
2.64476
2.64145
2.63808
2.63464
1
1
1
1
1
1
1
1
1
1
1
1
1
1
1
1
1
1
1
1
1
1
1
1
1
1
1
1
1
1
1
1
1
1
1
1
1
1
1
1
1
1
1
1
1
1
1
1
1
1
1
1
1
1
1
1
1
1
1
1
1
1
1
1
1
1
1
1
1
1
1
1
1
1
1
1
1
1
1
1
1
1.37438
2.49452
2.67676
2.67046
2.66746
2.66429
2.66125
2.65823
2.65516
2.65209
2.64894
2.64579
2.64252
2.6392
2.63582
1
1
1
1
1
1
1
1
1
1
1
1
1
1
1
1
1
1
1
1
1
1
1
1
1
1
1
1
1
1
1
1
1
1
1
1
1
1
1
1
1
1
1
1
1
1
1
1
1
1
1
1
1
1
1
1
1
1
1
1
1
1
1
1
1
1
1
1
1
1
1
1
1
1
1
1
1
1
1
1
1
1.26328
2.44693
2.67863
2.67317
2.67005
2.6668
2.6636
2.6604
2.65722
2.65404
2.65085
2.64765
2.64436
2.64105
2.63768
1
1
1
1
1
1
1
1
1
1
1
1
1
1
1
1
1
1
1
1
1
1
1
1
1
1
1
1
1
1
1
1
1
1
1
1
1
1
1
1
1
1
1
1
1
1
1
1
1
1
1
1
1
1
1
1
1
1
1
1
1
1
1
1
1
1
1
1
1
1
1
1
1
1
1
1
1
1
1
1
1
1.17606
2.39687
2.67806
2.67463
2.67164
2.6687
2.66564
2.6625
2.65934
2.65614
2.65294
2.6497
2.64642
2.64309
2.63971
1
1
1
1
1
1
1
1
1
1
1
1
1
1
1
1
1
1
1
1
1
1
1
1
1
1
1
1
1
1
1
1
1
1
1
1
1
1
1
1
1
1
1
1
1
1
1
1
1
1
1
1
1
1
1
1
1
1
1
1
1
1
1
1
1
1
1
1
1
1
1
1
1
1
1
1
1
1
1
1
1
1.10477
2.35064
2.67668
2.67539
2.6719
2.66924
2.66635
2.66342
2.66046
2.65738
2.6543
2.65114
2.64799
2.64476
2.64145
1
1
1
1
1
1
1
1
1
1
1
1
1
1
1
1
1
1
1
1
1
1
1
1
1
1
1
1
1
1
1
1
1
1
1
1
1
1
1
1
1
1
1
1
1
1
1
1
1
1
1
1
1
1
1
1
1
1
1
1
1
1
1
1
1
1
1
1
1
1
1
1
1
1
1
1
1
1
1
1
1
1.03496
2.31698
2.6763
2.67665
2.67229
2.6698
2.66695
2.66407
2.66115
2.65811
2.65504
2.65187
2.64873
2.64551
2.6422
1
1
1
1
1
1
1
1
1
1
1
1
1
1
1
1
1
1
1
1
1
1
1
1
1
1
1
1
1
1
1
1
1
1
1
1
1
1
1
1
1
1
1
1
1
1
1
1
1
1
1
1
1
1
1
1
1
1
1
1
1
1
1
1
1
1
1
1
1
1
1
1
1
1
1
1
1
1
1
1
1
1.00053
2.28086
2.67428
2.67723
2.67256
2.67002
2.66707
2.66412
2.66115
2.65813
2.6551
2.65198
2.64889
2.64574
2.6425
1
1
1
1
1
1
1
1
1
1
1
1
1
1
1
1
1
1
1
1
1
1
1
1
1
1
1
1
1
1
1
1
1
1
1
1
1
1
1