/*--------------------------------*- C++ -*----------------------------------*\
  =========                 |
  \\      /  F ield         | OpenFOAM: The Open Source CFD Toolbox
   \\    /   O peration     | Website:  https://openfoam.org
    \\  /    A nd           | Version:  7
     \\/     M anipulation  |
\*---------------------------------------------------------------------------*/
FoamFile
{
    version     2.0;
    format      ascii;
    class       volScalarField;
    location    "50";
    object      p;
}
// * * * * * * * * * * * * * * * * * * * * * * * * * * * * * * * * * * * * * //

dimensions      [0 2 -2 0 0 0 0];

internalField   nonuniform List<scalar> 
8800
(
0.868614
0.820826
0.782135
0.753138
0.732271
0.717437
0.706836
0.69935
0.694523
0.692456
0.693713
0.697894
0.704532
0.713843
0.726618
0.744349
0.769124
0.803063
0.845611
0.904313
0.699867
0.707546
0.715018
0.718325
0.716819
0.711738
0.705248
0.699164
0.694433
0.691581
0.691291
0.693786
0.698266
0.704204
0.710967
0.717243
0.720881
0.720144
0.714721
0.706029
0.678277
0.684436
0.688562
0.691503
0.693548
0.694148
0.693036
0.690923
0.688898
0.68798
0.68893
0.6913
0.69409
0.696263
0.696864
0.69566
0.693314
0.689918
0.685359
0.681598
0.672482
0.675131
0.67788
0.680279
0.681909
0.683064
0.683798
0.683906
0.6836
0.683538
0.684276
0.685433
0.686261
0.686316
0.685699
0.684602
0.68278
0.680206
0.677801
0.676297
0.66712
0.668544
0.670319
0.672346
0.674124
0.675457
0.676437
0.677223
0.677825
0.678374
0.679008
0.679487
0.679571
0.679271
0.678564
0.677307
0.675604
0.67375
0.67244
0.671609
0.662068
0.662988
0.664225
0.665785
0.66741
0.668925
0.670199
0.671251
0.672199
0.673073
0.673741
0.674048
0.673987
0.673531
0.672636
0.671424
0.670088
0.66882
0.667995
0.667444
0.657192
0.657862
0.658819
0.660114
0.661513
0.66296
0.664385
0.66569
0.666868
0.667951
0.668745
0.669085
0.668975
0.668444
0.667619
0.666656
0.665631
0.664698
0.664109
0.663704
0.652448
0.652964
0.653742
0.654863
0.656129
0.657489
0.658918
0.660369
0.661771
0.663076
0.664046
0.66448
0.664421
0.664006
0.663378
0.662632
0.661841
0.661145
0.660707
0.660391
0.647764
0.648174
0.648825
0.649821
0.651012
0.652323
0.653746
0.655276
0.656865
0.658423
0.659621
0.66023
0.660349
0.66014
0.659723
0.65918
0.658587
0.658079
0.657751
0.657494
0.643057
0.643391
0.643952
0.644868
0.646009
0.6473
0.648755
0.650375
0.65214
0.65397
0.655466
0.656349
0.656726
0.656754
0.656554
0.656222
0.655814
0.655461
0.655216
0.655002
0.638241
0.638518
0.639018
0.639886
0.641007
0.642319
0.64384
0.64559
0.64757
0.649715
0.651587
0.652825
0.653513
0.65381
0.653844
0.653721
0.653495
0.653276
0.653099
0.652914
0.633232
0.633465
0.633925
0.634776
0.635916
0.637292
0.638922
0.640854
0.643111
0.645647
0.647981
0.649646
0.650696
0.6513
0.651593
0.651686
0.651638
0.651541
0.651418
0.651255
0.627942
0.62814
0.62858
0.629443
0.630644
0.632127
0.63392
0.636103
0.638718
0.641748
0.644644
0.646815
0.648284
0.649234
0.649816
0.65013
0.650274
0.650291
0.650215
0.650067
0.622275
0.622444
0.622881
0.623786
0.625089
0.62673
0.628754
0.631266
0.634337
0.637985
0.641562
0.644334
0.646297
0.647644
0.64855
0.649134
0.649463
0.649586
0.649548
0.64941
0.61612
0.616265
0.616714
0.61769
0.619141
0.621001
0.623331
0.626262
0.629908
0.634315
0.63872
0.642217
0.644764
0.646577
0.647851
0.648723
0.649263
0.649499
0.649498
0.649366
0.609347
0.609466
0.609942
0.611022
0.612672
0.614817
0.617539
0.621005
0.625367
0.630705
0.636117
0.640483
0.643727
0.646091
0.647796
0.648995
0.649771
0.650122
0.650155
0.650026
0.601788
0.601882
0.6024
0.603616
0.605523
0.608034
0.61126
0.615405
0.620661
0.627142
0.633771
0.639178
0.643243
0.646252
0.648474
0.650056
0.651092
0.651565
0.651631
0.651501
0.593216
0.593314
0.593884
0.595257
0.597494
0.600478
0.604347
0.609349
0.615726
0.623617
0.631712
0.638352
0.643386
0.647153
0.649985
0.652017
0.653348
0.65395
0.654048
0.653914
0.583344
0.583422
0.58408
0.585675
0.588338
0.591933
0.596617
0.602695
0.610459
0.62007
0.629934
0.638043
0.64423
0.648896
0.652438
0.654996
0.656664
0.657407
0.657536
0.657393
0.571806
0.571867
0.572622
0.574528
0.577739
0.582117
0.587844
0.595292
0.604793
0.616515
0.628499
0.638338
0.645866
0.651591
0.655952
0.659133
0.661178
0.66207
0.662228
0.662074
0.558069
0.558118
0.559016
0.56133
0.565269
0.570679
0.577769
0.586978
0.598665
0.612961
0.627468
0.639332
0.648409
0.655353
0.660675
0.664563
0.66702
0.668064
0.668245
0.668075
0.541379
0.541416
0.542529
0.545421
0.550355
0.557161
0.566072
0.577584
0.592039
0.609478
0.626939
0.641124
0.651971
0.660302
0.666705
0.671395
0.674292
0.675483
0.675677
0.675489
0.520617
0.520651
0.5221
0.525855
0.532221
0.540994
0.552398
0.566942
0.584869
0.60608
0.626981
0.643798
0.656638
0.66653
0.674134
0.679711
0.683056
0.684374
0.684569
0.684358
0.494048
0.4941
0.496128
0.501283
0.509866
0.521536
0.536465
0.555061
0.57737
0.603072
0.627852
0.647541
0.662528
0.674124
0.683037
0.689544
0.693305
0.694705
0.694878
0.694643
0.458666
0.458816
0.462037
0.46978
0.482123
0.498214
0.518165
0.542069
0.56972
0.600594
0.629671
0.652453
0.669718
0.68309
0.693415
0.700827
0.704913
0.706318
0.706438
0.706178
0.408721
0.409677
0.416096
0.429154
0.448026
0.470954
0.497826
0.528449
0.56242
0.599072
0.632696
0.65865
0.678218
0.693403
0.705132
0.713338
0.717592
0.718896
0.718934
0.718648
0.335307
0.342482
0.35737
0.380405
0.409038
0.441141
0.476495
0.514876
0.555885
0.59884
0.637396
0.666814
0.68893
0.706143
0.719386
0.728355
0.732736
0.733951
0.73394
0.733689
0.256176
0.273208
0.297371
0.331028
0.369828
0.41126
0.45519
0.501558
0.550057
0.600089
0.644606
0.678457
0.703879
0.723631
0.738827
0.748551
0.752842
0.753862
0.75388
0.753739
0.190271
0.210369
0.242231
0.284862
0.332646
0.382874
0.435128
0.489339
0.545188
0.602096
0.652306
0.690297
0.718785
0.740807
0.757369
0.767454
0.771589
0.772591
0.77271
0.77264
0.136285
0.158042
0.195405
0.244435
0.299302
0.356938
0.416557
0.477964
0.540719
0.604169
0.659772
0.701638
0.732895
0.756889
0.774713
0.785424
0.790062
0.791102
0.791207
0.791177
0.0912497
0.114206
0.15536
0.20947
0.270041
0.333792
0.399732
0.467534
0.536607
0.606162
0.666844
0.712341
0.746199
0.772115
0.791278
0.802907
0.807904
0.808953
0.809108
0.809115
0.0529103
0.0765536
0.120566
0.178735
0.244097
0.313054
0.384484
0.457967
0.532782
0.607986
0.673411
0.72231
0.758609
0.786363
0.806739
0.819197
0.824621
0.825838
0.826037
0.826063
0.0192693
0.0433835
0.0896785
0.151167
0.220584
0.294064
0.370357
0.448956
0.529029
0.609483
0.679347
0.731409
0.76995
0.799252
0.820695
0.833846
0.839664
0.841167
0.841437
0.841481
-0.0111366
0.0133947
0.0615607
0.125886
0.198798
0.276235
0.356885
0.440143
0.525084
0.61047
0.684529
0.739557
0.780115
0.810768
0.833114
0.846791
0.852929
0.854678
0.854987
0.85502
-0.0392424
-0.014323
0.0354644
0.102207
0.178195
0.259135
0.3437
0.431222
0.520709
0.610783
0.688886
0.746742
0.789169
0.821078
0.844142
0.858173
0.864564
0.866472
0.866789
0.866801
-0.065829
-0.0404747
0.010823
0.0796533
0.158369
0.242433
0.330534
0.421976
0.515726
0.610308
0.69237
0.752999
0.797234
0.830297
0.853905
0.868178
0.874686
0.876679
0.876978
0.876961
-0.0912365
-0.0654394
-0.0129948
0.057908
0.139036
0.225905
0.317208
0.412259
0.51002
0.60896
0.694948
0.758372
0.804428
0.838562
0.862618
0.876962
0.883526
0.88556
0.885858
0.885806
-0.115873
-0.0895013
-0.0359888
0.03673
0.120012
0.209396
0.303607
0.401977
0.503504
0.606659
0.69659
0.762914
0.810875
0.846079
0.870491
0.884876
0.891438
0.893433
0.893718
0.893653
-0.139862
-0.11304
-0.0583352
0.0159754
0.10119
0.192828
0.289666
0.391083
0.49613
0.603357
0.697275
0.766672
0.816692
0.852984
0.877719
0.892102
0.898603
0.900528
0.900739
0.900635
-0.163312
-0.135938
-0.0801865
-0.00442506
0.0825235
0.176177
0.275373
0.37956
0.487879
0.599013
0.696966
0.76967
0.821953
0.859405
0.884452
0.898773
0.905093
0.906881
0.907016
0.906868
-0.18634
-0.158364
-0.1016
-0.0244963
0.0639958
0.159449
0.260752
0.367437
0.47876
0.593604
0.695625
0.77189
0.826719
0.865479
0.890834
0.90497
0.910983
0.912551
0.912601
0.912427
-0.208944
-0.180286
-0.12257
-0.0442319
0.0456465
0.142679
0.245854
0.354764
0.468806
0.587119
0.693199
0.773279
0.831002
0.871351
0.897073
0.910841
0.91634
0.917603
0.917565
0.917375
-0.230964
-0.201662
-0.143036
-0.0635992
0.0275133
0.125939
0.230743
0.341618
0.458083
0.579592
0.689633
0.773741
0.834761
0.877162
0.903457
0.916645
0.921279
0.922076
0.921938
0.92175
-0.252373
-0.222461
-0.162977
-0.0825414
0.0096562
0.109288
0.215514
0.328082
0.446673
0.571057
0.684884
0.773143
0.837888
0.882969
0.910351
0.922882
0.926119
0.926053
0.925748
0.925608
-0.273235
-0.242642
-0.182364
-0.101023
-0.00785963
0.0928146
0.200255
0.314261
0.434674
0.561586
0.678908
0.77134
0.840186
0.888654
0.918051
0.930408
0.931812
0.929977
0.929118
0.929238
-0.293374
-0.262178
-0.201137
-0.118978
-0.0249736
0.0766009
0.185063
0.300268
0.422202
0.551279
0.671701
0.76817
0.841378
0.893841
0.926438
0.940164
0.940438
0.936014
0.93306
0.932474
-0.312883
-0.28106
-0.219311
-0.136436
-0.0417184
0.0606032
0.169883
0.286045
0.409192
0.540061
0.663125
0.763358
0.841147
0.897963
0.934749
0.952264
0.954272
0.94851
0.939823
0.92526
-0.331686
-0.299273
-0.237005
-0.153593
-0.0583826
0.0444872
0.154296
0.271108
0.395104
0.527294
0.652527
0.756109
0.838885
0.900191
0.94105
0.964042
0.968685
0.956869
0.937495
0.924938
-0.349604
-0.316951
-0.254024
-0.17023
-0.0746306
0.0286003
0.138531
0.255784
0.380249
0.513242
0.639995
0.745991
0.833857
0.899403
0.940903
0.963519
0.971436
0.949272
0.881268
0.850554
-0.365968
-0.335327
-0.27003
-0.185798
-0.0897067
0.0134474
0.122897
0.240301
0.364844
0.498031
0.625475
0.732732
0.824768
0.894989
0.929497
0.945888
0.93837
0.885598
0.81657
0.774022
-0.422343
-0.35153
-0.28464
-0.201378
-0.105191
-0.00241889
0.10733
0.224382
0.348526
0.481215
0.608375
0.715758
0.807925
0.884742
0.890522
0.896072
0.850178
0.781547
0.705473
0.663078
-0.383493
-0.367268
-0.306391
-0.222649
-0.127889
-0.0252379
0.0835186
0.1999
0.323022
0.454223
0.579244
0.684601
0.768613
0.848897
0.838481
0.728582
0.625068
0.55297
0.480176
0.511575
-0.414988
-0.385299
-0.32341
-0.240433
-0.145645
-0.0431975
0.0658257
0.18157
0.303623
0.433029
0.55521
0.656272
0.731775
0.774049
0.726826
0.580914
0.45492
0.364591
0.266333
0.317178
-0.43928
-0.406637
-0.343443
-0.260237
-0.165354
-0.0629914
0.0459677
0.160889
0.281559
0.40859
0.527054
0.622095
0.688589
0.697514
0.592785
0.421641
0.270288
0.15244
0.0218101
0.0549995
-0.463096
-0.428871
-0.364461
-0.280339
-0.185292
-0.0830392
0.0254326
0.13941
0.258514
0.38281
0.496689
0.584565
0.63575
0.613877
0.457273
0.262394
0.0730645
-0.094157
-0.282523
-0.300407
-0.486311
-0.451618
-0.386287
-0.301374
-0.206108
-0.104027
0.0038393
0.116763
0.234059
0.355252
0.463885
0.544379
0.576973
0.51932
0.328382
0.119204
-0.0971861
-0.285895
-0.527721
-0.827725
-0.509831
-0.475124
-0.409218
-0.323777
-0.228267
-0.126298
-0.0189584
0.092889
0.208284
0.326138
0.429266
0.50154
0.514216
0.405787
0.216369
0.00778918
-0.195561
-0.367143
-0.435456
-0.515165
-0.534614
-0.49984
-0.433609
-0.347892
-0.252274
-0.1505
-0.043771
0.0668399
0.180031
0.294036
0.391276
0.452869
0.44124
0.299223
0.116999
-0.0725874
-0.234256
-0.326285
-0.350088
-0.366081
-0.560977
-0.526083
-0.459636
-0.373807
-0.278261
-0.176844
-0.0709551
0.03813
0.148712
0.258232
0.349083
0.397153
0.368148
0.200343
0.0269953
-0.137521
-0.262945
-0.301489
-0.31443
-0.315746
-0.589131
-0.554032
-0.487364
-0.401515
-0.306176
-0.205331
-0.100526
0.00671376
0.114262
0.218719
0.302297
0.33649
0.288609
0.108901
-0.0554205
-0.202669
-0.277948
-0.294864
-0.296235
-0.296056
-0.61914
-0.583747
-0.51682
-0.431013
-0.33603
-0.235946
-0.132482
-0.0274191
0.076693
0.175554
0.250908
0.273598
0.190216
0.0251259
-0.130888
-0.252147
-0.288253
-0.286532
-0.285472
-0.284869
-0.650723
-0.615063
-0.547901
-0.462212
-0.367734
-0.268632
-0.166787
-0.0642367
0.0360449
0.128831
0.195736
0.20158
0.0996866
-0.0529948
-0.190507
-0.265192
-0.275378
-0.278064
-0.27877
-0.278405
-0.683322
-0.647513
-0.580352
-0.494886
-0.401099
-0.303227
-0.203281
-0.103599
-0.0074943
0.0788799
0.137198
0.127345
0.0172248
-0.119132
-0.233536
-0.264096
-0.272744
-0.274813
-0.274744
-0.274429
-0.716479
-0.680567
-0.613723
-0.528638
-0.435778
-0.339406
-0.241676
-0.145206
-0.0536349
0.0263632
0.0743587
0.0555219
-0.0610378
-0.173266
-0.262325
-0.279124
-0.27218
-0.271553
-0.271749
-0.271691
-0.749311
-0.713522
-0.64714
-0.562875
-0.471229
-0.376693
-0.281518
-0.18856
-0.101888
-0.0280538
0.0100355
-0.0118451
-0.134672
-0.218576
-0.260723
-0.275113
-0.273043
-0.270935
-0.270312
-0.270258
-0.780225
-0.745186
-0.67966
-0.596675
-0.506688
-0.414384
-0.322146
-0.23295
-0.151416
-0.0837059
-0.0497094
-0.0864728
-0.203996
-0.272916
-0.25633
-0.275178
-0.278561
-0.274204
-0.271986
-0.271064
-0.807673
-0.773702
-0.710152
-0.628874
-0.541123
-0.45155
-0.362686
-0.277507
-0.200998
-0.139488
-0.106497
-0.156568
-0.273442
-0.356579
-0.338979
-0.320696
-0.300021
-0.287878
-0.282733
-0.280699
-0.829533
-0.797337
-0.736565
-0.65807
-0.573265
-0.487042
-0.402047
-0.321184
-0.24938
-0.193818
-0.163155
-0.20735
-0.319113
-0.516897
-0.53336
-0.417403
-0.345238
-0.317077
-0.306374
-0.301543
-0.843605
-0.814137
-0.75703
-0.682422
-0.601616
-0.519562
-0.439002
-0.36277
-0.295445
-0.244383
-0.214082
-0.226064
-0.27837
-0.45603
-0.47232
-0.381245
-0.351871
-0.33869
-0.330224
-0.327797
-0.847253
-0.821873
-0.769627
-0.70008
-0.624488
-0.547723
-0.472258
-0.401063
-0.33799
-0.28955
-0.250782
-0.199665
-0.07486
-0.0334693
-0.114853
-0.215306
-0.273769
-0.291187
-0.298576
-0.300711
-0.838396
-0.817895
-0.772177
-0.709465
-0.640402
-0.569981
-0.500546
-0.434799
-0.376224
-0.331
-0.278959
-0.188211
0.0912238
0.569986
0.234567
-0.110751
-0.270181
-0.312167
-0.326191
-0.331347
-0.814896
-0.799334
-0.762843
-0.709323
-0.648325
-0.585284
-0.522561
-0.46277
-0.409954
-0.368923
-0.318925
-0.331296
-0.354742
-0.371696
-0.52157
-0.545706
-0.51908
-0.505576
-0.512809
-0.520658
-0.779004
-0.768897
-0.742209
-0.69968
-0.648093
-0.593166
-0.537472
-0.483682
-0.437145
-0.405078
-0.399477
-0.654458
-1.26657
-1.97194
-1.97009
-1.42523
-1.02778
-0.868032
-0.823951
-0.814053
-0.737
-0.731282
-0.71488
-0.683089
-0.641318
-0.594087
-0.544669
-0.495953
-0.452797
-0.426259
-0.427089
-0.675975
-0.948663
-1.14595
-0.974386
-0.771863
-0.732131
-0.743175
-0.724685
-0.723502
-0.69822
-0.694869
-0.686802
-0.664768
-0.630724
-0.589548
-0.544826
-0.49809
-0.454143
-0.417865
-0.41503
-0.415296
-0.408864
-0.384699
-0.467455
-0.653725
-0.810415
-0.789899
-0.662549
-0.615025
-0.669637
-0.66761
-0.663656
-0.649104
-0.62079
-0.58279
-0.539528
-0.491939
-0.441701
-0.395608
-0.373852
-0.362034
-0.297139
-0.2332
-0.182826
-0.18246
-0.221775
-0.191593
-0.109708
-0.0734494
-0.646831
-0.646112
-0.64496
-0.637288
-0.61407
-0.577394
-0.532544
-0.481066
-0.425303
-0.368697
-0.320586
-0.28029
-0.106924
0.144637
0.363308
0.503944
0.583143
0.644749
0.685799
0.701423
-0.632198
-0.631783
-0.631279
-0.627888
-0.609982
-0.573638
-0.52479
-0.467813
-0.403241
-0.32851
-0.250198
-0.15231
0.0638281
0.372129
0.662825
0.893198
1.05557
1.15824
1.21365
1.23268
-0.622584
-0.622356
-0.621897
-0.621145
-0.608171
-0.571853
-0.518862
-0.454519
-0.377613
-0.291407
-0.196981
-0.0919518
0.167158
0.496552
0.827908
1.11538
1.32443
1.45548
1.52654
1.55207
-0.615919
-0.615826
-0.615369
-0.615002
-0.606488
-0.573214
-0.516965
-0.444466
-0.357801
-0.260645
-0.157058
-0.0710619
0.169877
0.522339
0.871576
1.1848
1.41971
1.56301
1.6343
1.65648
-0.615276
-0.613452
-0.608267
-0.604207
-0.604136
-0.580337
-0.521022
-0.439762
-0.344346
-0.240319
-0.136184
-0.0404593
0.148942
0.47235
0.796805
1.07822
1.29901
1.43317
1.49618
1.51429
-0.641201
-0.636801
-0.628095
-0.624738
-0.628834
-0.606052
-0.533724
-0.438088
-0.333545
-0.222941
-0.117391
-0.0150816
0.129705
0.408454
0.668014
0.893469
1.06853
1.17584
1.22581
1.23959
-0.7067
-0.707271
-0.716614
-0.724648
-0.720497
-0.663181
-0.55227
-0.433587
-0.32042
-0.207919
-0.10391
-0.00265504
0.110739
0.289799
0.508085
0.685419
0.825901
0.909835
0.947867
0.957136
-0.765147
-0.77921
-0.80542
-0.8178
-0.795758
-0.694785
-0.549229
-0.415841
-0.300185
-0.192972
-0.0973545
-0.00844665
0.0744978
0.203153
0.363937
0.500518
0.609489
0.674081
0.701286
0.706072
-0.694753
-0.711463
-0.735866
-0.746842
-0.717455
-0.61718
-0.487603
-0.368818
-0.266794
-0.174513
-0.0934038
-0.0233419
0.0393009
0.116678
0.236078
0.339729
0.420861
0.466412
0.484071
0.484904
-0.465815
-0.477866
-0.49576
-0.506472
-0.490536
-0.432556
-0.360381
-0.287177
-0.217348
-0.148961
-0.0875223
-0.0364001
0.00590696
0.0514611
0.129074
0.20402
0.26038
0.292584
0.304577
0.30523
-0.197593
-0.202928
-0.21353
-0.227736
-0.23557
-0.233192
-0.218252
-0.19289
-0.159869
-0.119783
-0.0805868
-0.0489022
-0.0227844
0.00519336
0.0548722
0.102135
0.136198
0.154014
0.16018
0.159064
-0.00776457
-0.01017
-0.0184951
-0.0362457
-0.0631814
-0.0890563
-0.106264
-0.112527
-0.107426
-0.0923351
-0.0740742
-0.0585457
-0.0465903
-0.0327688
-0.00442128
0.02431
0.0429189
0.0502172
0.0524358
0.0512378
0.0841381
0.0824618
0.0751906
0.0573432
0.028075
-0.00508397
-0.0344343
-0.0554183
-0.0664294
-0.0686278
-0.0670246
-0.0657057
-0.0633447
-0.0545276
-0.0404139
-0.0284176
-0.0224266
-0.0207933
-0.0210919
-0.0218768
0.112773
0.111428
0.105576
0.0909414
0.0663425
0.036706
0.00740049
-0.0178044
-0.0367419
-0.0503006
-0.0623553
-0.0755442
-0.0836147
-0.0760717
-0.0659922
-0.0606117
-0.0600245
-0.0622174
-0.0634675
-0.0641415
0.111799
0.110785
0.10652
0.0958435
0.0776123
0.0544221
0.0293874
0.00546254
-0.015752
-0.035146
-0.0560609
-0.0800594
-0.0981787
-0.0903485
-0.080051
-0.0778148
-0.0789193
-0.0813273
-0.0823725
-0.0827903
0.100363
0.0996741
0.0967823
0.0894678
0.0766886
0.0596678
0.0401039
0.0199902
0.000278892
-0.020238
-0.0444971
-0.074111
-0.0933206
-0.0837623
-0.0750773
-0.0734258
-0.076754
-0.0798274
-0.0809306
-0.0811919
0.0868738
0.0864508
0.084609
0.0798402
0.0712633
0.0593852
0.0450949
0.0295804
0.0135164
-0.00382025
-0.025391
-0.0517559
-0.0661947
-0.0559247
-0.0501421
-0.051702
-0.0567496
-0.0603279
-0.0614532
-0.0616
0.0742683
0.0740491
0.0729835
0.0700593
0.0645883
0.0567605
0.0470897
0.0364242
0.0255026
0.0140185
0.00142006
-0.0139282
-0.0195659
-0.0116697
-0.0102815
-0.0151272
-0.0215123
-0.0253383
-0.0263684
-0.0264747
0.0631684
0.0630762
0.0625482
0.0609566
0.0578096
0.0531549
0.0473709
0.0412182
0.0357347
0.0323161
0.0321735
0.0332395
0.0394452
0.0469856
0.0407419
0.0315997
0.0244886
0.0211622
0.0202949
0.0200818
0.0533638
0.0533589
0.0531898
0.0525308
0.0510614
0.0488021
0.0461329
0.0438924
0.0436001
0.0481492
0.0612074
0.0808312
0.103823
0.103958
0.0914236
0.0795296
0.0728521
0.0708893
0.070239
0.0697461
0.0442359
0.0442821
0.0443523
0.0443518
0.0440918
0.0435815
0.0432238
0.0439615
0.0476706
0.0584566
0.0815304
0.115189
0.144721
0.142259
0.127574
0.117043
0.114209
0.113453
0.112726
0.111703
0.0355718
0.0356428
0.0358353
0.0362058
0.0366762
0.0372738
0.0383817
0.0409677
0.0470466
0.0610075
0.0882215
0.125085
0.155216
0.1526
0.139903
0.134265
0.133517
0.134764
0.134221
0.132984
0.0270473
0.0271073
0.0273386
0.0278679
0.0286798
0.0298043
0.0315704
0.0348796
0.0415215
0.0555116
0.0810598
0.111004
0.137864
0.133306
0.12639
0.126231
0.129885
0.132313
0.131702
0.13051
0.0186177
0.018643
0.018833
0.0193267
0.0201371
0.0213058
0.0230495
0.0260464
0.0316518
0.0424769
0.0631142
0.0855909
0.0996324
0.0962701
0.0955191
0.100816
0.107396
0.11018
0.109382
0.108135
0.0102328
0.0102433
0.0103491
0.0106694
0.0112387
0.0120476
0.013225
0.0151322
0.0186926
0.0255722
0.0372137
0.0488429
0.0515785
0.048429
0.0550247
0.0608342
0.0672243
0.0699936
0.0688873
0.0676476
0.00207837
0.00206669
0.00206608
0.00206604
0.00215908
0.00232468
0.00255132
0.00290771
0.00333586
0.00416649
0.00576848
0.0069631
0.00814641
0.0102291
0.0107332
0.0132535
0.0129097
0.00980793
0.0106261
0.0115052
-0.0526643
0.114688
0.310302
0.481037
0.617722
0.725691
0.81515
0.891241
0.925777
0.902481
0.251577
0.372703
0.503086
0.615884
0.711086
0.789972
0.853857
0.899187
0.921882
0.933944
0.471475
0.554631
0.64378
0.722593
0.790423
0.84719
0.892331
0.925305
0.949124
0.967095
0.632959
0.69243
0.754461
0.811803
0.861707
0.90409
0.938898
0.966661
0.98951
1.0078
0.758894
0.802206
0.848348
0.892331
0.931186
0.965124
0.994169
1.01834
1.03876
1.05659
0.863526
0.896521
0.934756
0.970416
1.00315
1.03248
1.05811
1.07965
1.09753
1.11488
0.95627
0.985034
1.01909
1.0513
1.08131
1.10854
1.13233
1.15208
1.16761
1.18468
1.04498
1.07423
1.10829
1.14038
1.17002
1.19664
1.21954
1.23805
1.25143
1.26847
1.14037
1.17361
1.21028
1.24389
1.27396
1.30017
1.32214
1.33943
1.35131
1.36871
1.25541
1.29326
1.33192
1.36618
1.39554
1.4203
1.44069
1.45659
1.46806
1.48613
1.40038
1.43893
1.47509
1.50578
1.53147
1.55358
1.57264
1.58817
1.60061
1.6186
1.57548
1.6071
1.63329
1.65574
1.67572
1.69445
1.71217
1.72865
1.74401
1.76207
1.7641
1.7813
1.79634
1.81258
1.82849
1.84302
1.85623
1.87016
1.8877
1.90786
1.94582
1.95536
1.96691
1.97772
1.987
1.99659
2.00737
2.01874
2.03011
2.04546
2.15307
2.15673
2.14178
2.12697
2.1207
2.12637
2.14486
2.17517
2.20734
2.234
2.45938
2.32452
2.24788
2.20551
2.18808
2.19205
2.21945
2.27586
2.37848
2.60285
0.759214
0.757085
0.752601
0.743974
0.731747
0.719613
0.709378
0.701475
0.695846
0.692577
0.692204
0.694924
0.700012
0.707223
0.716602
0.728135
0.740782
0.751813
0.757923
0.760976
0.683673
0.689519
0.695851
0.70034
0.702806
0.702477
0.699733
0.695915
0.692393
0.690117
0.68995
0.692127
0.695773
0.700049
0.703846
0.705722
0.70478
0.701294
0.696129
0.689508
0.675255
0.677551
0.680953
0.683946
0.686017
0.687507
0.688254
0.687927
0.686889
0.685988
0.686141
0.687545
0.689341
0.690631
0.690799
0.689899
0.688343
0.686002
0.682735
0.679813
0.669756
0.670842
0.672673
0.675047
0.677065
0.678486
0.679497
0.680236
0.680622
0.680824
0.681289
0.682069
0.682644
0.682692
0.682264
0.681404
0.679925
0.677834
0.675743
0.674359
0.664569
0.665232
0.666337
0.668037
0.669812
0.671435
0.67272
0.673721
0.674585
0.675351
0.676049
0.676568
0.676733
0.676542
0.675956
0.674886
0.673446
0.671894
0.67057
0.669788
0.659613
0.660074
0.660857
0.662149
0.663628
0.665135
0.666586
0.667866
0.66898
0.670006
0.670883
0.67141
0.67152
0.671216
0.670495
0.669485
0.668344
0.6672
0.666277
0.665759
0.65481
0.655155
0.655763
0.656824
0.658109
0.65947
0.660892
0.662317
0.663663
0.664907
0.665971
0.666611
0.666743
0.66643
0.665799
0.664997
0.664125
0.663244
0.662563
0.662183
0.650106
0.650374
0.650864
0.651765
0.652924
0.654205
0.65558
0.657044
0.658551
0.660027
0.661317
0.662123
0.662367
0.662198
0.661765
0.661172
0.660497
0.659838
0.659337
0.659047
0.645421
0.645635
0.646042
0.646832
0.647908
0.649139
0.650501
0.652005
0.653637
0.655338
0.656899
0.657948
0.658414
0.65847
0.658255
0.657872
0.657394
0.656921
0.656557
0.656329
0.640671
0.640843
0.641192
0.641908
0.642936
0.644142
0.645527
0.647109
0.648886
0.650827
0.652711
0.654093
0.654861
0.655186
0.655207
0.655039
0.654761
0.654454
0.654203
0.654022
0.63577
0.635909
0.636215
0.636886
0.637896
0.639123
0.640569
0.642268
0.644243
0.646476
0.648754
0.650554
0.651685
0.652321
0.652608
0.652667
0.652586
0.652435
0.652279
0.652134
0.630632
0.630744
0.631022
0.631673
0.632699
0.633992
0.635544
0.637414
0.639653
0.642259
0.645026
0.647327
0.648884
0.649876
0.650461
0.650762
0.65088
0.650888
0.650814
0.650696
0.625166
0.625255
0.625517
0.626172
0.627251
0.628652
0.630363
0.632471
0.635053
0.638136
0.641504
0.644407
0.646466
0.647868
0.648786
0.649372
0.649707
0.649859
0.649858
0.649761
0.61927
0.619338
0.619593
0.620275
0.621444
0.623
0.624934
0.627361
0.63038
0.634062
0.638169
0.641795
0.644449
0.646332
0.647632
0.64853
0.649104
0.64941
0.649477
0.649399
0.612822
0.61287
0.613126
0.613858
0.615157
0.616923
0.619153
0.621985
0.625556
0.629975
0.634982
0.639487
0.642857
0.645311
0.647055
0.6483
0.64915
0.649623
0.649758
0.649695
0.605676
0.605705
0.605966
0.606771
0.608245
0.610285
0.612894
0.616246
0.620516
0.625849
0.631955
0.637514
0.641733
0.644859
0.647132
0.648784
0.649947
0.650599
0.650802
0.650751
0.59765
0.597667
0.597928
0.59883
0.600532
0.602913
0.606011
0.610023
0.61517
0.621635
0.629081
0.635906
0.641132
0.645047
0.647942
0.650089
0.651605
0.652454
0.652725
0.652685
0.58844
0.588425
0.588748
0.589785
0.591772
0.594603
0.598328
0.603177
0.609424
0.617293
0.626368
0.634704
0.641123
0.645969
0.649593
0.652322
0.654245
0.655311
0.655654
0.655621
0.577776
0.577735
0.578102
0.57933
0.581681
0.585091
0.589611
0.595518
0.603141
0.61274
0.62379
0.633935
0.641765
0.647714
0.652203
0.655601
0.657997
0.659304
0.659722
0.659694
0.565186
0.565119
0.565561
0.567036
0.569867
0.574034
0.579589
0.586861
0.596234
0.607976
0.621411
0.633694
0.643165
0.650394
0.655894
0.660069
0.663003
0.66457
0.66506
0.665033
0.55004
0.549943
0.550507
0.552328
0.5558
0.560978
0.567905
0.576964
0.588576
0.60299
0.619289
0.634064
0.645424
0.654117
0.660788
0.665849
0.66938
0.671219
0.671777
0.671745
0.531411
0.531287
0.532046
0.534374
0.538751
0.545336
0.554141
0.565585
0.580079
0.597781
0.61748
0.635134
0.64865
0.658995
0.666976
0.673039
0.677221
0.679331
0.679942
0.679898
0.507909
0.507766
0.508853
0.511967
0.517703
0.526345
0.537808
0.552497
0.570721
0.592466
0.616146
0.637045
0.652941
0.665122
0.674535
0.681714
0.686569
0.688926
0.689563
0.689499
0.477239
0.477115
0.478806
0.483283
0.491295
0.503142
0.51852
0.537678
0.560691
0.587312
0.615536
0.639996
0.658442
0.672581
0.683544
0.691897
0.697381
0.699917
0.700539
0.700444
0.435284
0.43532
0.438347
0.445673
0.457889
0.474965
0.496124
0.521287
0.550249
0.582558
0.615822
0.644093
0.665208
0.681372
0.693943
0.703485
0.70947
0.712054
0.712603
0.712468
0.374342
0.375519
0.382943
0.396624
0.416536
0.441939
0.471248
0.504076
0.540108
0.578784
0.617395
0.649536
0.673306
0.691456
0.705561
0.716117
0.722432
0.724843
0.725217
0.725043
0.301784
0.303512
0.317751
0.341311
0.37204
0.407295
0.445523
0.486552
0.530189
0.575933
0.620825
0.65786
0.685186
0.705988
0.722052
0.733866
0.740488
0.742843
0.743211
0.743132
0.226787
0.232901
0.253956
0.287657
0.328701
0.373531
0.420651
0.469948
0.521305
0.574265
0.625652
0.667775
0.698784
0.722462
0.740749
0.753592
0.760185
0.762241
0.762476
0.762457
0.165456
0.173859
0.199494
0.240185
0.289266
0.34226
0.397403
0.454438
0.513156
0.573057
0.630656
0.677575
0.711982
0.738135
0.758113
0.771875
0.778516
0.780459
0.780926
0.780986
0.115532
0.12453
0.15371
0.199622
0.254808
0.314379
0.376301
0.440167
0.505604
0.571995
0.635462
0.686897
0.724456
0.752907
0.774497
0.789215
0.796324
0.7988
0.799378
0.799473
0.0736285
0.0829159
0.114557
0.164472
0.224662
0.289695
0.357364
0.427199
0.498673
0.571032
0.639981
0.695651
0.73617
0.766817
0.790062
0.805833
0.8137
0.81654
0.817209
0.817313
0.0374073
0.0468211
0.080328
0.133454
0.197774
0.267467
0.340142
0.41526
0.492185
0.570029
0.644083
0.703707
0.746991
0.779635
0.80433
0.821067
0.8297
0.832801
0.833559
0.83366
0.00522641
0.0146948
0.0496404
0.105478
0.173265
0.246971
0.32407
0.403936
0.485845
0.568777
0.647622
0.710955
0.75678
0.791185
0.817088
0.834641
0.843893
0.847312
0.848112
0.84821
-0.0241615
-0.0146343
0.0214884
0.0796667
0.15044
0.227653
0.308683
0.392851
0.47935
0.567057
0.650456
0.717321
0.765503
0.801506
0.828434
0.846628
0.856299
0.859948
0.860814
0.860906
-0.0515981
-0.0420108
-0.00482384
0.0553476
0.128781
0.209094
0.293636
0.381713
0.472467
0.564691
0.652491
0.722786
0.773233
0.81072
0.838583
0.857222
0.867135
0.870943
0.871842
0.871908
-0.0776408
-0.0679624
-0.0297788
0.0320826
0.10791
0.19098
0.278686
0.370327
0.465032
0.561557
0.653655
0.727353
0.780045
0.818966
0.847628
0.866561
0.876553
0.88044
0.881352
0.881399
-0.102761
-0.092889
-0.0538546
0.00963721
0.087567
0.173106
0.263667
0.35856
0.456943
0.557563
0.653882
0.731028
0.78603
0.8264
0.855763
0.874899
0.884926
0.888802
0.889687
0.889684
-0.127186
-0.117079
-0.0772587
-0.012195
0.0675992
0.15534
0.248475
0.346337
0.448127
0.552645
0.653128
0.73382
0.79128
0.833168
0.863195
0.882469
0.892489
0.896306
0.897135
0.897114
-0.151008
-0.140675
-0.0999972
-0.0335647
0.0479137
0.13763
0.233071
0.333624
0.438554
0.546755
0.651344
0.735737
0.795861
0.83938
0.87007
0.889451
0.899404
0.903092
0.90383
0.903776
-0.174355
-0.163702
-0.122262
-0.0545245
0.0284716
0.119951
0.217452
0.320427
0.428231
0.539883
0.648493
0.736755
0.799813
0.845138
0.876536
0.895962
0.90573
0.90921
0.90982
0.909719
-0.197198
-0.186251
-0.144042
-0.0750968
0.00927549
0.102325
0.201656
0.306791
0.417187
0.53203
0.644541
0.736821
0.803133
0.850535
0.882759
0.902149
0.911547
0.914686
0.915139
0.914999
-0.219575
-0.208305
-0.16528
-0.0952552
-0.0096438
0.0847908
0.185734
0.292783
0.405486
0.523228
0.639466
0.735868
0.805757
0.855636
0.888957
0.908247
0.916998
0.919593
0.919846
0.919675
-0.241299
-0.229779
-0.185966
-0.11495
-0.0282323
0.0674249
0.169757
0.278477
0.393204
0.513543
0.633258
0.733807
0.80758
0.860445
0.895362
0.914631
0.922362
0.924033
0.92397
0.923778
-0.262508
-0.25063
-0.206075
-0.134152
-0.0464529
0.0502708
0.15382
0.26396
0.380437
0.503063
0.625933
0.730535
0.80844
0.86485
0.902122
0.921866
0.928313
0.928371
0.927584
0.927352
-0.283032
-0.270827
-0.225573
-0.152813
-0.0642233
0.0334164
0.138009
0.249355
0.367296
0.491859
0.617539
0.725955
0.808138
0.868591
0.909118
0.930507
0.936188
0.933939
0.931261
0.930179
-0.302928
-0.290411
-0.244402
-0.170876
-0.0815038
0.0169331
0.122408
0.234745
0.353897
0.480073
0.608151
0.71998
0.806453
0.871268
0.915775
0.940462
0.947484
0.944022
0.937373
0.928602
-0.322112
-0.309338
-0.262657
-0.188495
-0.0985038
0.00054154
0.10668
0.219726
0.339785
0.467195
0.597226
0.712028
0.802852
0.872429
0.921272
0.950751
0.962307
0.959842
0.949767
0.943693
-0.340531
-0.327529
-0.280327
-0.205634
-0.11522
-0.0157565
0.0908429
0.204278
0.324918
0.453111
0.584576
0.701731
0.796594
0.871296
0.923509
0.956638
0.970739
0.972945
0.935454
0.883346
-0.35789
-0.344196
-0.297285
-0.222215
-0.131755
-0.0321091
0.0748481
0.188522
0.309356
0.437884
0.570133
0.688877
0.786634
0.867331
0.920305
0.948437
0.962666
0.946381
0.890043