/*--------------------------------*- C++ -*----------------------------------*\
  =========                 |
  \\      /  F ield         | OpenFOAM: The Open Source CFD Toolbox
   \\    /   O peration     | Website:  https://openfoam.org
    \\  /    A nd           | Version:  7
     \\/     M anipulation  |
\*---------------------------------------------------------------------------*/
FoamFile
{
    version     2.0;
    format      ascii;
    class       volScalarField;
    location    "1.2";
    object      p;
}
// * * * * * * * * * * * * * * * * * * * * * * * * * * * * * * * * * * * * * //

dimensions      [1 -1 -2 0 0 0 0];

internalField   nonuniform List<scalar> 
19968
(
1
1
1
1
1
1
1
1
1
1
1
1
1
1
1
1
1
1
1
1
1
1
1
1
1
1
1
1
1
1
1
1
1
1
1
1
1
1
1
1
1
1
1
1
1
1
1
1
1
1
1
1
1.83826
8.66058
10.6646
10.7208
10.7888
10.8349
10.8624
10.8863
10.9219
10.9711
11.039
11.1174
11.2024
11.2863
11.3595
11.4174
11.4575
11.4892
11.5263
11.5716
11.627
11.6966
11.7638
11.8174
11.853
11.8728
11.8852
11.8966
11.9137
11.9389
11.9652
11.9936
12.0188
12.0372
12.0512
12.0579
12.0628
12.0767
12.1043
12.137
12.1645
12.1821
12.1895
12.1879
1
1
1
1
1
1
1
1
1
1
1
1
1
1
1
1
1
1
1
1
1
1
1
1
1
1
1
1
1
1
1
1
1
1
1
1
1
1
1
1
1
1
1
1
1
1
1
1
1
1
1
1
1.79696
8.57887
10.642
10.7005
10.7834
10.8337
10.8629
10.887
10.9213
10.9717
11.0431
11.1243
11.2109
11.2924
11.3598
11.4139
11.4522
11.484
11.5205
11.5645
11.6197
11.6892
11.7552
11.8084
11.8448
11.8669
11.8837
11.9001
11.9199
11.9439
11.9647
11.9854
12.0044
12.0217
12.0387
12.0514
12.0624
12.0792
12.1048
12.1329
12.1565
12.1723
12.1801
12.1808
1
1
1
1
1
1
1
1
1
1
1
1
1
1
1
1
1
1
1
1
1
1
1
1
1
1
1
1
1
1
1
1
1
1
1
1
1
1
1
1
1
1
1
1
1
1
1
1
1
1
1
1
1.70295
8.39661
10.6125
10.6976
10.7808
10.8334
10.8618
10.8842
10.9162
10.971
11.0476
11.1323
11.219
11.2957
11.3562
11.4063
11.4437
11.4767
11.5132
11.5556
11.6088
11.6758
11.7387
11.7901
11.8278
11.8547
11.8789
11.9035
11.929
11.9513
11.9654
11.9744
11.9832
11.9974
12.0174
12.0387
12.0593
12.0802
12.103
12.1251
12.1438
12.1573
12.1648
12.1683
1
1
1
1
1
1
1
1
1
1
1
1
1
1
1
1
1
1
1
1
1
1
1
1
1
1
1
1
1
1
1
1
1
1
1
1
1
1
1
1
1
1
1
1
1
1
1
1
1
1
1
1
1.55587
8.0878
10.6032
10.7043
10.7797
10.8363
10.8625
10.8823
10.9154
10.9783
11.0601
11.1446
11.2256
11.2926
11.3459
11.3927
11.4309
11.4669
11.5042
11.5457
11.5969
11.66
11.718
11.7646
11.8015
11.8329
11.8661
11.902
11.9346
11.9561
11.9624
11.9583
11.9559
11.9652
11.9887
12.0208
12.0516
12.0767
12.096
12.1111
12.1239
12.135
12.1427
12.1498
1
1
1
1
1
1
1
1
1
1
1
1
1
1
1
1
1
1
1
1
1
1
1
1
1
1
1
1
1
1
1
1
1
1
1
1
1
1
1
1
1
1
1
1
1
1
1
1
1
1
1
1
1.30425
7.51963
10.6167
10.7185
10.794
10.8515
10.8704
10.8849
10.9191
10.9859
11.0695
11.152
11.2243
11.2814
11.3307
11.3741
11.4145
11.4546
11.4945
11.5356
11.5855
11.6434
11.6951
11.7341
11.7668
11.8
11.8412
11.8887
11.9305
11.954
11.9537
11.9391
11.9264
11.9298
11.9551
11.9949
12.0341
12.0636
12.0801
12.0894
12.0973
12.107
12.1166
12.128
1
1
1
1
1
1
1
1
1
1
1
1
1
1
1
1
1
1
1
1
1
1
1
1
1
1
1
1
1
1
1
1
1
1
1
1
1
1
1
1
1
1
1
1
1
1
1
1
1
1
1
1
1.01433
6.7874
10.6961
10.7492
10.7899
10.8254
10.8534
10.8861
10.9329
10.9984
11.0733
11.1449
11.2063
11.259
11.3074
11.3483
11.3904
11.4359
11.4809
11.5228
11.5719
11.6263
11.6722
11.7026
11.7281
11.7587
11.8037
11.86
11.9105
11.9388
11.9377
11.9173
11.8972
11.8946
11.9177
11.9596
12.0029
12.0354
12.0511
12.0576
12.0634
12.0734
12.086
12.1008
1
1
1
1
1
1
1
1
1
1
1
1
1
1
1
1
1
1
1
1
1
1
1
1
1
1
1
1
1
1
1
1
1
1
1
1
1
1
1
1
1
1
1
1
1
1
1
1
1
1
1
1
1.00005
5.94154
10.6142
10.7162
10.7579
10.8055
10.8487
10.8902
10.9367
10.9942
11.0583
11.121
11.1754
11.2259
11.2725
11.3149
11.3601
11.4104
11.4599
11.5042
11.5515
11.6041
11.6455
11.6681
11.6858
11.711
11.7555
11.8153
11.8718
11.9067
11.9113
11.8899
11.8656
11.8568
11.8731
11.9115
11.9546
11.9891
12.0063
12.0144
12.0219
12.0343
12.05
12.0673
1
1
1
1
1
1
1
1
1
1
1
1
1
1
1
1
1
1
1
1
1
1
1
1
1
1
1
1
1
1
1
1
1
1
1
1
1
1
1
1
1
1
1
1
1
1
1
1
1
1
1
1
1
4.99396
10.4667
10.677
10.7206
10.7783
10.8295
10.8729
10.913
10.9615
11.0173
11.0738
11.1265
11.1772
11.2228
11.2713
11.3243
11.3775
11.4283
11.4748
11.5193
11.5702
11.6088
11.6285
11.6405
11.6591
11.6992
11.7577
11.8173
11.8584
11.8718
11.8551
11.8284
11.8123
11.8191
11.8483
11.8892
11.9252
11.9459
11.9587
11.9702
11.9857
12.0037
12.0226
1
1
1
1
1
1
1
1
1
1
1
1
1
1
1
1
1
1
1
1
1
1
1
1
1
1
1
1
1
1
1
1
1
1
1
1
1
1
1
1
1
1
1
1
1
1
1
1
1
1
1
1
1
3.95963
10.1685
10.6265
10.6798
10.7399
10.7935
10.8375
10.8742
10.9169
10.9656
11.0179
11.0649
11.1156
11.1662
11.2206
11.2796
11.3368
11.3878
11.4322
11.473
11.5215
11.5589
11.5809
11.5907
11.6025
11.6339
11.6856
11.7451
11.7914
11.8133
11.8049
11.7759
11.7521
11.7483
11.7676
11.806
11.8442
11.8712
11.8901
11.9072
11.9262
11.9455
11.9659
1
1
1
1
1
1
1
1
1
1
1
1
1
1
1
1
1
1
1
1
1
1
1
1
1
1
1
1
1
1
1
1
1
1
1
1
1
1
1
1
1
1
1
1
1
1
1
1
1
1
1
1
1
2.85104
9.53914
10.5604
10.6087
10.6733
10.7313
10.7803
10.8193
10.8598
10.903
10.9515
11.0048
11.0566
11.1076
11.1642
11.2277
11.2901
11.3419
11.3807
11.4153
11.4584
11.4928
11.5183
11.5297
11.5389
11.5613
11.6035
11.6602
11.7095
11.7392
11.7396
11.7093
11.6777
11.6634
11.6739
11.7078
11.7481
11.7792
11.8014
11.8217
11.8427
11.8619
11.8829
1
1
1
1
1
1
1
1
1
1
1
1
1
1
1
1
1
1
1
1
1
1
1
1
1
1
1
1
1
1
1
1
1
1
1
1
1
1
1
1
1
1
1
1
1
1
1
1
1
1
1
1
1
1.76841
8.41761
10.5519
10.56
10.6359
10.6993
10.7543
10.7967
10.8347
10.8698
10.9118
10.9563
11.0007
11.0477
11.0994
11.1588
11.2209
11.2749
11.3096
11.3429
11.3817
11.4132
11.4435
11.4605
11.4715
11.4856
11.5159
11.5653
11.6119
11.642
11.644
11.6121
11.5726
11.5493
11.5541
11.5855
11.6279
11.6624
11.6873
11.7113
11.7356
11.7561
11.7782
1
1
1
1
1
1
1
1
1
1
1
1
1
1
1
1
1
1
1
1
1
1
1
1
1
1
1
1
1
1
1
1
1
1
1
1
1
1
1
1
1
1
1
1
1
1
1
1
1
1
1
1
1
1.02628
6.45416
10.5419
10.557
10.5943
10.6446
10.6927
10.7334
10.7682
10.7979
10.8346
10.8776
10.9224
10.97
11.02
11.0768
11.1367
11.1915
11.2242
11.2555
11.2858
11.32
11.3521
11.3754
11.3904
11.4009
11.4225
11.4611
11.5009
11.5249
11.5231
11.4895
11.4458
11.4193
11.4232
11.4519
11.4899
11.519
11.5374
11.5562
11.5783
11.599
11.6201
1
1
1
1
1
1
1
1
1
1
1
1
1
1
1
1
1
1
1
1
1
1
1
1
1
1
1
1
1
1
1
1
1
1
1
1
1
1
1
1
1
1
1
1
1
1
1
1
1
1
1
1
1
1.00005
4.10676
10.0725
10.4957
10.5391
10.5882
10.6405
10.6851
10.7176
10.7403
10.7661
10.7993
10.8371
10.8793
10.9239
10.976
11.0343
11.0908
11.1289
11.1613
11.1876
11.2149
11.2422
11.2639
11.2775
11.2846
11.3005
11.329
11.3578
11.372
11.3615
11.3242
11.2782
11.2492
11.2482
11.2672
11.2937
11.3143
11.3272
11.3436
11.3682
11.3936
11.4153
1
1
1
1
1
1
1
1
1
1
1
1
1
1
1
1
1
1
1
1
1
1
1
1
1
1
1
1
1
1
1
1
1
1
1
1
1
1
1
1
1
1
1
1
1
1
1
1
1
1
1
1
1
1
1.93676
8.58526
10.4517
10.4508
10.5021
10.5592
10.6129
10.6514
10.6747
10.6954
10.7225
10.7556
10.7951
10.8359
10.8823
10.9341
10.9844
11.0196
11.0442
11.0616
11.0781
11.0959
11.1134
11.1271
11.135
11.1483
11.1686
11.185
11.1858
11.1657
11.1281
11.0879
11.0621
11.0552
11.0599
11.0668
11.0681
11.0635
11.0584
11.0588
11.0621
11.0645
1
1
1
1
1
1
1
1
1
1
1
1
1
1
1
1
1
1
1
1
1
1
1
1
1
1
1
1
1
1
1
1
1
1
1
1
1
1
1
1
1
1
1
1
1
1
1
1
1
1
1
1
1
1
1.02452
5.62629
10.3624
10.4184
10.4261
10.4622
10.5083
10.5495
10.5726
10.5881
10.6094
10.639
10.6752
10.711
10.748
10.7874
10.8282
10.8609
10.8839
10.8994
10.9087
10.9184
10.9315
10.9457
10.9574
10.9709
10.9845
10.986
10.9649
10.9259
10.8772
10.8324
10.7953
10.7623
10.7261
10.6841
10.6385
10.5954
10.568
10.5545
10.5687
10.5822
1
1
1
1
1
1
1
1
1
1
1
1
1
1
1
1
1
1
1
1
1
1
1
1
1
1
1
1
1
1
1
1
1
1
1
1
1
1
1
1
1
1
1
1
1
1
1
1
1
1
1
1
1
1
1.00003
2.34561
8.8893
10.2722
10.2852
10.3392
10.3969
10.4446
10.4698
10.4815
10.4957
10.5183
10.5469
10.5762
10.6051
10.6334
10.6634
10.6908
10.7104
10.7222
10.7255
10.7272
10.7332
10.7427
10.7491
10.7529
10.7486
10.7259
10.6817
10.6236
10.5609
10.5045
10.4539
10.3996
10.3341
10.2572
10.1767
10.1075
10.0347
9.97468
9.861
10.0051
1
1
1
1
1
1
1
1
1
1
1
1
1
1
1
1
1
1
1
1
1
1
1
1
1
1
1
1
1
1
1
1
1
1
1
1
1
1
1
1
1
1
1
1
1
1
1
1
1
1
1
1
1
1
0.999999
1.04692
5.93586
10.1851
10.2427
10.287
10.3346
10.3624
10.3731
10.3804
10.3893
10.4058
10.4267
10.4506
10.472
10.49
10.5097
10.5264
10.537
10.5378
10.5337
10.5308
10.5317
10.5384
10.5404
10.534
10.5146
10.4747
10.4146
10.3394
10.2573
10.177
10.0973
10.0048
9.88343
9.72432
9.51791
9.26411
8.89053
8.36014
7.41972
5.53188
1
1
1
1
1
1
1
1
1
1
1
1
1
1
1
1
1
1
1
1
1
1
1
1
1
1
1
1
1
1
1
1
1
1
1
1
1
1
1
1
1
1
1
1
1
1
1
1
1
1
1
1
1
1
1
1.00003
2.85743
9.16482
10.1479
10.176
10.2275
10.265
10.2799
10.294
10.3039
10.3134
10.324
10.3412
10.3555
10.369
10.3846
10.3983
10.4049
10.3976
10.3845
10.3732
10.3655
10.3626
10.3548
10.3367
10.3035
10.2511
10.1791
10.0885
9.98437
9.87362
9.75736
9.62807
9.45985
9.24116
8.94072
8.56662
8.04246
7.38632
6.16781
4.57545
1
1
1
1
1
1
1
1
1
1
1
1
1
1
1
1
1
1
1
1
1
1
1
1
1
1
1
1
1
1
1
1
1
1
1
1
1
1
1
1
1
1
1
1
1
1
1
1
1
1
1
1
1
1
1
0.999999
1.10574
6.66
10.1634
10.1496
10.1676
10.202
10.2154
10.2224
10.2273
10.2252
10.2209
10.2282
10.2374
10.2489
10.261
10.2708
10.2712
10.2538
10.2272
10.2037
10.1862
10.1728
10.1544
10.1255
10.0806
10.0202
9.94203
9.84322
9.72005
9.57669
9.41607
9.24393
9.04032
8.78352
8.44306
7.99772
7.45297
6.66651
5.66486
4.59583
1
1
1
1
1
1
1
1
1
1
1
1
1
1
1
1
1
1
1
1
1
1
1
1
1
1
1
1
1
1
1
1
1
1
1
1
1
1
1
1
1
1
1
1
1
1
1
1
1
1
1
1
1
1
1
1
1.00032
3.0992
9.19286
10.0071
10.0285
10.0747
10.102
10.1183
10.1319
10.1299
10.1201
10.1182
10.1257
10.1343
10.1408
10.1436
10.1368
10.114
10.0803
10.0469
10.0185
9.99169
9.95856
9.91414
9.85489
9.78375
9.69812
9.59446
9.46007
9.29406
9.09893
8.88815
8.65709
8.38329
8.03804
7.59368
7.0362
6.3409
5.56871
4.74885
1
1
1
1
1
1
1
1
1
1
1
1
1
1
1
1
1
1
1
1
1
1
1
1
1
1
1
1
1
1
1
1
1
1
1
1
1
1
1
1
1
1
1
1
1
1
1
1
1
1
1
1
1
1
1
1
1
1.12119
6.48453
9.98622
10.0025
10.0073
10.0425
10.0645
10.069
10.0581
10.0356
10.0152
10.0132
10.0177
10.0178
10.0098
9.98992
9.95897
9.92002
9.87884
9.8403
9.80317
9.7603
9.70686
9.63839
9.55639
9.46045
9.34938
9.20966
9.03317
8.82125
8.58513
8.32901
8.04388
7.71365
7.29824
6.80043
6.22078
5.60852
4.96452
1
1
1
1
1
1
1
1
1
1
1
1
1
1
1
1
1
1
1
1
1
1
1
1
1
1
1
1
1
1
1
1
1
1
1
1
1
1
1
1
1
1
1
1
1
1
1
1
1
1
1
1
1
1
1
1
1
1.00042
2.65351
8.80128
9.8445
9.85957
9.90332
9.94577
9.96777
9.96801
9.95176
9.91801
9.90259
9.90075
9.8931
9.87505
9.84355
9.80661
9.76601
9.71979
9.6724
9.62513
9.57212
9.50997
9.43375
9.34253
9.23557
9.11298
8.96648
8.78853
8.57918
8.34013
8.07552
7.78103
7.46277
7.08097
6.65972
6.18339
5.6763
5.15128
1
1
1
1
1
1
1
1
1
1
1
1
1
1
1
1
1
1
1
1
1
1
1
1
1
1
1
1
1
1
1
1
1
1
1
1
1
1
1
1
1
1
1
1
1
1
1
1
1
1
1
1
1
1
1
1
1
1
1.07433
5.44234
9.66339
9.8245
9.81837
9.84736
9.86705
9.86804
9.86276
9.82235
9.78618
9.76512
9.74259
9.71565
9.67762
9.63759
9.59544
9.54854
9.49777
9.44476
9.38559
9.31883
9.24061
9.14637
9.03296
8.89928
8.74363
8.56536
8.36377
8.13581
7.87874
7.58679
7.27711
6.92988
6.56601
6.16368
5.73952
5.30064
1
1
1
1
1
1
1
1
1
1
1
1
1
1
1
1
1
1
1
1
1
1
1
1
1
1
1
1
1
1
1
1
1
1
1
1
1
1
1
1
1
1
1
1
1
1
1
1
1
1
1
1
1
1
1
1
1
1
1.00017
1.72029
7.92853
9.80385
9.74613
9.7603
9.77338
9.77308
9.77406
9.74312
9.69401
9.65085
9.61761
9.5826
9.54205
9.49853
9.45419
9.40428
9.34684
9.28374
9.21238
9.13417
9.04894
8.95196
8.83755
8.70198
8.54715
8.37285
8.18175
7.96506
7.72256
7.44949
7.15057
6.83427
6.5027
6.1556
5.79228
5.42189
1
1
1
1
1
1
1
1
1
1
1
1
1
1
1
1
1
1
1
1
1
1
1
1
1
1
1
1
1
1
1
1
1
1
1
1
1
1
1
1
1
1
1
1
1
1
1
1
1
1
1
1
1
1
1
1
1
1
1
1.01399
3.9347
9.20155
9.57471
9.55638
9.58765
9.61797
9.64427
9.6355
9.59351
9.53656
9.48775
9.44495
9.40012
9.35637
9.31222
9.26445
9.20581
9.13717
9.05795
8.97055
8.87631
8.77221
8.65424
8.52115
8.37286
8.20661
8.02659
7.81654
7.58966
7.33868
7.0612
6.77465
6.46801
6.16266
5.83912
5.52074
1
1
1
1
1
1
1
1
1
1
1
1
1
1
1
1
1
1
1
1
1
1
1
1
1
1
1
1
1
1
1
1
1
1
1
1
1
1
1
1
1
1
1
1
1
1
1
1
1
1
1
1
1
1
1
1
1
1
1
1.00001
1.20925
5.95388
9.35893
9.4799
9.49782
9.53259
9.55552
9.55859
9.52323
9.46513
9.40096
9.34182
9.28607
9.23321
9.18494
9.13792
9.0784
9.00639
8.92177
8.82873
8.724
8.60731
8.48251
8.35159
8.21168
8.05744
7.89053
7.69052
7.47784
7.24458
6.99279
6.73146
6.45341
6.18336
5.89026
5.60638
1
1
1
1
1
1
1
1
1
1
1
1
1
1
1
1
1
1
1
1
1
1
1
1
1
1
1
1
1
1
1
1
1
1
1
1
1
1
1
1
1
1
1
1
1
1
1
1
1
1
1
1
1
1
1
1
1
1
1
1
1.00132
1.68523
7.54147
9.45776
9.43433
9.44116
9.43947
9.44827
9.4372
9.39318
9.32716
9.25677
9.18948
9.12564
9.0648
9.01213
8.95263
8.88163
8.79905
8.70533
8.5968
8.47439
8.34559
8.21056
8.07143
7.92254
7.76409
7.57676
7.37765
7.16162
6.93491
6.69897
6.45341
6.20491
5.94292
5.68393
1
1
1
1
1
1
1
1
1
1
1
1
1
1
1
1
1
1
1
1
1
1
1
1
1
1
1
1
1
1
1
1
1
1
1
1
1
1
1
1
1
1
1
1
1
1
1
1
1
1
1
1
1
1
1
1
1
1
1
1
1
1.01261
3.18057
8.65217
9.37369
9.31484
9.32343
9.32082
9.3186
9.29037
9.23309
9.16552
9.09645
9.02643
8.95564
8.88894
8.82102
8.74606
8.66656
8.57719
8.47007
8.35194
8.22477
8.08928
7.94972
7.80575
7.64967
7.47381
7.28878
7.09144
6.88569
6.67518
6.4584
6.22875
5.99636
5.75494
1
1
1
1
1
1
1
1
1
1
1
1
1
1
1
1
1
1
1
1
1
1
1
1
1
1
1
1
1
1
1
1
1
1
1
1
1
1
1
1
1
1
1
1
1
1
1
1
1
1
1
1
1
1
1
1
1
1
1
1
1
1.00002
1.11613
4.86033
9.14976
9.26067
9.19228
9.18707
9.18565
9.17149
9.12705
9.06502
8.99664
8.92784
8.85537
8.78012
8.70426
8.62564
8.54205
8.45358
8.35172
8.23897
8.1177
7.98739
7.8512
7.70701
7.5518
7.38486
7.21163
7.03161
6.8435
6.65595
6.45941
6.25019
6.03992
5.81741
1
1
1
1
1
1
1
1
1
1
1
1
1
1
1
1
1
1
1
1
1
1
1
1
1
1
1
1
1
1
1
1
1
1
1
1
1
1
1
1
1
1
1
1
1
1
1
1
1
1
1
1
1
1
1
1
1
1
1
1
1
1
1.0005
1.36401
6.05582
9.11449
9.10878
9.07911
9.06488
9.05011
9.02734
8.98376
8.92084
8.84879
8.77034
8.68764
8.60222
8.5166
8.42959
8.33871
8.24078
8.13044
8.01476
7.89266
7.7627
7.6225
7.47322
7.31465
7.15072
6.98195
6.80631
6.63576
6.45567
6.2666
6.07382
5.87091
1
1
1
1
1
1
1
1
1
1
1
1
1
1
1
1
1
1
1
1
1
1
1
1
1
1
1
1
1
1
1
1
1
1
1
1
1
1
1
1
1
1
1
1
1
1
1
1
1
1
1
1
1
1
1
1
1
1
1
1
1
1
1
1.0038
1.68871
6.87098
8.97528
8.99275
8.95401
8.92321
8.90745
8.88966
8.84606
8.77968
8.70053
8.61421
8.52351
8.43134
8.33805
8.24138
8.13947
8.03084
7.91701
7.80358
7.68285
7.55198
7.41124
7.26129
7.10541
6.9439
6.77812
6.61859
6.45174
6.27661
6.09758
5.91044
1
1
1
1
1
1
1
1
1
1
1
1
1
1
1
1
1
1
1
1
1
1
1
1
1
1
1
1
1
1
1
1
1
1
1
1
1
1
1
1
1
1
1
1
1
1
1
1
1
1
1
1
1
1
1
1
1
1
1
1
1
1
1
1
1.01281
2.07986
7.47979
8.92981
8.88486
8.84121
8.799
8.77118
8.73631
8.68784
8.62344
8.5463
8.46025
8.36858
8.27221
8.16939
8.06023
7.9478
7.83385
7.72163
7.60835
7.48738
7.3554
7.21443
7.06633
6.91158
6.75674
6.60502
6.44758
6.28203
6.11572
5.94056
1
1
1
1
1
1
1
1
1
1
1
1
1
1
1
1
1
1
1
1
1
1
1
1
1
1
1
1
1
1
1
1
1
1
1
1
1
1
1
1
1
1
1
1
1
1
1
1
1
1
1
1
1
1
1
1
1
1
1
1
1
1
1
1
1.00003
1.03014
2.68184
7.85328
8.83546
8.76839
8.73073
8.67856
8.62943
8.57816
8.52586
8.46638
8.39518
8.31298
8.22077
8.11728
8.00446
7.88712
7.76976
7.65533
7.54499
7.42929
7.30366
7.17073
7.02953
6.8833
6.74039
6.59705
6.44749
6.28931
6.13239
5.96566
1
1
1
1
1
1
1
1
1
1
1
1
1
1
1
1
1
1
1
1
1
1
1
1
1
1
1
1
1
1
1
1
1
1
1
1
1
1
1
1
1
1
1
1
1
1
1
1
1
1
1
1
1
1
1
1
1
1
1
1
1
1
1
1
1
1.00008
1.06879
3.19336
8.05628
8.73179
8.66304
8.60957
8.5457
8.4874
8.42897
8.37304
8.3126
8.24399
8.16275
8.06666
7.9576
7.84105
7.72405
7.61082
7.49872
7.3813
7.25765
7.12929
6.99367
6.85812
6.72567
6.59116
6.44808
6.29642
6.14713
5.98881
1
1
1
1
1
1
1
1
1
1
1
1
1
1
1
1
1
1
1
1
1
1
1
1
1
1
1
1
1
1
1
1
1
1
1
1
1
1
1
1
1
1
1
1
1
1
1
1
1
1
1
1
1
1
1
1
1
1
1
1
1
1
1
1
1
1
1.00027
1.11835
3.52948
8.0907
8.62845
8.5608
8.49895
8.42704
8.36184
8.29416
8.22879
8.16213
8.08844
8.00316
7.90624
7.80063
7.69042
7.57792
7.46386
7.34506
7.22116
7.09437
6.96535
6.83894
6.71332
6.58654
6.45022
6.30468
6.16191
6.01313
1
1
1
1
1
1
1
1
1
1
1
1
1
1
1
1
1
1
1
1
1
1
1
1
1
1
1
1
1
1
1
1
1
1
1
1
1
1
1
1
1
1
1
1
1
1
1
1
1
1
1
1
1
1
1
1
1
1
1
1
1
1
1
1
1
1
1
1.00065
1.1606
3.66039
8.02075
8.51763
8.45525
8.39178
8.3147
8.24012
8.16696
8.0905
8.01267
7.93239
7.84526
7.7518
7.65328
7.54812
7.43663
7.31792
7.19489
7.07154
6.94919
6.82712
6.70427
6.58293
6.45377
6.31401
6.17694
6.0371
1
1
1
1
1
1
1
1
1
1
1
1
1
1
1
1
1
1
1
1
1
1
1
1
1
1
1
1
1
1
1
1
1
1
1
1
1
1
1
1
1
1
1
1
1
1
1
1
1
1
1
1
1
1
1
1
1
1
1
1
1
1
1
1
1
1
1
1
1.00108
1.18213
3.61571
7.88918
8.3947
8.33679
8.27632
8.2015
8.12081
8.03773
7.95432
7.86976
7.78425
7.69791
7.60715
7.51011
7.40551
7.29308
7.17605
7.05788
6.94031
6.82093
6.6985
6.57969
6.45668
6.32369
6.19241
6.06037
1
1
1
1
1
1
1
1
1
1
1
1
1
1
1
1
1
1
1
1
1
1
1
1
1
1
1
1
1
1
1
1
1
1
1
1
1
1
1
1
1
1
1
1
1
1
1
1
1
1
1
1
1
1
1
1
1
1
1
1
1
1
1
1
1
1
1
1
1
1.00136
1.17965
3.43288
7.69345
8.27308
8.21915
8.15869
8.08651
8.00401
7.91638
7.82474
7.73527
7.64885
7.56135
7.46946
7.37096
7.26625
7.1573
7.04597
6.934
6.81939
6.69987
6.58214
6.46286
6.33672
6.21015
6.08492
1
1
1
1
1
1
1
1
1
1
1
1
1
1
1
1
1
1
1
1
1
1
1
1
1
1
1
1
1
1
1
1
1
1
1
1
1
1
1
1
1
1
1
1
1
1
1
1
1
1
1
1
1
1
1
1
1
1
1
1
1
1
1
1
1
1
1
1
1
1
1.00137
1.15753
3.1336
7.49285
8.13845
8.08295
8.02165
7.96233
7.88296
7.79411
7.70177
7.61215
7.52492
7.43512
7.33946
7.23926
7.13624
7.03122
6.92481
6.81617
6.70222
6.58662
6.47114
6.35086
6.23089
6.11251
1
1
1
1
1
1
1
1
1
1
1
1
1
1
1
1
1
1
1
1
1
1
1
1
1
1
1
1
1
1
1
1
1
1
1
1
1
1
1
1
1
1
1
1
1
1
1
1
1
1
1
1
1
1
1
1
1
1
1
1
1
1
1
1
1
1
1
1
1
1
1
1.00114
1.12146
2.88668
7.08203
8.00087
7.97097
7.89978
7.83596
7.75727
7.67177
7.58517
7.49785
7.40808
7.31415
7.21646
7.11657
7.01538
6.91292
6.80991
6.70305
6.59302
6.48224
6.36738
6.25291
6.13954
1
1
1
1
1
1
1
1
1
1
1
1
1
1
1
1
1
1
1
1
1
1
1
1
1
1
1
1
1
1
1
1
1
1
1
1
1
1
1
1
1
1
1
1
1
1
1
1
1
1
1
1
1
1
1
1
1
1
1
1
1
1
1
1
1
1
1
1
1
1
1
1
1.00077
1.09415
2.5646
6.53701
7.82623
7.87376
7.78645
7.71929
7.64553
7.5639
7.47817
7.38818
7.29456
7.19891
7.1027
7.00573
6.90626
6.80607
6.70426
6.59927
6.49224
6.38298
6.27257
6.16332
1
1
1
1
1
1
1
1
1
1
1
1
1
1
1
1
1
1
1
1
1
1
1
1
1
1
1
1
1
1
1
1
1
1
1
1
1
1
1
1
1
1
1
1
1
1
1
1
1
1
1
1
1
1
1
1
1
1
1
1
1
1
1
1
1
1
1
1
1
1
1
1
1
1.00053
1.06494
2.20827
5.77103
7.65641
7.78567
7.69034
7.62174
7.54664
7.46331
7.37509
7.28444
7.19173
7.09729
7.00188
6.90476
6.80649
6.70849
6.60855
6.50519
6.40153
6.29232
6.18271
1
1
1
1
1
1
1
1
1
1
1
1
1
1
1
1
1
1
1
1
1
1
1
1
1
1
1
1
1
1
1
1
1
1
1
1
1
1
1
1
1
1
1
1
1
1
1
1
1
1
1
1
1
1
1
1
1
1
1
1
1
1
1
1
1
1
1
1
1
1
1
1
1
1
1.00031
1.03909
1.83431
4.8265
7.4645
7.70195
7.61925
7.53373
7.44987
7.36311
7.27518
7.18596
7.09417
7.00043
6.9051
6.80943
6.71486
6.61759
6.51779
6.41872
6.3122
6.20512
1
1
1
1
1
1
1
1
1
1
1
1
1
1
1
1
1
1
1
1
1
1
1
1
1
1
1
1
1
1
1
1
1
1
1
1
1
1
1
1
1
1
1
1
1
1
1
1
1
1
1
1
1
1
1
1
1
1
1
1
1
1
1
1
1
1
1
1
1
1
1
1
1
1
1
1.00015
1.01978
1.49606
3.94378
7.11116
7.57077
7.52848
7.41443
7.33991
7.2651
7.18249
7.09434
7.00224
6.90884
6.8158
6.7206
6.62516
6.5286
6.43281
6.33694
6.23228
1
1
1
1
1
1
1
1
1
1
1
1
1
1
1
1
1
1
1
1
1
1
1
1
1
1
1
1
1
1
1
1
1
1
1
1
1
1
1
1
1
1
1
1
1
1
1
1
1
1
1
1
1
1
1
1
1
1
1
1
1
1
1
1
1
1
1
1
1
1
1
1
1
1
1
1
1.00005
1.00805
1.27115
3.13064
6.46939
7.39237
7.44351
7.33469
7.25723
7.17804
7.09431
7.00498
6.9161
6.82371
6.72813
6.6345
6.53897
6.44522
6.35433
6.2582
1
1
1
1
1
1
1
1
1
1
1
1
1
1
1
1
1
1
1
1
1
1
1
1
1
1
1
1
1
1
1
1
1
1
1
1
1
1
1
1
1
1
1
1
1
1
1
1
1
1
1
1
1
1
1
1
1
1
1
1
1
1
1
1
1
1
1
1
1
1
1
1
1
1
1
1
1
1.00001
1.00299
1.13288
2.40955
5.50743
7.18253
7.33717
7.2622
7.16782
7.08746
7.00764
6.9228
6.83051
6.73733
6.6461
6.55196
6.46288
6.37508
6.2819
1
1
1
1
1
1
1
1
1
1
1
1
1
1
1
1
1
1
1
1
1
1
1
1
1
1
1
1
1
1
1
1
1
1
1
1
1
1
1
1
1
1
1
1
1
1
1
1
1
1
1
1
1
1
1
1
1
1
1
1
1
1
1
1
1
1
1
1
1
1
1
1
1
1
1
1
1
1
1
1.00097
1.05628
1.81926
4.36152
6.81762
7.22876
7.20293
7.08982
7.01093
6.92916
6.84066
6.75246
6.66108
6.57293
6.48679
6.39214
6.30531
1
1
1
1
1
1
1
1
1
1
1
1
1
1
1
1
1
1
1
1
1
1
1
1
1
1
1
1
1
1
1
1
1
1
1
1
1
1
1
1
1
1
1
1
1
1
1
1
1
1
1
1
1
1
1
1
1
1
1
1
1
1
1
1
1
1
1
1
1
1
1
1
1
1
1
1
1
1
1
1
1.00026
1.02015
1.40204
3.23225
6.20294
7.06066
7.10311
7.02012
6.9189
6.82619
6.75042
6.67441
6.5952
6.50767
6.41846
6.33491
1
1
1
1
1
1
1
1
1
1
1
1
1
1
1
1
1
1
1
1
1
1
1
1
1
1
1
1
1
1
1
1
1
1
1
1
1
1
1
1
1
1
1
1
1
1
1
1
1
1
1
1
1
1
1
1
1
1
1
1
1
1
1
1
1
1
1
1
1
1
1
1
1
1
1
1
1
1
1
1
1
1.00006
1.00596
1.15923
2.40052
5.07201
6.79253
7.02814
6.96869
6.86168
6.76606
6.67766
6.60539
6.53294
6.46022
6.36763
1
1
1
1
1
1
1
1
1
1
1
1
1
1
1
1
1
1
1
1
1
1
1
1
1
1
1
1
1
1
1
1
1
1
1
1
1
1
1
1
1
1
1
1
1
1
1
1
1
1
1
1
1
1
1
1
1
1
1
1
1
1
1
1
1
1
1
1
1
1
1
1
1
1
1
1
1
1
1
1
1
1
1.00001
1.00137
1.05852
1.71664
3.77904
6.29584
6.9008
6.89501
6.79722
6.67891
6.59701
6.5431
6.48043
6.40327
1
1
1
1
1
1
1
1
1
1
1
1
1
1
1
1
1
1
1
1
1
1
1
1
1
1
1
1
1
1
1
1
1
1
1
1
1
1
1
1
1
1
1
1
1
1
1
1
1
1
1
1
1
1
1
1
1
1
1
1
1
1
1
1
1
1
1
1
1
1
1
1
1
1
1
1
1
1
1
1
1
1
1
1
1.00028
1.01703
1.2778
2.73393
5.21076
6.72278
6.84578
6.76401
6.64388
6.53342
6.4424
6.40085
1
1
1
1
1
1
1
1
1
1
1
1
1
1
1
1
1
1
1
1
1
1
1
1
1
1
1
1
1
1
1
1
1
1
1
1
1
1
1
1
1
1
1
1
1
1
1
1
1
1
1
1
1
1
1
1
1
1
1
1
1
1
1
1
1
1
1
1
1
1
1
1
1
1
1
1
1
1
1
1
1
1
1
1
1
1.00005
1.00332
1.09637
1.86234
4.06182
6.03042
6.69637
6.73343
6.66433
6.5552
6.42417
1
1
1
1
1
1
1
1
1
1
1
1
1
1
1
1
1
1
1
1
1
1
1
1
1
1
1
1
1
1
1
1
1
1
1
1
1
1
1
1
1
1
1
1
1
1
1
1
1
1
1
1
1
1
1
1
1
1
1
1
1
1
1
1
1
1
1
1
1
1
1
1
1
1
1
1
1
1
1
1
1
1
1
1
1
1
1
1.00064
1.02511
1.36121
2.77006
5.16408
6.27891
6.63441
6.65628
6.55207
1
1
1
1
1
1
1
1
1
1
1
1
1
1
1
1
1
1
1
1
1
1
1
1
1
1
1
1
1
1
1
1
1
1
1
1
1
1
1
1
1
1
1
1
1
1
1
1
1
1
1
1
1
1
1
1
1
1
1
1
1
1
1
1
1
1
1
1
1
1
1
1
1
1
1
1
1
1
1
1
1
1
1
1
1
1
1
1
1.00008
1.00537
1.10986
1.8586
3.88907
5.69188
6.39025
6.56641
1
1
1
1
1
1
1
1
1
1
1
1
1
1
1
1
1
1
1
1
1
1
1
1
1
1
1
1
1
1
1
1
1
1
1
1
1
1
1
1
1
1
1
1
1
1
1
1
1
1
1
1
1
1
1
1
1
1
1
1
1
1
1
1
1
1
1
1
1
1
1
1
1
1
1
1
1
1
1
1
1
1
1
1
1
1
1
1
1
1.00001
1.00085
1.02518
1.33541
2.56376
4.66303
6.17091
1
1
1
1
1
1
1
1
1
1
1
1
1
1
1
1
1
1
1
1
1
1
1
1
1
1
1
1
1
1
1
1
1
1
1
1
1
1
1
1
1
1
1
1
1
1
1
1
1
1
1
1
1
1
1
1
1
1
1
1
1
1
1
1
1
1
1
1
1
1
1
1
1
1
1
1
1
1
1
1
1
1
1
1
1
1
1
1
1
1
1
1.00009
1.00476
1.08833
1.68499
3.49774
1
1
1
1
1
1
1
1
1
1
1
1
1
1
1
1
1
1
1
1
1
1
1
1
1
1
1
1
1
1
1
1
1
1
1
1
1
1
1
1
1
1
1
1
1
1
1
1
1
1
1
1
1
1
1
1
1
1
1
1
1
1
1
1
1
1
1
1
1
1
1
1
1
1
1
1
1
1
1
1
1
1
1
1
1
1
1
1
1
1
1
1
1.00001
1.00057
1.01826
1.24322
1
1
1
1
1
1
1
1
1
1
1
1
1
1
1
1
1
1
1
1
1
1
1
1
1
1
1
1
1
1
1
1
1
1
1
1
1
1
1
1
1
1
1
1
1
1
1
1
1
1
1
1
1
1
1
1
1
1
1
1
1
1
1
1
1
1
1
1
1
1
1
1
1
1
1
1
1
1
1
1
1
1
1
1
1
1
1
1
1
1
1
1
1
1
1.00006
1.00263
1
1
1
1
1
1
1
1
1
1
1
1
1
1
1
1
1
1
1
1
1
1
1
1
1
1
1
1
1
1
1
1
1
1
1
1
1
1
1
1
1
1
1
1
1
1
1
1
1
1
1
1
1
1
1
1
1
1
1
1
1
1
1
1
1
1
1
1
1
1
1
1
1
1
1
1
1
1
1
1
1
1
1
1
1
1
1
1
1
1
1
1
1
1
1
1
1
1
1
1
1
1
1
1
1
1
1
1
1
1
1
1
1
1
1
1
1
1
1
1
1
1
1
1
1
1
1
1
1
1
1
1
1
1
1
1
1
1
1
1
1
1
1
1
1
1
1
1
1
1
1
1
1
1
1
1
1
1
1
1
1
1
1
1
1
1
1
1
1
1
1
1
1
1
1
1
1
1
1
1
1
1
1
1
1
1
1
1
1
1
1
1
1
1
1
1
1
1
1
1
1
1
1
1
1
1
1
1
1
1
1
1
1
1
1
1
1
1
1
1
1
1
1
1
1
1
1
1
1
1
1
1
1
1
1
1
1
1
1
1
1
1
1
1
1
1
1
1
1
1
1
1
1
1
1
1
1
1
1
1
1
1
1
1
1
1
1
1
1
1
1
1
1
1
1
1
1
1
1
1
1
1
1
1
1
1
1
1
1
1
1
1
1
1
1
1
1
1
1
1
1
1
1
1
1
1
1
1
1
1
1
1
1
1
1
1
1
1
1
1
1
1
1
1
1
1
1
1
1
1
1
1
1
1
1
1
1
1
1
1
1
1
1
1
1
1
1
1
1
1
1
1
1
1
1
1
1
1
1
1
1
1
1
1
1
1
1
1
1
1
1
1
1
1
1
1
1
1
1
1
1
1
1
1
1
1
1
1
1
1
1
1
1
1
1
1
1
1
1
1
1
1
1
1
1
1
1
1
1
1
1
1
1
1
1
1
1
1
1
1
1
1
1
1
1
1
1
1
1
1
1
1
1
1
1
1
1
1
1
1
1
1
1
1
1
1
1
1
1
1
1
1
1
1
1
1
1
1
1
1
1
1
1
1
1
1
1
1
1
1
1
1
1
1
1
1
1
1
1
1
1
1
1
1
1
1
1
1
1
1
1
1
1
1
1
1
1
1
1
1
1
1
1
1
1
1
1
1
1
1
1
1
1
1
1
1
1
1
1
1
1
1
1
1
1
1
1
1
1
1
1
1
1
1
1
1
1
1
1
1
1
1
1
1
1
1
1
1
1
1
1
1
1
1
1
1
1
1
1
1
1
1
1
1
1
1
1
1
1
1
1
1
1
1
1
1
1
1
1
1
1
1
1
1
1
1
1
1
1
1
1
1
1
1
1
1
1
1
1
1
1
1
1
1
1
1
1
1
1
1
1
1
1
1
1
1
1
1
1
1
1
1
1
1
1
1
1
1
1
1
1
1
1
1
1
1
1
1
1
1
1
1
1
1
1
1
1
1
1
1
1
1
1
1
1
1
1
1
1
1
1
1
1
1
1
1
1
1
1
1
1
1
1
1
1
1
1
1
1
1
1
1
1
1
1
1
1
1
1
1
1
1
1
1
1
1
1
1
1
1
1
1
1
1
1
1
1
1
1
1
1
1
1
1
1
1
1
1
1
1
1
1
1
1
1
1
1
1
1
1
1
1
1
1
1
1
1
1
1
1
1
1
1
1
1
1
1
1
1
1
1
1
1
1
1
1
1
1
1
1
1
1
1
1
1
1
1
1
1
1
1
1
1
1
1
1
1
1
1
1
1
1
1
1
1
1
1
1
1
1
1
1
1
1
1
1
1
1
1
1
1
1
1
1
1
1
1
1
1
1
1
1
1
1
1
1
1
1
1
1
1
1
1
1
1
1
1
1
1
1
1
1
1
1
1
1
1
1
1
1
1
1
1
1
1
1
1
1
1
1
1
1
1
1
1
1
1
1
1
1
1
1
1
1
1
1
1
1
1
1
1
1
1
1
1
1
1
1
1
1
1
1
1
1
1
1
1
1
1
1
1
1
1
1
1
1
1
1
1
1
1
1
1
1
1
1
1
1
1
1
1
1
1
1
1
1
1
1
1
1
1
1
1
1
1
1
1
1
1
1
1
1
1
1
1
1
1
1
1
1
1
1
1
1
1
1
1
1
1
1
1
1
1
1
1
1
1
1
1
1
1
1
1
1
1
1
1
1
1
1
1
1
1
1
1
1
1
1
1
1
1
1
1
1
1
1
1
1
1
1
1
1
1
1
1
1
1
1
1
1
1
1
1
1
1
1
1
1
1
1
1
1
1
1
1
1
1
1
1
1
1
1
1
1
1
1
1
1
1
1
1
1
1
1
1
1
1
1
1
1
1
1
1
1
1
1
1
1
1
1
1
1
1
1
1
1
1
1
1
1
1
1
1
1
1
1
1
1
1
1
1
1
1
1
1
1
1
1
1
1
1
1
1
1
1
1
1
1
1
1
1
1
1
1
1
1
1
1
1
1
1
1
1
1
1
1
1
1
1
1
1
1
1
1
1
1
1
1
1
1
1
1
1
1
1
1
1
1
1
1
1
1
1
1
1
1
1
1
1
1
1
1
1
1
1
1
1
1
1
1
1
1
1
1
1
1
1
1
1
1
1
1
1
1
1
1
1
1
1
1
1
1
1
1
1
1
1
1
1
1
1
1
1
1
1
1
1
1
1
1
1
1
1
1
1
1
1
1
1
1
1
1
1
1
1
1
1
1
1
1
1
1
1
1
1
1
1
1
1
1
1
1
1
1
1
1
1
1
1
1
1
1
1
1
1
1
1
1
1
1
1
1
1
1
1
1
1
1
1
1
1
1
1
1
1
1
1
1
1
1
1
1
1
1
1
1
1
1
1
1
1
1
1
1
1
1
1
1
1
1
1
1
1
1
1
1
1
1
1
1
1
1
1
1
1
1
1
1
1
1
1
1
1
1
1
1
1
1
1
1
1
1
1
1
1
1
1
1
1
1
1
1
1
1
1
1
1
1
1
1
1
1
1
1
1
1
1
1
1
1
1
1
1
1
1
1
1
1
1
1
1
1
1
1
1
1
1
1
1
1
1
1
1
1
1
1
1
1
1
1
1
1
1
1
1
1
1
1
1
1
1
1
1
1
1
1
1
1
1
1
1
1
1
1
1
1
1
1
1
1
1
1
1
1
1
1
1
1
1
1
1
1
1
1
1
1
1
1
1
1
1
1
1
1
1
1
1
1
1
1
1
1
1
1
1
1
1
1
1
1
1
1
1
1
1
1
1
1
1
1
1
1
1
1
1
1
1
1
1
1
1
1
1
1
1
1
1
1
1
1
1
1
1
1
1
1
1
1
1
1
1
1
1
1
1
1
1
1
1
1
1
1
1
1
1
1
1
1
1
1
1
1
1
1
1
1
1
1
1
1
1
1
1
1
1
1
1
1
1
1
1
1
1
1
1
1
1
1
1
1
1
1
1
1
1
1
1
1
1
1
1
1
1
1
1
1
1
1
1
1
1
1
1
1
1
1
1
1
1
1
1
1
1
1
1
1
1
1
1
1
1
1
1
1
1
1
1
1
1
1
1
1
1
1
1
1
1
1
1
1
1
1
1
1
1
1
1
1
1
1
1
1
1
1
1
1
1
1
1
1
1
1
1
1
1
1
1
1
1
1
1
1
1
1
1
1
1
1
1
1
1
1
1
1
1
1
1
1
1
1
1
1
1
1
1
1
1
1
1
1
1
1
1
1
1
1
1
1
1
1
1
1
1
1
1
1
1
1
1
1
1
1
1
1
1
1
1
1
1
1
1
1
1
1
1
1
1
1
1
1
1
1
1
1
1
1
1
1
1
1
1
1
1
1
1
1
1
1
1
1
1
1
1
1
1
1
1
1
1
1
1
1
1
1
1
1
1
1
1
1
1
1
1
1
1
1
1
1
1
1
1
1
1
1
1
1
1
1
1
1
1
1
1
1
1
1
1
1
1
1
1
1
1
1
1
1
1
1
1
1
1
1
1
1
1
1
1
1
1
1
1
1
1
1
1
1
1
1
1
1
1
1
1
1
1
1
1
1
1
1
1
1
1
1
1
1
1
1
1
1
1
1
1
1
1
1
1
1
1
1
1
1
1
1
1
1
1
1
1
1
1
1
1
1
1
1
1
1
1
1
1
1
1
1
1
1
1
1
1
1
1
1
1
1
1
1
1
1
1
1
1
1
1
1
1
1
1
1
1
1
1
1
1
1
1
1
1
1
1
1
1
1
1
1
1
1
1
1
1
1
1
1
1
1
1
1
1
1
1
1
1
1
1
1
1
1
1
1
1
1
1
1
1
1
1
1
1
1
1
1
1
1
1
1
1
1
1
1
1
1
1
1
1
1
1
1
1
1
1
1
1
1
1
1
1
1
1
1
1
1
1
1
1
1
1
1
1
1
1
1
1
1
1
1
1
1
1
1
1
1
1
1
1
1
1
1
1
1
1
1
1
1
1
1
1
1
1
1
1
1
1
1
1
1
1
1
1
1
1
1
1
1
1
1
1
1
1
1
1
1
1
1
1
1
1
1
1
1
1
1
1
1
1
1
1
1
1
1
1
1
1
1
1
1
1
1
1
1
1
1
1
1
1
1
1
1
1
1
1
1
1
1
1
1
1
1
1
1
1
1
1
1
1
1
1
1
1
1
1
1
1
1
1
1
1
1
1
1
1
1
1
1
1
1
1
1
1
1
1
1
1
1
1
1
1
1
1
1
1
1
1
1
1
1
1
1
1
1
1
1
1
1
1.18961
0.213833
0.0238937
0.0271355
0.0714086
0.0947731
0.10405
0.131249
0.207624
0.285852
0.342707
0.400489
0.469024
0.516107
0.565492
0.630262
0.704123
0.783582
0.872522
0.949695
0.960126
0.957618
0.952504
0.96158
0.970434
0.980931
1.00597
1.04091
1.05212
1.06293
1.07997
1.09078
1.09745
1.10735
1.1082
1.11168
1.11851
1.12521
1.12972
1.13908
1.15839
1.17741
1.18176
1.18311
1.18352
1.18248
1.17979
1.17725
1.17856
1.18317
1.18847
1.1912
1.19051
1.18771
1.1845
1.18154
1.17905
1.17816
1.17771
1.17825
1.18021
1.17804
1.17456
1.17092
1.16557
1.1567
1.14809
1.14608
1.14675
1.14714
1.14834
1.15025
1.14918
1.14475
1.13945
1.13332
1.126
1.11862
1.11205
1.10599
1.10034
1.09545
1.09009
1.08417
1.0802
1.07744
1.07484
1.07253
1.07062
1.06657
1.06083
1.05546
1.04942
1.04322
1.03729
1.03044
1.02711
1.02588
1.02327
1.01997
1.01582
1.01024
1.00323
0.996173
0.990361
0.98616
0.982759
0.979817
0.977119
0.974009
0.969993
0.966867
0.964964
0.963141
0.960652
0.957287
0.953438
0.948949
0.942957
0.93603
0.930083
0.92555
0.922857
0.922516
0.92278
0.923293
0.92352
0.922537
0.920657
0.917301
0.912885
0.908391
0.904523
0.901354
0.89824
0.895528
0.893918
0.897885
0.915263
0.958044
1.03937
1.16849
1.34043
1.56446
1.80197
2.08045
2.33735
2.56729
2.782
2.96883
3.13776
3.28112
3.39045
3.47835
3.51109
3.52519
3.5077
3.46451
3.42277
3.38098
3.32056
3.26676
3.22381
3.17682
3.12768
3.08286
3.03612
2.99265
2.95455
2.9191
2.89384
2.87787
2.86085
2.84394
2.82824
2.81001
2.78718
2.76291
2.73841
2.7137
2.68765
2.66564
2.64657
2.62747
2.6134
2.60232
2.59389
2.5826
2.57019
2.55793
2.54712
2.52478
2.10582
0.915561
0.273094
0.214878
0.272799
0.259401
0.206989
0.198258
0.206544
0.216455
0.234445
0.258251
0.293118
0.339847
0.396024
0.458501
0.520064
0.567798
0.636116
0.73674
0.817627
0.856189
0.879315
0.902048
0.925744
0.955979
0.993867
1.03667
1.04648
1.05297
1.06389
1.07218
1.07772
1.0898
1.09773
1.10281
1.11137
1.11968
1.12721
1.13841
1.15539
1.16977
1.17424
1.17647
1.17775
1.17868
1.1795
1.18021
1.18066
1.18072
1.18189
1.1823
1.18181
1.18078
1.18039
1.18089
1.18049
1.17958
1.17863
1.17763
1.178
1.17669
1.1746
1.1726
1.16963
1.16412
1.15588
1.14837
1.14508
1.14412
1.14332
1.14371
1.14524
1.14493
1.14077
1.13529
1.12922
1.12232
1.11475
1.10738
1.10115
1.09614
1.09172
1.08721
1.083
1.07843
1.0747
1.07178
1.06861
1.06388
1.05807
1.05292
1.04739
1.04148
1.03612
1.03087
1.0267
1.02473
1.0222
1.01909
1.01551
1.01065
1.00376
0.995687
0.989225
0.98526
0.982119
0.979395
0.977116
0.975119
0.973015
0.970496
0.96738
0.963387
0.95897
0.954684
0.950558
0.94657
0.942445
0.938035
0.93401
0.930721
0.927929
0.925217
0.922341
0.919508
0.917007
0.914645
0.911538
0.907374
0.902217
0.897534
0.89464
0.894657
0.899874
0.918147
0.962772
1.03978
1.15584
1.2887
1.43236
1.54584
1.66705
1.73277
1.79473
1.85181
1.92067
2.01293
2.11614
2.22721
2.33202
2.4275
2.51553
2.60223
2.68066
2.74668
2.79637
2.84129
2.89149
2.93896
2.9753
3.01149
3.03719
3.05049
3.05432
3.04446
3.02462
3.00112
2.97372
2.94652
2.92387
2.91108
2.89597
2.87947
2.86598
2.85261
2.83326
2.81086
2.78832
2.76539
2.74089
2.71647
2.69394
2.67328
2.65433
2.63807
2.62464
2.61081
2.59666
2.58222
2.56947
2.54237
2.70193
1.67327
1.05121
0.705956
0.588712
0.493196
0.359155
0.309589
0.3165
0.311971
0.289457
0.288648
0.306564
0.338709
0.373407
0.40314
0.418844
0.440393
0.471255
0.542673
0.649258
0.731969
0.788193
0.838136
0.88688
0.943344
0.988242
1.02557
1.05191
1.06312
1.08031
1.09235
1.09309
1.09228
1.08898
1.092
1.10183
1.10896
1.11895
1.13368
1.15029
1.16102
1.16891
1.1758