/*--------------------------------*- C++ -*----------------------------------*\
  =========                 |
  \\      /  F ield         | OpenFOAM: The Open Source CFD Toolbox
   \\    /   O peration     | Website:  https://openfoam.org
    \\  /    A nd           | Version:  7
     \\/     M anipulation  |
\*---------------------------------------------------------------------------*/
FoamFile
{
    version     2.0;
    format      ascii;
    class       volScalarField;
    location    "1.2";
    object      rho;
}
// * * * * * * * * * * * * * * * * * * * * * * * * * * * * * * * * * * * * * //

dimensions      [1 -3 0 0 0 0 0];

internalField   nonuniform List<scalar> 
19968
(
1.40001
1.40001
1.40001
1.40001
1.40001
1.40001
1.40001
1.40001
1.40001
1.40001
1.40001
1.40001
1.40001
1.40001
1.40001
1.40001
1.40001
1.40001
1.40001
1.40001
1.40001
1.40001
1.40001
1.40001
1.40001
1.40001
1.40001
1.40001
1.40001
1.40001
1.40001
1.40001
1.40001
1.40001
1.40001
1.40001
1.40001
1.40001
1.40001
1.40001
1.40001
1.40001
1.40001
1.40001
1.40001
1.40001
1.40001
1.40001
1.40001
1.40001
1.40001
1.40001
1.84744
4.74223
5.47403
5.5189
5.55631
5.57355
5.57121
5.56129
5.55426
5.55443
5.5643
5.58413
5.61294
5.64789
5.68338
5.71515
5.74111
5.76013
5.77422
5.7816
5.78527
5.79445
5.81117
5.83277
5.85178
5.86312
5.86794
5.86832
5.86739
5.86897
5.87287
5.87854
5.88282
5.88423
5.88355
5.88031
5.87617
5.87202
5.86173
5.82826
5.7576
5.66495
5.59271
5.56486
1.40001
1.40001
1.40001
1.40001
1.40001
1.40001
1.40001
1.40001
1.40001
1.40001
1.40001
1.40001
1.40001
1.40001
1.40001
1.40001
1.40001
1.40001
1.40001
1.40001
1.40001
1.40001
1.40001
1.40001
1.40001
1.40001
1.40001
1.40001
1.40001
1.40001
1.40001
1.40001
1.40001
1.40001
1.40001
1.40001
1.40001
1.40001
1.40001
1.40001
1.40001
1.40001
1.40001
1.40001
1.40001
1.40001
1.40001
1.40001
1.40001
1.40001
1.40001
1.40001
1.82562
4.71013
5.46694
5.51389
5.5561
5.57263
5.56952
5.55942
5.55215
5.5532
5.5651
5.58654
5.61636
5.65065
5.68401
5.71445
5.73977
5.75859
5.77228
5.77894
5.78239
5.79155
5.80812
5.82974
5.84899
5.86121
5.86762
5.86945
5.86935
5.87059
5.87265
5.87555
5.87772
5.87874
5.87914
5.87797
5.87587
5.87258
5.86148
5.82611
5.75387
5.6607
5.58882
5.56189
1.40001
1.40001
1.40001
1.40001
1.40001
1.40001
1.40001
1.40001
1.40001
1.40001
1.40001
1.40001
1.40001
1.40001
1.40001
1.40001
1.40001
1.40001
1.40001
1.40001
1.40001
1.40001
1.40001
1.40001
1.40001
1.40001
1.40001
1.40001
1.40001
1.40001
1.40001
1.40001
1.40001
1.40001
1.40001
1.40001
1.40001
1.40001
1.40001
1.40001
1.40001
1.40001
1.40001
1.40001
1.40001
1.40001
1.40001
1.40001
1.40001
1.40001
1.40001
1.40001
1.77708
4.64684
5.46234
5.5193
5.55771
5.57003
5.56414
5.5528
5.54555
5.54938
5.56512
5.58953
5.62043
5.65352
5.68429
5.71356
5.73827
5.75702
5.77019
5.77553
5.77782
5.78617
5.80232
5.82375
5.84338
5.8573
5.86633
5.87058
5.87221
5.87298
5.87268
5.87153
5.87015
5.8701
5.87155
5.87339
5.87449
5.87238
5.85981
5.82151
5.74685
5.65291
5.5814
5.55572
1.40001
1.40001
1.40001
1.40001
1.40001
1.40001
1.40001
1.40001
1.40001
1.40001
1.40001
1.40001
1.40001
1.40001
1.40001
1.40001
1.40001
1.40001
1.40001
1.40001
1.40001
1.40001
1.40001
1.40001
1.40001
1.40001
1.40001
1.40001
1.40001
1.40001
1.40001
1.40001
1.40001
1.40001
1.40001
1.40001
1.40001
1.40001
1.40001
1.40001
1.40001
1.40001
1.40001
1.40001
1.40001
1.40001
1.40001
1.40001
1.40001
1.40001
1.40001
1.40001
1.69969
4.54836
5.4725
5.52848
5.55687
5.5648
5.55627
5.54391
5.5387
5.54742
5.56796
5.59463
5.62503
5.65561
5.6839
5.71211
5.73656
5.75546
5.76795
5.77152
5.7725
5.77975
5.79519
5.8156
5.83482
5.8503
5.86241
5.87013
5.87391
5.87442
5.8715
5.8658
5.86052
5.85877
5.86142
5.86697
5.87141
5.87043
5.85602
5.81408
5.7363
5.64131
5.5704
5.54622
1.40001
1.40001
1.40001
1.40001
1.40001
1.40001
1.40001
1.40001
1.40001
1.40001
1.40001
1.40001
1.40001
1.40001
1.40001
1.40001
1.40001
1.40001
1.40001
1.40001
1.40001
1.40001
1.40001
1.40001
1.40001
1.40001
1.40001
1.40001
1.40001
1.40001
1.40001
1.40001
1.40001
1.40001
1.40001
1.40001
1.40001
1.40001
1.40001
1.40001
1.40001
1.40001
1.40001
1.40001
1.40001
1.40001
1.40001
1.40001
1.40001
1.40001
1.40001
1.40001
1.56839
4.36618
5.49256
5.53431
5.55633
5.56184
5.55008
5.53647
5.53359
5.54626
5.57062
5.59895
5.62836
5.65657
5.68368
5.71053
5.7348
5.75412
5.76554
5.76706
5.76697
5.77305
5.78771
5.8063
5.8238
5.83977
5.85437
5.8657
5.87234
5.87347
5.8685
5.85917
5.85025
5.84648
5.84972
5.85786
5.86491
5.86504
5.84913
5.80392
5.72328
5.62742
5.55733
5.53474
1.40001
1.40001
1.40001
1.40001
1.40001
1.40001
1.40001
1.40001
1.40001
1.40001
1.40001
1.40001
1.40001
1.40001
1.40001
1.40001
1.40001
1.40001
1.40001
1.40001
1.40001
1.40001
1.40001
1.40001
1.40001
1.40001
1.40001
1.40001
1.40001
1.40001
1.40001
1.40001
1.40001
1.40001
1.40001
1.40001
1.40001
1.40001
1.40001
1.40001
1.40001
1.40001
1.40001
1.40001
1.40001
1.40001
1.40001
1.40001
1.40001
1.40001
1.40001
1.40001
1.40958
4.10661
5.52391
5.54156
5.54809
5.54568
5.53698
5.53087
5.534
5.54891
5.57262
5.59976
5.62758
5.655
5.6825
5.70782
5.73113
5.75095
5.76142
5.76111
5.76038
5.7665
5.78084
5.79706
5.81206
5.82674
5.84229
5.85619
5.86546
5.86811
5.86305
5.85187
5.84024
5.83445
5.83697
5.84572
5.85397
5.85474
5.83795
5.79072
5.70818
5.6118
5.54261
5.52119
1.40001
1.40001
1.40001
1.40001
1.40001
1.40001
1.40001
1.40001
1.40001
1.40001
1.40001
1.40001
1.40001
1.40001
1.40001
1.40001
1.40001
1.40001
1.40001
1.40001
1.40001
1.40001
1.40001
1.40001
1.40001
1.40001
1.40001
1.40001
1.40001
1.40001
1.40001
1.40001
1.40001
1.40001
1.40001
1.40001
1.40001
1.40001
1.40001
1.40001
1.40001
1.40001
1.40001
1.40001
1.40001
1.40001
1.40001
1.40001
1.40001
1.40001
1.40001
1.40001
1.40005
3.75486
5.47774
5.52508
5.53254
5.53463
5.53154
5.52917
5.53325
5.54737
5.56982
5.59684
5.62413
5.65124
5.67834
5.70303
5.72548
5.7447
5.75352
5.75223
5.75108
5.75877
5.77357
5.78729
5.79957
5.81181
5.82679
5.84138
5.85241
5.85706
5.85401
5.84295
5.8297
5.82173
5.82206
5.82939
5.83746
5.83872
5.82207
5.7746
5.69145
5.5948
5.52615
5.5054
1.40001
1.40001
1.40001
1.40001
1.40001
1.40001
1.40001
1.40001
1.40001
1.40001
1.40001
1.40001
1.40001
1.40001
1.40001
1.40001
1.40001
1.40001
1.40001
1.40001
1.40001
1.40001
1.40001
1.40001
1.40001
1.40001
1.40001
1.40001
1.40001
1.40001
1.40001
1.40001
1.40001
1.40001
1.40001
1.40001
1.40001
1.40001
1.40001
1.40001
1.40001
1.40001
1.40001
1.40001
1.40001
1.40001
1.40001
1.40001
1.40001
1.40001
1.40001
1.40001
1.40001
3.34372
5.39803
5.50775
5.51861
5.52497
5.52486
5.52344
5.52576
5.53837
5.56072
5.58752
5.61502
5.64279
5.66869
5.69377
5.71736
5.73395
5.74006
5.73866
5.73782
5.74778
5.76378
5.77652
5.78654
5.79584
5.80875
5.82225
5.83402
5.84066
5.84067
5.83175
5.81771
5.80692
5.80387
5.80821
5.81543
5.81715
5.8016
5.7554
5.67274
5.5758
5.50685
5.48629
1.40001
1.40001
1.40001
1.40001
1.40001
1.40001
1.40001
1.40001
1.40001
1.40001
1.40001
1.40001
1.40001
1.40001
1.40001
1.40001
1.40001
1.40001
1.40001
1.40001
1.40001
1.40001
1.40001
1.40001
1.40001
1.40001
1.40001
1.40001
1.40001
1.40001
1.40001
1.40001
1.40001
1.40001
1.40001
1.40001
1.40001
1.40001
1.40001
1.40001
1.40001
1.40001
1.40001
1.40001
1.40001
1.40001
1.40001
1.40001
1.40001
1.40001
1.40001
1.40001
1.40001
2.87847
5.26883
5.48854
5.50462
5.51561
5.51849
5.51716
5.51783
5.52869
5.54967
5.57568
5.60127
5.62895
5.65547
5.681
5.70368
5.71788
5.72167
5.71986
5.72036
5.73293
5.75018
5.76378
5.77251
5.77862
5.7877
5.79815
5.80953
5.81826
5.82122
5.81514
5.80086
5.78698
5.7801
5.78116
5.78747
5.79016
5.77696
5.73323
5.65201
5.55484
5.48488
5.4642
1.40001
1.40001
1.40001
1.40001
1.40001
1.40001
1.40001
1.40001
1.40001
1.40001
1.40001
1.40001
1.40001
1.40001
1.40001
1.40001
1.40001
1.40001
1.40001
1.40001
1.40001
1.40001
1.40001
1.40001
1.40001
1.40001
1.40001
1.40001
1.40001
1.40001
1.40001
1.40001
1.40001
1.40001
1.40001
1.40001
1.40001
1.40001
1.40001
1.40001
1.40001
1.40001
1.40001
1.40001
1.40001
1.40001
1.40001
1.40001
1.40001
1.40001
1.40001
1.40001
1.40001
2.35527
5.04314
5.46096
5.4824
5.5008
5.50734
5.50678
5.50644
5.51554
5.53458
5.55934
5.58746
5.615
5.6405
5.66462
5.68506
5.69742
5.70015
5.698
5.70012
5.71431
5.73153
5.74645
5.75502
5.75926
5.76411
5.77056
5.78076
5.79096
5.79665
5.79359
5.77947
5.76254
5.75159
5.74952
5.75464
5.75836
5.74715
5.7055
5.62557
5.5278
5.45607
5.43481
1.40001
1.40001
1.40001
1.40001
1.40001
1.40001
1.40001
1.40001
1.40001
1.40001
1.40001
1.40001
1.40001
1.40001
1.40001
1.40001
1.40001
1.40001
1.40001
1.40001
1.40001
1.40001
1.40001
1.40001
1.40001
1.40001
1.40001
1.40001
1.40001
1.40001
1.40001
1.40001
1.40001
1.40001
1.40001
1.40001
1.40001
1.40001
1.40001
1.40001
1.40001
1.40001
1.40001
1.40001
1.40001
1.40001
1.40001
1.40001
1.40001
1.40001
1.40001
1.40001
1.40001
1.82476
4.6856
5.46025
5.46834
5.49446
5.50442
5.5052
5.50509
5.51336
5.52998
5.55238
5.57737
5.60151
5.62418
5.64365
5.65869
5.66796
5.67138
5.67036
5.67623
5.69202
5.70859
5.72504
5.73479
5.73866
5.73914
5.74084
5.74841
5.75821
5.76443
5.76205
5.74755
5.72766
5.71318
5.70901
5.71363
5.71857
5.70961
5.67074
5.59306
5.49529
5.42188
5.39992
1.40001
1.40001
1.40001
1.40001
1.40001
1.40001
1.40001
1.40001
1.40001
1.40001
1.40001
1.40001
1.40001
1.40001
1.40001
1.40001
1.40001
1.40001
1.40001
1.40001
1.40001
1.40001
1.40001
1.40001
1.40001
1.40001
1.40001
1.40001
1.40001
1.40001
1.40001
1.40001
1.40001
1.40001
1.40001
1.40001
1.40001
1.40001
1.40001
1.40001
1.40001
1.40001
1.40001
1.40001
1.40001
1.40001
1.40001
1.40001
1.40001
1.40001
1.40001
1.40001
1.40001
1.41929
3.9616
5.45075
5.46594
5.47926
5.48641
5.48626
5.48705
5.49546
5.51051
5.53124
5.55546
5.57895
5.6005
5.61651
5.62744
5.63443
5.63909
5.64045
5.649
5.66361
5.68112
5.69769
5.70868
5.71275
5.71042
5.70859
5.713
5.72098
5.7258
5.72225
5.70689
5.68553
5.66965
5.66487
5.6686
5.67277
5.66359
5.625
5.54751
5.44848
5.37296
5.34949
1.40001
1.40001
1.40001
1.40001
1.40001
1.40001
1.40001
1.40001
1.40001
1.40001
1.40001
1.40001
1.40001
1.40001
1.40001
1.40001
1.40001
1.40001
1.40001
1.40001
1.40001
1.40001
1.40001
1.40001
1.40001
1.40001
1.40001
1.40001
1.40001
1.40001
1.40001
1.40001
1.40001
1.40001
1.40001
1.40001
1.40001
1.40001
1.40001
1.40001
1.40001
1.40001
1.40001
1.40001
1.40001
1.40001
1.40001
1.40001
1.40001
1.40001
1.40001
1.40001
1.40001
1.40005
2.95517
5.27369
5.45835
5.46367
5.46791
5.47083
5.474
5.48175
5.49401
5.51067
5.5312
5.55152
5.57044
5.5833
5.59139
5.5978
5.60444
5.61025
5.62137
5.63499
5.6497
5.66357
5.67295
5.67493
5.67005
5.66602
5.66792
5.67281
5.67485
5.66859
5.65149
5.62939
5.61245
5.60547
5.60571
5.60671
5.59679
5.55991
5.48526
5.38758
5.3117
5.28717
1.40001
1.40001
1.40001
1.40001
1.40001
1.40001
1.40001
1.40001
1.40001
1.40001
1.40001
1.40001
1.40001
1.40001
1.40001
1.40001
1.40001
1.40001
1.40001
1.40001
1.40001
1.40001
1.40001
1.40001
1.40001
1.40001
1.40001
1.40001
1.40001
1.40001
1.40001
1.40001
1.40001
1.40001
1.40001
1.40001
1.40001
1.40001
1.40001
1.40001
1.40001
1.40001
1.40001
1.40001
1.40001
1.40001
1.40001
1.40001
1.40001
1.40001
1.40001
1.40001
1.40001
1.40001
1.92425
4.78464
5.46146
5.44484
5.44788
5.45059
5.45442
5.46171
5.47328
5.48714
5.50526
5.52377
5.54181
5.55391
5.56059
5.56564
5.57144
5.57781
5.58715
5.59712
5.60712
5.61627
5.623
5.62381
5.61832
5.61341
5.61307
5.61439
5.61227
5.60272
5.58537
5.56547
5.54959
5.53996
5.53486
5.52961
5.51513
5.47687
5.40047
5.29747
5.21374
5.18236
1.40001
1.40001
1.40001
1.40001
1.40001
1.40001
1.40001
1.40001
1.40001
1.40001
1.40001
1.40001
1.40001
1.40001
1.40001
1.40001
1.40001
1.40001
1.40001
1.40001
1.40001
1.40001
1.40001
1.40001
1.40001
1.40001
1.40001
1.40001
1.40001
1.40001
1.40001
1.40001
1.40001
1.40001
1.40001
1.40001
1.40001
1.40001
1.40001
1.40001
1.40001
1.40001
1.40001
1.40001
1.40001
1.40001
1.40001
1.40001
1.40001
1.40001
1.40001
1.40001
1.40001
1.40001
1.4176
3.62021
5.40121
5.43925
5.43563
5.43252
5.43082
5.43397
5.44156
5.45191
5.46693
5.48428
5.50141
5.51304
5.51819
5.52044
5.52394
5.52947
5.53769
5.54628
5.5524
5.55734
5.56162
5.56209
5.55772
5.5529
5.55054
5.54723
5.53725
5.52076
5.49979
5.47837
5.4584
5.43919
5.41907
5.3966
5.36842
5.32424
5.25034
5.1472
5.06315
5.03144
1.40001
1.40001
1.40001
1.40001
1.40001
1.40001
1.40001
1.40001
1.40001
1.40001
1.40001
1.40001
1.40001
1.40001
1.40001
1.40001
1.40001
1.40001
1.40001
1.40001
1.40001
1.40001
1.40001
1.40001
1.40001
1.40001
1.40001
1.40001
1.40001
1.40001
1.40001
1.40001
1.40001
1.40001
1.40001
1.40001
1.40001
1.40001
1.40001
1.40001
1.40001
1.40001
1.40001
1.40001
1.40001
1.40001
1.40001
1.40001
1.40001
1.40001
1.40001
1.40001
1.40001
1.40001
1.40003
2.14389
4.91306
5.40926
5.40201
5.40979
5.41564
5.41734
5.41753
5.42244
5.432
5.44621
5.46062
5.4717
5.47669
5.47699
5.47709
5.47894
5.4837
5.48974
5.4922
5.49326
5.4943
5.4933
5.4875
5.47928
5.47066
5.45858
5.43939
5.41612
5.3905
5.36515
5.3402
5.3133
5.28243
5.24726
5.20812
5.16214
5.08341
4.96386
4.81529
4.80451
1.40001
1.40001
1.40001
1.40001
1.40001
1.40001
1.40001
1.40001
1.40001
1.40001
1.40001
1.40001
1.40001
1.40001
1.40001
1.40001
1.40001
1.40001
1.40001
1.40001
1.40001
1.40001
1.40001
1.40001
1.40001
1.40001
1.40001
1.40001
1.40001
1.40001
1.40001
1.40001
1.40001
1.40001
1.40001
1.40001
1.40001
1.40001
1.40001
1.40001
1.40001
1.40001
1.40001
1.40001
1.40001
1.40001
1.40001
1.40001
1.40001
1.40001
1.40001
1.40001
1.40001
1.40001
1.4
1.43319
3.74861
5.34174
5.39022
5.41244
5.42242
5.41463
5.40148
5.39743
5.40225
5.41268
5.42449
5.43469
5.43947
5.43815
5.43455
5.43073
5.4294
5.42894
5.42763
5.42635
5.42523
5.42365
5.417
5.40564
5.39126
5.37208
5.34664
5.31678
5.28405
5.25032
5.21504
5.17401
5.12222
5.05679
4.97309
4.86563
4.69181
4.42246
3.95546
3.05865
1.40001
1.40001
1.40001
1.40001
1.40001
1.40001
1.40001
1.40001
1.40001
1.40001
1.40001
1.40001
1.40001
1.40001
1.40001
1.40001
1.40001
1.40001
1.40001
1.40001
1.40001
1.40001
1.40001
1.40001
1.40001
1.40001
1.40001
1.40001
1.40001
1.40001
1.40001
1.40001
1.40001
1.40001
1.40001
1.40001
1.40001
1.40001
1.40001
1.40001
1.40001
1.40001
1.40001
1.40001
1.40001
1.40001
1.40001
1.40001
1.40001
1.40001
1.40001
1.40001
1.40001
1.40001
1.4
1.40001
2.40015
4.99695
5.37761
5.38972
5.40212
5.39956
5.38639
5.37942
5.38126
5.38731
5.39482
5.40299
5.40729
5.4066
5.40216
5.39551
5.3896
5.3835
5.37767
5.3728
5.36848
5.36399
5.3545
5.33955
5.32013
5.29527
5.26475
5.22859
5.18747
5.14273
5.09419
5.03942
4.96957
4.88095
4.76136
4.61078
4.38994
4.09302
3.53455
2.77485
1.40001
1.40001
1.40001
1.40001
1.40001
1.40001
1.40001
1.40001
1.40001
1.40001
1.40001
1.40001
1.40001
1.40001
1.40001
1.40001
1.40001
1.40001
1.40001
1.40001
1.40001
1.40001
1.40001
1.40001
1.40001
1.40001
1.40001
1.40001
1.40001
1.40001
1.40001
1.40001
1.40001
1.40001
1.40001
1.40001
1.40001
1.40001
1.40001
1.40001
1.40001
1.40001
1.40001
1.40001
1.40001
1.40001
1.40001
1.40001
1.40001
1.40001
1.40001
1.40001
1.40001
1.40001
1.40001
1.4
1.47606
4.06654
5.37088
5.37942
5.38905
5.3952
5.38357
5.36962
5.3644
5.36401
5.36489
5.37019
5.37409
5.37475
5.37053
5.36165
5.35053
5.33776
5.32524
5.31533
5.30747
5.29942
5.28687
5.26877
5.24517
5.21636
5.18255
5.14243
5.09371
5.03679
4.97181
4.90085
4.81694
4.71247
4.57565
4.39654
4.17216
3.83725
3.38876
2.88188
1.40001
1.40001
1.40001
1.40001
1.40001
1.40001
1.40001
1.40001
1.40001
1.40001
1.40001
1.40001
1.40001
1.40001
1.40001
1.40001
1.40001
1.40001
1.40001
1.40001
1.40001
1.40001
1.40001
1.40001
1.40001
1.40001
1.40001
1.40001
1.40001
1.40001
1.40001
1.40001
1.40001
1.40001
1.40001
1.40001
1.40001
1.40001
1.40001
1.40001
1.40001
1.40001
1.40001
1.40001
1.40001
1.40001
1.40001
1.40001
1.40001
1.40001
1.40001
1.40001
1.40001
1.40001
1.40001
1.4
1.40024
2.52886
5.03991
5.34336
5.3502
5.36113
5.35698
5.34645
5.34077
5.33828
5.33571
5.33796
5.34166
5.34308
5.33898
5.32843
5.31267
5.29477
5.2779
5.26323
5.25117
5.23855
5.22151
5.19854
5.16929
5.136
5.09841
5.05537
5.00158
4.93567
4.85745
4.7716
4.67658
4.56421
4.42338
4.24228
4.01238
3.7192
3.38558
3.00576
1.40001
1.40001
1.40001
1.40001
1.40001
1.40001
1.40001
1.40001
1.40001
1.40001
1.40001
1.40001
1.40001
1.40001
1.40001
1.40001
1.40001
1.40001
1.40001
1.40001
1.40001
1.40001
1.40001
1.40001
1.40001
1.40001
1.40001
1.40001
1.40001
1.40001
1.40001
1.40001
1.40001
1.40001
1.40001
1.40001
1.40001
1.40001
1.40001
1.40001
1.40001
1.40001
1.40001
1.40001
1.40001
1.40001
1.40001
1.40001
1.40001
1.40001
1.40001
1.40001
1.40001
1.40001
1.40001
1.40001
1.4
1.48662
4.00937
5.31982
5.33733
5.33782
5.34529
5.34197
5.33221
5.32237
5.31305
5.30719
5.30825
5.309
5.30447
5.29175
5.27091
5.24755
5.22685
5.20758
5.19119
5.17521
5.15559
5.13016
5.09771
5.05983
5.01731
4.97024
4.91326
4.84249
4.75734
4.66142
4.55619
4.43834
4.30163
4.12974
3.92225
3.67685
3.40968
3.12184
1.40001
1.40001
1.40001
1.40001
1.40001
1.40001
1.40001
1.40001
1.40001
1.40001
1.40001
1.40001
1.40001
1.40001
1.40001
1.40001
1.40001
1.40001
1.40001
1.40001
1.40001
1.40001
1.40001
1.40001
1.40001
1.40001
1.40001
1.40001
1.40001
1.40001
1.40001
1.40001
1.40001
1.40001
1.40001
1.40001
1.40001
1.40001
1.40001
1.40001
1.40001
1.40001
1.40001
1.40001
1.40001
1.40001
1.40001
1.40001
1.40001
1.40001
1.40001
1.40001
1.40001
1.40001
1.40001
1.40001
1.40001
1.40032
2.32311
4.9299
5.2938
5.29203
5.30359
5.31251
5.31055
5.30248
5.29286
5.27923
5.27466
5.27319
5.26711
5.25284
5.22923
5.20276
5.17902
5.15642
5.13563
5.11598
5.09361
5.06606
5.03132
4.98973
4.94206
4.88918
4.82813
4.75555
4.67057
4.57302
4.46402
4.34173
4.20855
4.04839
3.87046
3.66722
3.44643
3.21322
1.40001
1.40001
1.40001
1.40001
1.40001
1.40001
1.40001
1.40001
1.40001
1.40001
1.40001
1.40001
1.40001
1.40001
1.40001
1.40001
1.40001
1.40001
1.40001
1.40001
1.40001
1.40001
1.40001
1.40001
1.40001
1.40001
1.40001
1.40001
1.40001
1.40001
1.40001
1.40001
1.40001
1.40001
1.40001
1.40001
1.40001
1.40001
1.40001
1.40001
1.40001
1.40001
1.40001
1.40001
1.40001
1.40001
1.40001
1.40001
1.40001
1.40001
1.40001
1.40001
1.40001
1.40001
1.40001
1.40001
1.40001
1.40001
1.45444
3.57512
5.19884
5.29093
5.28803
5.29489
5.29313
5.28285
5.27235
5.25384
5.23873
5.22987
5.21862
5.20267
5.17906
5.15243
5.12644
5.10221
5.07853
5.05604
5.0319
5.00386
4.96942
4.92697
4.8762
4.8177
4.75147
4.67726
4.5942
4.50032
4.39383
4.27199
4.14145
3.99414
3.83849
3.66532
3.48015
3.28513
1.40001
1.40001
1.40001
1.40001
1.40001
1.40001
1.40001
1.40001
1.40001
1.40001
1.40001
1.40001
1.40001
1.40001
1.40001
1.40001
1.40001
1.40001
1.40001
1.40001
1.40001
1.40001
1.40001
1.40001
1.40001
1.40001
1.40001
1.40001
1.40001
1.40001
1.40001
1.40001
1.40001
1.40001
1.40001
1.40001
1.40001
1.40001
1.40001
1.40001
1.40001
1.40001
1.40001
1.40001
1.40001
1.40001
1.40001
1.40001
1.40001
1.40001
1.40001
1.40001
1.40001
1.40001
1.40001
1.40001
1.40001
1.40001
1.40014
1.83432
4.61645
5.30249
5.28166
5.2856
5.28382
5.27097
5.25653
5.23603
5.21209
5.1931
5.17878
5.16166
5.13943
5.11385
5.08708
5.06046
5.03219
5.00409
4.97477
4.94313
4.90728
4.86467
4.81352
4.7534
4.686
4.61168
4.53137
4.44101
4.33977
4.22507
4.09838
3.96303
3.81986
3.6689
3.50934
3.34442
1.40001
1.40001
1.40001
1.40001
1.40001
1.40001
1.40001
1.40001
1.40001
1.40001
1.40001
1.40001
1.40001
1.40001
1.40001
1.40001
1.40001
1.40001
1.40001
1.40001
1.40001
1.40001
1.40001
1.40001
1.40001
1.40001
1.40001
1.40001
1.40001
1.40001
1.40001
1.40001
1.40001
1.40001
1.40001
1.40001
1.40001
1.40001
1.40001
1.40001
1.40001
1.40001
1.40001
1.40001
1.40001
1.40001
1.40001
1.40001
1.40001
1.40001
1.40001
1.40001
1.40001
1.40001
1.40001
1.40001
1.40001
1.40001
1.40001
1.41038
2.93633
5.08536
5.23621
5.22866
5.23685
5.23567
5.22665
5.2068
5.18343
5.15669
5.13646
5.11885
5.09798
5.07439
5.04916
5.02219
4.99184
4.95913
4.9248
4.88914
4.8507
4.80664
4.75496
4.69577
4.63002
4.55739
4.47995
4.39098
4.29519
4.18895
4.07068
3.94723
3.81419
3.68016
3.5372
3.39475
1.40001
1.40001
1.40001
1.40001
1.40001
1.40001
1.40001
1.40001
1.40001
1.40001
1.40001
1.40001
1.40001
1.40001
1.40001
1.40001
1.40001
1.40001
1.40001
1.40001
1.40001
1.40001
1.40001
1.40001
1.40001
1.40001
1.40001
1.40001
1.40001
1.40001
1.40001
1.40001
1.40001
1.40001
1.40001
1.40001
1.40001
1.40001
1.40001
1.40001
1.40001
1.40001
1.40001
1.40001
1.40001
1.40001
1.40001
1.40001
1.40001
1.40001
1.40001
1.40001
1.40001
1.40001
1.40001
1.40001
1.40001
1.40001
1.40001
1.40002
1.54343
3.82523
5.15508
5.206
5.20758
5.21211
5.20537
5.18942
5.16642
5.13884
5.1124
5.09
5.06803
5.04377
5.01769
4.99081
4.95884
4.92224
4.88278
4.84293
4.80016
4.75231
4.6994
4.64197
4.57951
4.51077
4.43716
4.3507
4.25951
4.15977
4.05173
3.93861
3.81731
3.69806
3.5679
3.44034
1.40001
1.40001
1.40001
1.40001
1.40001
1.40001
1.40001
1.40001
1.40001
1.40001
1.40001
1.40001
1.40001
1.40001
1.40001
1.40001
1.40001
1.40001
1.40001
1.40001
1.40001
1.40001
1.40001
1.40001
1.40001
1.40001
1.40001
1.40001
1.40001
1.40001
1.40001
1.40001
1.40001
1.40001
1.40001
1.40001
1.40001
1.40001
1.40001
1.40001
1.40001
1.40001
1.40001
1.40001
1.40001
1.40001
1.40001
1.40001
1.40001
1.40001
1.40001
1.40001
1.40001
1.40001
1.40001
1.40001
1.40001
1.40001
1.40001
1.40001
1.40104
1.82088
4.54139
5.23542
5.20847
5.19493
5.17584
5.16162
5.14565
5.12407
5.09638
5.06952
5.04441
5.01849
4.98937
4.96013
4.92711
4.88913
4.84763
4.8045
4.75856
4.70869
4.65567
4.59822
4.53699
4.47032
4.39913
4.31629
4.22913
4.13535
4.03711
3.93457
3.82696
3.71701
3.60019
3.48339
1.40001
1.40001
1.40001
1.40001
1.40001
1.40001
1.40001
1.40001
1.40001
1.40001
1.40001
1.40001
1.40001
1.40001
1.40001
1.40001
1.40001
1.40001
1.40001
1.40001
1.40001
1.40001
1.40001
1.40001
1.40001
1.40001
1.40001
1.40001
1.40001
1.40001
1.40001
1.40001
1.40001
1.40001
1.40001
1.40001
1.40001
1.40001
1.40001
1.40001
1.40001
1.40001
1.40001
1.40001
1.40001
1.40001
1.40001
1.40001
1.40001
1.40001
1.40001
1.40001
1.40001
1.40001
1.40001
1.40001
1.40001
1.40001
1.40001
1.40001
1.40001
1.40953
2.61294
4.97691
5.21169
5.17597
5.16123
5.13879
5.12138
5.1027
5.0764
5.04884
5.02214
4.99442
4.9634
4.92984
4.8928
4.85209
4.80987
4.76563
4.71774
4.66867
4.617
4.56097
4.5011
4.43716
4.36659
4.28721
4.20421
4.11666
4.02613
3.93383
3.83852
3.737
3.63331
3.5245
1.40001
1.40001
1.40001
1.40001
1.40001
1.40001
1.40001
1.40001
1.40001
1.40001
1.40001
1.40001
1.40001
1.40001
1.40001
1.40001
1.40001
1.40001
1.40001
1.40001
1.40001
1.40001
1.40001
1.40001
1.40001
1.40001
1.40001
1.40001
1.40001
1.40001
1.40001
1.40001
1.40001
1.40001
1.40001
1.40001
1.40001
1.40001
1.40001
1.40001
1.40001
1.40001
1.40001
1.40001
1.40001
1.40001
1.40001
1.40001
1.40001
1.40001
1.40001
1.40001
1.40001
1.40001
1.40001
1.40001
1.40001
1.40001
1.40001
1.40001
1.40001
1.40002
1.48342
3.39055
5.13495
5.16026
5.12852
5.11545
5.0998
5.08116
5.05668
5.02755
4.99867
4.97014
4.9387
4.90306
4.86355
4.82095
4.77606
4.73046
4.68236
4.63363
4.58387
4.53078
4.47376
4.41092
4.341
4.26457
4.18501
4.10299
4.01838
3.93487
3.84798
3.75559
3.66206
3.5623
1.40001
1.40001
1.40001
1.40001
1.40001
1.40001
1.40001
1.40001
1.40001
1.40001
1.40001
1.40001
1.40001
1.40001
1.40001
1.40001
1.40001
1.40001
1.40001
1.40001
1.40001
1.40001
1.40001
1.40001
1.40001
1.40001
1.40001
1.40001
1.40001
1.40001
1.40001
1.40001
1.40001
1.40001
1.40001
1.40001
1.40001
1.40001
1.40001
1.40001
1.40001
1.40001
1.40001
1.40001
1.40001
1.40001
1.40001
1.40001
1.40001
1.40001
1.40001
1.40001
1.40001
1.40001
1.40001
1.40001
1.40001
1.40001
1.40001
1.40001
1.40001
1.40001
1.40042
1.63917
3.92625
5.11834
5.11158
5.09363
5.07712
5.05793
5.03879
5.01607
4.98673
4.9548
4.92013
4.88192
4.83963
4.79465
4.74814
4.70068
4.65257
4.60271
4.55379
4.50373
4.44997
4.38983
4.32306
4.25001
4.17338
4.09456
4.01362
3.93606
3.85542
3.77162
3.68624
3.59581
1.40001
1.40001
1.40001
1.40001
1.40001
1.40001
1.40001
1.40001
1.40001
1.40001
1.40001
1.40001
1.40001
1.40001
1.40001
1.40001
1.40001
1.40001
1.40001
1.40001
1.40001
1.40001
1.40001
1.40001
1.40001
1.40001
1.40001
1.40001
1.40001
1.40001
1.40001
1.40001
1.40001
1.40001
1.40001
1.40001
1.40001
1.40001
1.40001
1.40001
1.40001
1.40001
1.40001
1.40001
1.40001
1.40001
1.40001
1.40001
1.40001
1.40001
1.40001
1.40001
1.40001
1.40001
1.40001
1.40001
1.40001
1.40001
1.40001
1.40001
1.40001
1.40001
1.40001
1.40295
1.83069
4.2921
5.106
5.08418
5.05268
5.02782
5.01174
4.99729
4.97476
4.94397
4.90875
4.86946
4.82592
4.77918
4.73046
4.68036
4.62948
4.5784
4.52813
4.48018
4.42973
4.37379
4.31122
4.24214
4.16868
4.09213
4.01416
3.93976
3.86356
3.7851
3.70573
3.62277
1.40001
1.40001
1.40001
1.40001
1.40001
1.40001
1.40001
1.40001
1.40001
1.40001
1.40001
1.40001
1.40001
1.40001
1.40001
1.40001
1.40001
1.40001
1.40001
1.40001
1.40001
1.40001
1.40001
1.40001
1.40001
1.40001
1.40001
1.40001
1.40001
1.40001
1.40001
1.40001
1.40001
1.40001
1.40001
1.40001
1.40001
1.40001
1.40001
1.40001
1.40001
1.40001
1.40001
1.40001
1.40001
1.40001
1.40001
1.40001
1.40001
1.40001
1.40001
1.40001
1.40001
1.40001
1.40001
1.40001
1.40001
1.40001
1.40001
1.40001
1.40001
1.40001
1.40001
1.40001
1.40983
2.05173
4.59271
5.11099
5.06545
5.02631
4.99211
4.96904
4.94817
4.9236
4.89431
4.85955
4.81905
4.77385
4.72496
4.67284
4.61859
4.56445
4.5118
4.46182
4.41249
4.35977
4.30091
4.23609
4.16631
4.09262
4.01861
3.9466
3.87332
3.798
3.72354
3.64574
1.40001
1.40001
1.40001
1.40001
1.40001
1.40001
1.40001
1.40001
1.40001
1.40001
1.40001
1.40001
1.40001
1.40001
1.40001
1.40001
1.40001
1.40001
1.40001
1.40001
1.40001
1.40001
1.40001
1.40001
1.40001
1.40001
1.40001
1.40001
1.40001
1.40001
1.40001
1.40001
1.40001
1.40001
1.40001
1.40001
1.40001
1.40001
1.40001
1.40001
1.40001
1.40001
1.40001
1.40001
1.40001
1.40001
1.40001
1.40001
1.40001
1.40001
1.40001
1.40001
1.40001
1.40001
1.40001
1.40001
1.40001
1.40001
1.40001
1.40001
1.40001
1.40001
1.40001
1.40001
1.40003
1.42288
2.37915
4.74158
5.08952
5.04087
5.00146
4.96096
4.92818
4.89924
4.87238
4.84402
4.81033
4.77057
4.72523
4.67435
4.61943
4.56295
4.5071
4.45339
4.40228
4.34943
4.29209
4.23063
4.16444
4.09499
4.0264
3.95775
3.88719
3.81402
3.74253
3.66749
1.40001
1.40001
1.40001
1.40001
1.40001
1.40001
1.40001
1.40001
1.40001
1.40001
1.40001
1.40001
1.40001
1.40001
1.40001
1.40001
1.40001
1.40001
1.40001
1.40001
1.40001
1.40001
1.40001
1.40001
1.40001
1.40001
1.40001
1.40001
1.40001
1.40001
1.40001
1.40001
1.40001
1.40001
1.40001
1.40001
1.40001
1.40001
1.40001
1.40001
1.40001
1.40001
1.40001
1.40001
1.40001
1.40001
1.40001
1.40001
1.40001
1.40001
1.40001
1.40001
1.40001
1.40001
1.40001
1.40001
1.40001
1.40001
1.40001
1.40001
1.40001
1.40001
1.40001
1.40001
1.40001
1.40008
1.45079
2.64428
4.82061
5.05634
5.0152
4.9739
4.92908
4.89043
4.85613
4.82516
4.79392
4.76016
4.72119
4.67546
4.62379
4.56825
4.51192
4.45693
4.40264
4.34622
4.28741
4.22676
4.16296
4.09875
4.03551
3.97123
3.90343
3.83238
3.76304
3.69032
1.40001
1.40001
1.40001
1.40001
1.40001
1.40001
1.40001
1.40001
1.40001
1.40001
1.40001
1.40001
1.40001
1.40001
1.40001
1.40001
1.40001
1.40001
1.40001
1.40001
1.40001
1.40001
1.40001
1.40001
1.40001
1.40001
1.40001
1.40001
1.40001
1.40001
1.40001
1.40001
1.40001
1.40001
1.40001
1.40001
1.40001
1.40001
1.40001
1.40001
1.40001
1.40001
1.40001
1.40001
1.40001
1.40001
1.40001
1.40001
1.40001
1.40001
1.40001
1.40001
1.40001
1.40001
1.40001
1.40001
1.40001
1.40001
1.40001
1.40001
1.40001
1.40001
1.40001
1.40001
1.40001
1.40001
1.40024
1.48555
2.81654
4.83306
5.02384
4.98987
4.95
4.90257
4.8591
4.81852
4.78116
4.74556
4.70927
4.6694
4.62457
4.57544
4.52281
4.46757
4.41049
4.35109
4.28985
4.228
4.16582
4.10545
4.04581
3.98574
3.92144
3.85304
3.78589
3.71615
1.40001
1.40001
1.40001
1.40001
1.40001
1.40001
1.40001
1.40001
1.40001
1.40001
1.40001
1.40001
1.40001
1.40001
1.40001
1.40001
1.40001
1.40001
1.40001
1.40001
1.40001
1.40001
1.40001
1.40001
1.40001
1.40001
1.40001
1.40001
1.40001
1.40001
1.40001
1.40001
1.40001
1.40001
1.40001
1.40001
1.40001
1.40001
1.40001
1.40001
1.40001
1.40001
1.40001
1.40001
1.40001
1.40001
1.40001
1.40001
1.40001
1.40001
1.40001
1.40001
1.40001
1.40001
1.40001
1.40001
1.40001
1.40001
1.40001
1.40001
1.40001
1.40001
1.40001
1.40001
1.40001
1.40001
1.40001
1.40056
1.51441
2.88699
4.8131
4.99093
4.96105
4.92311
4.87526
4.82774
4.78407
4.7409
4.69971
4.66024
4.61968
4.57661
4.5305
4.47954
4.42363
4.36309
4.30025
4.23774
4.17676
4.11725
4.05854
4.00119
3.94064
3.87525
3.81057
3.7441
1.40001
1.40001
1.40001
1.40001
1.40001
1.40001
1.40001
1.40001
1.40001
1.40001
1.40001
1.40001
1.40001
1.40001
1.40001
1.40001
1.40001
1.40001
1.40001
1.40001
1.40001
1.40001
1.40001
1.40001
1.40001
1.40001
1.40001
1.40001
1.40001
1.40001
1.40001
1.40001
1.40001
1.40001
1.40001
1.40001
1.40001
1.40001
1.40001
1.40001
1.40001
1.40001
1.40001
1.40001
1.40001
1.40001
1.40001
1.40001
1.40001
1.40001
1.40001
1.40001
1.40001
1.40001
1.40001
1.40001
1.40001
1.40001
1.40001
1.40001
1.40001
1.40001
1.40001
1.40001
1.40001
1.40001
1.40001
1.40001
1.40092
1.52926
2.87293
4.77408
4.95356
4.92527
4.89005
4.84551
4.79771
4.74931
4.70268
4.65808
4.61554
4.57448
4.53191
4.48564
4.43407
4.37695
4.31643
4.25508
4.19462
4.13466
4.07491
4.01812
3.96028
3.89816
3.83626
3.77314
1.40001
1.40001
1.40001
1.40001
1.40001
1.40001
1.40001
1.40001
1.40001
1.40001
1.40001
1.40001
1.40001
1.40001
1.40001
1.40001
1.40001
1.40001
1.40001
1.40001
1.40001
1.40001
1.40001
1.40001
1.40001
1.40001
1.40001
1.40001
1.40001
1.40001
1.40001
1.40001
1.40001
1.40001
1.40001
1.40001
1.40001
1.40001
1.40001
1.40001
1.40001
1.40001
1.40001
1.40001
1.40001
1.40001
1.40001
1.40001
1.40001
1.40001
1.40001
1.40001
1.40001
1.40001
1.40001
1.40001
1.40001
1.40001
1.40001
1.40001
1.40001
1.40001
1.40001
1.40001
1.40001
1.40001
1.40001
1.40001
1.40001
1.40115
1.52823
2.78852
4.70914
4.91753
4.89028
4.85736
4.81648
4.76855
4.71794
4.66708
4.61966
4.57584
4.53303
4.48863
4.44045
4.38797
4.33207
4.27414
4.21575
4.15682
4.09699
4.03947
3.98245
3.92299
3.86317
3.80324
1.40001
1.40001
1.40001
1.40001
1.40001
1.40001
1.40001
1.40001
1.40001
1.40001
1.40001
1.40001
1.40001
1.40001
1.40001
1.40001
1.40001
1.40001
1.40001
1.40001
1.40001
1.40001
1.40001
1.40001
1.40001
1.40001
1.40001
1.40001
1.40001
1.40001
1.40001
1.40001
1.40001
1.40001
1.40001
1.40001
1.40001
1.40001
1.40001
1.40001
1.40001