/*--------------------------------*- C++ -*----------------------------------*\
  =========                 |
  \\      /  F ield         | OpenFOAM: The Open Source CFD Toolbox
   \\    /   O peration     | Website:  https://openfoam.org
    \\  /    A nd           | Version:  7
     \\/     M anipulation  |
\*---------------------------------------------------------------------------*/
FoamFile
{
    version     2.0;
    format      ascii;
    class       volScalarField;
    location    "1.2";
    object      T;
}
// * * * * * * * * * * * * * * * * * * * * * * * * * * * * * * * * * * * * * //

dimensions      [0 0 0 1 0 0 0];

internalField   nonuniform List<scalar> 
19968
(
1
1
1
1
1
1
1
1
1
1
1
1
1
1
1
1
1
1
1
1
1
1
1
1
1
1
1
1
1
1
1
1
1
1
1
1
1
1
1
1
1
1
1
1
1
1
1
1
1
1
1
1
1.39305
2.55679
2.72751
2.71959
2.71842
2.72159
2.72965
2.74052
2.75298
2.76528
2.77748
2.78727
2.79416
2.79766
2.79821
2.79685
2.79398
2.79246
2.79464
2.80205
2.81367
2.82603
2.83409
2.83646
2.83578
2.835
2.83562
2.83819
2.84271
2.84795
2.85233
2.85635
2.86025
2.86395
2.86762
2.87079
2.87398
2.87933
2.89096
2.91543
2.9579
3.01061
3.05137
3.06623
1
1
1
1
1
1
1
1
1
1
1
1
1
1
1
1
1
1
1
1
1
1
1
1
1
1
1
1
1
1
1
1
1
1
1
1
1
1
1
1
1
1
1
1
1
1
1
1
1
1
1
1
1.37803
2.54992
2.72527
2.71691
2.71715
2.72173
2.73059
2.74163
2.75385
2.76605
2.77811
2.78778
2.79457
2.7978
2.79798
2.79633
2.79335
2.79194
2.79418
2.80161
2.81329
2.82566
2.8335
2.83576
2.83515
2.83452
2.83543
2.83845
2.84324
2.84835
2.85232
2.85583
2.85932
2.86293
2.86679
2.87037
2.87402
2.87964
2.89121
2.91551
2.95785
3.01045
3.05114
3.06609
1
1
1
1
1
1
1
1
1
1
1
1
1
1
1
1
1
1
1
1
1
1
1
1
1
1
1
1
1
1
1
1
1
1
1
1
1
1
1
1
1
1
1
1
1
1
1
1
1
1
1
1
1.34161
2.52974
2.72
2.71351
2.71572
2.72292
2.73295
2.74419
2.75585
2.76778
2.77922
2.7883
2.79456
2.79721
2.79695
2.79491
2.79199
2.79094
2.79342
2.80112
2.81288
2.82504
2.83236
2.8343
2.83381
2.8335
2.83491
2.83872
2.84402
2.84895
2.85246
2.85517
2.85793
2.86134
2.8654
2.8696
2.87396
2.87998
2.8916
2.91595
2.95838
3.0109
3.05134
3.06632
1
1
1
1
1
1
1
1
1
1
1
1
1
1
1
1
1
1
1
1
1
1
1
1
1
1
1
1
1
1
1
1
1
1
1
1
1
1
1
1
1
1
1
1
1
1
1
1
1
1
1
1
1.28154
2.48946
2.71258
2.71071
2.71585
2.72622
2.73702
2.7481
2.75906
2.7706
2.78094
2.78883
2.79393
2.79539
2.79462
2.79228
2.78971
2.78931
2.79232
2.80065
2.8126
2.82436
2.83084
2.83212
2.83165
2.83168
2.83376
2.83859
2.84452
2.84941
2.85231
2.85411
2.85611
2.85919
2.86351
2.86847
2.87365
2.88011
2.89179
2.9163
2.95897
3.01155
3.05181
3.0669
1
1
1
1
1
1
1
1
1
1
1
1
1
1
1
1
1
1
1
1
1
1
1
1
1
1
1
1
1
1
1
1
1
1
1
1
1
1
1
1
1
1
1
1
1
1
1
1
1
1
1
1
1.16422
2.41115
2.70611
2.71145
2.71971
2.73149
2.74205
2.75247
2.76253
2.7731
2.78199
2.78854
2.79195
2.79216
2.79098
2.7885
2.78655
2.78695
2.79112
2.80038
2.81252
2.82361
2.82896
2.8293
2.82866
2.82888
2.83168
2.83754
2.84431
2.84936
2.8517
2.85277
2.85408
2.85673
2.86121
2.86674
2.87265
2.87961
2.89141
2.91617
2.95919
3.01202
3.05242
3.06775
1
1
1
1
1
1
1
1
1
1
1
1
1
1
1
1
1
1
1
1
1
1
1
1
1
1
1
1
1
1
1
1
1
1
1
1
1
1
1
1
1
1
1
1
1
1
1
1
1
1
1
1
1.00744
2.31393
2.71086
2.71564
2.72271
2.73288
2.74425
2.75556
2.76583
2.77494
2.78194
2.78635
2.78785
2.78739
2.78581
2.78349
2.78245
2.78394
2.78983
2.80016
2.81245
2.82266
2.82678
2.82621
2.82505
2.82529
2.82856
2.83529
2.84287
2.84835
2.85054
2.85111
2.85196
2.85418
2.85847
2.86424
2.87056
2.87794
2.88998
2.91514
2.9587
3.01201
3.05279
3.0684
1
1
1
1
1
1
1
1
1
1
1
1
1
1
1
1
1
1
1
1
1
1
1
1
1
1
1
1
1
1
1
1
1
1
1
1
1
1
1
1
1
1
1
1
1
1
1
1
1
1
1
1
1.00002
2.21531
2.71279
2.71539
2.72227
2.7333
2.74575
2.75743
2.76717
2.77462
2.77955
2.78184
2.78186
2.78104
2.77925
2.77764
2.77778
2.78076
2.78855
2.79994
2.81201
2.82107
2.82386
2.82264
2.82093
2.82105
2.8245
2.83178
2.83995
2.84605
2.84863
2.84888
2.84953
2.8513
2.85508
2.8607
2.86708
2.87473
2.88709
2.9128
2.95719
3.01138
3.05277
3.06867
1
1
1
1
1
1
1
1
1
1
1
1
1
1
1
1
1
1
1
1
1
1
1
1
1
1
1
1
1
1
1
1
1
1
1
1
1
1
1
1
1
1
1
1
1
1
1
1
1
1
1
1
1
2.09096
2.71458
2.71398
2.7197
2.73118
2.7442
2.75592
2.76491
2.77088
2.7738
2.77464
2.7742
2.77313
2.77172
2.77142
2.77297
2.77793
2.78737
2.7994
2.81066
2.81819
2.81975
2.8183
2.81634
2.8163
2.8197
2.82723
2.83582
2.84245
2.84566
2.84601
2.84644
2.84785
2.85099
2.85591
2.86221
2.87002
2.88271
2.90895
2.9542
3.00945
3.05171
3.06796
1
1
1
1
1
1
1
1
1
1
1
1
1
1
1
1
1
1
1
1
1
1
1
1
1
1
1
1
1
1
1
1
1
1
1
1
1
1
1
1
1
1
1
1
1
1
1
1
1
1
1
1
1
1.92585
2.70192
2.71059
2.71623
2.72606
2.73823
2.75005
2.75904
2.76443
2.76628
2.76651
2.76561
2.76463
2.76418
2.76516
2.76864
2.77579
2.78642
2.79817
2.80791
2.81359
2.81426
2.81297
2.8111
2.81097
2.81416
2.82157
2.83038
2.83726
2.84111
2.84206
2.84205
2.84311
2.84558
2.84972
2.8559
2.86382
2.8769
2.90346
2.94941
3.00579
3.04907
3.06583
1
1
1
1
1
1
1
1
1
1
1
1
1
1
1
1
1
1
1
1
1
1
1
1
1
1
1
1
1
1
1
1
1
1
1
1
1
1
1
1
1
1
1
1
1
1
1
1
1
1
1
1
1
1.6947
2.64812
2.70732
2.70908
2.71646
2.72796
2.7407
2.75079
2.75654
2.75797
2.7579
2.75738
2.75677
2.75699
2.75923
2.76494
2.77428
2.78566
2.79625
2.80371
2.80732
2.80727
2.80619
2.80479
2.80497
2.80804
2.81515
2.82392
2.83085
2.83525
2.83684
2.83643
2.83709
2.83902
2.84259
2.84831
2.85625
2.86941
2.89579
2.94199
2.99936
3.04371
3.06103
1
1
1
1
1
1
1
1
1
1
1
1
1
1
1
1
1
1
1
1
1
1
1
1
1
1
1
1
1
1
1
1
1
1
1
1
1
1
1
1
1
1
1
1
1
1
1
1
1
1
1
1
1
1.35677
2.51509
2.7055
2.70357
2.71006
2.72128
2.7349
2.74573
2.75124
2.75188
2.75136
2.7502
2.74943
2.75007
2.75339
2.76078
2.77159
2.78326
2.79233
2.79766
2.79945
2.79904
2.79839
2.7978
2.79859
2.8018
2.80836
2.81668
2.82324
2.82748
2.82913
2.82852
2.82867
2.83013
2.83339
2.83879
2.84671
2.85964
2.88539
2.93146
2.98983
3.0356
3.05367
1
1
1
1
1
1
1
1
1
1
1
1
1
1
1
1
1
1
1
1
1
1
1
1
1
1
1
1
1
1
1
1
1
1
1
1
1
1
1
1
1
1
1
1
1
1
1
1
1
1
1
1
1
1.01233
2.28086
2.70766
2.704
2.70696
2.71625
2.7286
2.73861
2.74328
2.74332
2.74234
2.7412
2.74091
2.74225
2.74692
2.75571
2.76718
2.7785
2.78595
2.78948
2.78977
2.7896
2.78938
2.78971
2.79141
2.79513
2.80132
2.80862
2.81442
2.81794
2.81924
2.81859
2.8184
2.81975
2.82311
2.82832
2.83564
2.84741
2.87154
2.91638
2.97509
3.02228
3.04107
1
1
1
1
1
1
1
1
1
1
1
1
1
1
1
1
1
1
1
1
1
1
1
1
1
1
1
1
1
1
1
1
1
1
1
1
1
1
1
1
1
1
1
1
1
1
1
1
1
1
1
1
1
1.00002
1.94557
2.67395
2.69202
2.70053
2.71101
2.72296
2.73276
2.7372
2.73688
2.73515
2.73342
2.73293
2.73428
2.73916
2.74823
2.75967
2.77051
2.77715
2.77973
2.77954
2.77907
2.779
2.77977
2.78215
2.78631
2.79221
2.79831
2.80301
2.80551
2.80602
2.80526
2.80484
2.80606
2.80932
2.81395
2.82005
2.8302
2.85222
2.89524
2.95411
3.00302
3.0227
1
1
1
1
1
1
1
1
1
1
1
1
1
1
1
1
1
1
1
1
1
1
1
1
1
1
1
1
1
1
1
1
1
1
1
1
1
1
1
1
1
1
1
1
1
1
1
1
1
1
1
1
1
1
1.4091
2.51208
2.67922
2.68716
2.69884
2.71217
2.72406
2.73029
2.73047
2.72885
2.72677
2.72602
2.72712
2.73148
2.73986
2.7504
2.76019
2.76587
2.76741
2.76683
2.76602
2.76596
2.767
2.77001
2.77468
2.78044
2.78566
2.7891
2.79035
2.79008
2.78932
2.78918
2.79066
2.79376
2.79752
2.80194
2.80962
2.82807
2.86676
2.9226
2.97043
2.98906
1
1
1
1
1
1
1
1
1
1
1
1
1
1
1
1
1
1
1
1
1
1
1
1
1
1
1
1
1
1
1
1
1
1
1
1
1
1
1
1
1
1
1
1
1
1
1
1
1
1
1
1
1
1
1.0118
2.1758
2.68596
2.68157
2.68535
2.6962
2.70892
2.71795
2.72013
2.71894
2.71691
2.71587
2.71662
2.71999
2.72685
2.73572
2.74434
2.74987
2.7516
2.75125
2.75057
2.75056
2.75175
2.75509
2.76021
2.76601
2.7706
2.77263
2.7723
2.77069
2.76886
2.76824
2.76885
2.77012
2.77105
2.77171
2.77435
2.78605
2.81796
2.87076
2.92234
2.9445
1
1
1
1
1
1
1
1
1
1
1
1
1
1
1
1
1
1
1
1
1
1
1
1
1
1
1
1
1
1
1
1
1
1
1
1
1
1
1
1
1
1
1
1
1
1
1
1
1
1
1
1
1
1
1.00002
1.53174
2.53306
2.6586
2.66556
2.67569
2.68772
2.69921
2.70563
2.70619
2.70508
2.70384
2.70403
2.70604
2.71098
2.71806
2.72568
2.73176
2.73439
2.7344
2.73402
2.73392
2.73493
2.73784
2.74237
2.74745
2.75069
2.75096
2.74929
2.74607
2.74285
2.74109
2.74062
2.7402
2.73886
2.7367
2.73562
2.74122
2.76363
2.81326
2.867
2.91542
1
1
1
1
1
1
1
1
1
1
1
1
1
1
1
1
1
1
1
1
1
1
1
1
1
1
1
1
1
1
1
1
1
1
1
1
1
1
1
1
1
1
1
1
1
1
1
1
1
1
1
1
1
1
1
1.02267
2.21688
2.66939
2.66036
2.66087
2.66828
2.67929
2.6886
2.69252
2.69242
2.69148
2.69103
2.69213
2.69527
2.70056
2.70743
2.71362
2.71704
2.71748
2.71708
2.71697
2.71775
2.72028
2.72412
2.72821
2.73043
2.7298
2.72704
2.72254
2.71766
2.7137
2.71068
2.70714
2.70134
2.69224
2.67945
2.66559
2.65288
2.64655
2.62616
2.53205
1
1
1
1
1
1
1
1
1
1
1
1
1
1
1
1
1
1
1
1
1
1
1
1
1
1
1
1
1
1
1
1
1
1
1
1
1
1
1
1
1
1
1
1
1
1
1
1
1
1
1
1
1
1
1
1.00003
1.66674
2.56773
2.64191
2.64327
2.65053
2.66152
2.6719
2.67903
2.68069
2.68016
2.67918
2.67959
2.68115
2.685
2.69125
2.69811
2.70278
2.70394
2.70348
2.70296
2.70314
2.70465
2.7074
2.71024
2.7114
2.71026
2.70683
2.70129
2.6946
2.68789
2.68155
2.67478
2.66499
2.65064
2.62888
2.60115
2.56483
2.52647
2.44302
2.30847
1
1
1
1
1
1
1
1
1
1
1
1
1
1
1
1
1
1
1
1
1
1
1
1
1
1
1
1
1
1
1
1
1
1
1
1
1
1
1
1
1
1
1
1
1
1
1
1
1
1
1
1
1
1
1
1
1.04877
2.29286
2.64924
2.64145
2.64141
2.64732
2.65652
2.66526
2.66912
2.66878
2.66721
2.66648
2.66695
2.66961
2.67487
2.68186
2.68754
2.6894
2.68872
2.68754
2.68693
2.68747
2.68896
2.69051
2.69063
2.6893
2.68572
2.67978
2.67155
2.6619
2.65146
2.64068
2.6275
2.60946
2.58331
2.54674
2.50091
2.43225
2.34034
2.23263
1
1
1
1
1
1
1
1
1
1
1
1
1
1
1
1
1
1
1
1
1
1
1
1
1
1
1
1
1
1
1
1
1
1
1
1
1
1
1
1
1
1
1
1
1
1
1
1
1
1
1
1
1
1
1
1
1.00015
1.71575
2.55362
2.62195
2.6242
2.63089
2.64009
2.64954
2.65592
2.65664
2.65536
2.65373
2.65386
2.6554
2.65914
2.66517
2.67127
2.67428
2.67388
2.67245
2.67101
2.67028
2.67011
2.66995
2.66901
2.66692
2.66307
2.65704
2.64799
2.63626
2.62248
2.60781
2.59163
2.57145
2.54405
2.50601
2.45508
2.38688
2.30277
2.21189
1
1
1
1
1
1
1
1
1
1
1
1
1
1
1
1
1
1
1
1
1
1
1
1
1
1
1
1
1
1
1
1
1
1
1
1
1
1
1
1
1
1
1
1
1
1
1
1
1
1
1
1
1
1
1
1
1
1.05587
2.26429
2.62805
2.62371
2.62471
2.63026
2.63768
2.64367
2.64569
2.64441
2.64196
2.64089
2.64171
2.644
2.64824
2.65342
2.65697
2.65707
2.65582
2.65382
2.65197
2.65041
2.64897
2.64703
2.64416
2.6398
2.63351
2.62424
2.61157
2.59595
2.57845
2.5593
2.53732
2.51047
2.47415
2.42734
2.36864
2.30284
2.22637
1
1
1
1
1
1
1
1
1
1
1
1
1
1
1
1
1
1
1
1
1
1
1
1
1
1
1
1
1
1
1
1
1
1
1
1
1
1
1
1
1
1
1
1
1
1
1
1
1
1
1
1
1
1
1
1
1
1.00019
1.59912
2.49941
2.60349
2.60835
2.61421
2.62101
2.62777
2.63184
2.63232
2.63017
2.62835
2.6286
2.6296
2.63193
2.63538
2.63885
2.63997
2.63899
2.63675
2.63395
2.63095
2.62808
2.62502
2.6213
2.61629
2.60948
2.6
2.58729
2.57161
2.55328
2.53264
2.50902
2.48254
2.44872
2.40893
2.36058
2.30582
2.24442
1
1
1
1
1
1
1
1
1
1
1
1
1
1
1
1
1
1
1
1
1
1
1
1
1
1
1
1
1
1
1
1
1
1
1
1
1
1
1
1
1
1
1
1
1
1
1
1
1
1
1
1
1
1
1
1
1
1
1.03412
2.1312
2.60227
2.59961
2.59941
2.60371
2.60978
2.61512
2.61893
2.61739
2.61527
2.61406
2.61365
2.61442
2.61606
2.6187
2.62047
2.62004
2.61826
2.61523
2.61131
2.60727
2.6033
2.59895
2.59345
2.5861
2.57628
2.5638
2.54872
2.53097
2.5104
2.48632
2.46001
2.42902
2.39481
2.35428
2.30891
2.25894
1
1
1
1
1
1
1
1
1
1
1
1
1
1
1
1
1
1
1
1
1
1
1
1
1
1
1
1
1
1
1
1
1
1
1
1
1
1
1
1
1
1
1
1
1
1
1
1
1
1
1
1
1
1
1
1
1
1
1.00008
1.31297
2.40444
2.58849
2.5834
2.58523
2.58956
2.5958
2.60319
2.60511
2.60388
2.60177
2.59998
2.5991
2.5993
2.60038
2.60187
2.60175
2.60038
2.59733
2.59256
2.587
2.58159
2.57629
2.57039
2.56297
2.55358
2.54181
2.52782
2.51094
2.49129
2.46844
2.44263
2.41432
2.38328
2.3489
2.31075
2.26965
1
1
1
1
1
1
1
1
1
1
1
1
1
1
1
1
1
1
1
1
1
1
1
1
1
1
1
1
1
1
1
1
1
1
1
1
1
1
1
1
1
1
1
1
1
1
1
1
1
1
1
1
1
1
1
1
1
1
1
1.00653
1.87601
2.53319
2.55999
2.55878
2.56314
2.57182
2.58331
2.5908
2.59113
2.58911
2.586
2.58319
2.58146
2.58138
2.58205
2.5826
2.58185
2.5795
2.57496
2.56872
2.56187
2.55503
2.54807
2.54051
2.53175
2.52102
2.50834
2.4922
2.47383
2.45269
2.42852
2.40284
2.37409
2.3444
2.31109
2.27677
1
1
1
1
1
1
1
1
1
1
1
1
1
1
1
1
1
1
1
1
1
1
1
1
1
1
1
1
1
1
1
1
1
1
1
1
1
1
1
1
1
1
1
1
1
1
1
1
1
1
1
1
1
1
1
1
1
1
1
1.00001
1.09688
2.17908
2.54168
2.54935
2.55339
2.56052
2.56999
2.57872
2.58062
2.57864
2.57441
2.56947
2.56521
2.56287
2.56272
2.56334
2.56306
2.56164
2.55807
2.55223
2.54443
2.53567
2.52704
2.51882
2.5104
2.50078
2.48961
2.47472
2.4578
2.43822
2.41623
2.39274
2.3668
2.34088
2.31127
2.28145
1
1
1
1
1
1
1
1
1
1
1
1
1
1
1
1
1
1
1
1
1
1
1
1
1
1
1
1
1
1
1
1
1
1
1
1
1
1
1
1
1
1
1
1
1
1
1
1
1
1
1
1
1
1
1
1
1
1
1
1
1.00058
1.29571
2.32486
2.5291
2.53589
2.54434
2.55327
2.56269
2.56763
2.56641
2.56223
2.55636
2.55041
2.54578
2.54356
2.54369
2.54383
2.54326
2.54119
2.53669
2.52924
2.51964
2.5096
2.49984
2.49065
2.48116
2.47089
2.45755
2.44228
2.42453
2.40491
2.38364
2.36083
2.33707
2.31102
2.28442
1
1
1
1
1
1
1
1
1
1
1
1
1
1
1
1
1
1
1
1
1
1
1
1
1
1
1
1
1
1
1
1
1
1
1
1
1
1
1
1
1
1
1
1
1
1
1
1
1
1
1
1
1
1
1
1
1
1
1
1
1
1.00577
1.70414
2.43386
2.51803
2.51949
2.52902
2.53935
2.54738
2.54896
2.54637
2.54153
2.53579
2.53023
2.52608
2.52433
2.52401
2.52356
2.52257
2.51973
2.51352
2.50452
2.49398
2.48303
2.47265
2.46286
2.45262
2.4406
2.42717
2.41168
2.39436
2.37562
2.35554
2.3335
2.31055
2.28598
1
1
1
1
1
1
1
1
1
1
1
1
1
1
1
1
1
1
1
1
1
1
1
1
1
1
1
1
1
1
1
1
1
1
1
1
1
1
1
1
1
1
1
1
1
1
1
1
1
1
1
1
1
1
1
1
1
1
1
1
1
1.00001
1.05337
2.0069
2.49461
2.51247
2.50935
2.51433
2.52166
2.52701
2.52693
2.5243
2.51974
2.51482
2.51029
2.50705
2.50558
2.50489
2.50393
2.50188
2.49713
2.48932
2.47931
2.46809
2.45693
2.44617
2.43551
2.42436
2.4125
2.3993
2.38428
2.36815
2.35012
2.32994
2.30906
2.28628
1
1
1
1
1
1
1
1
1
1
1
1
1
1
1
1
1
1
1
1
1
1
1
1
1
1
1
1
1
1
1
1
1
1
1
1
1
1
1
1
1
1
1
1
1
1
1
1
1
1
1
1
1
1
1
1
1
1
1
1
1
1
1.00021
1.16499
2.15936
2.49306
2.49479
2.49543
2.49962
2.50502
2.50821
2.5074
2.50449
2.50027
2.49557
2.49138
2.48845
2.48679
2.48549
2.48352
2.47974
2.47303
2.46404
2.45347
2.44222
2.43097
2.42017
2.40954
2.39879
2.38725
2.37413
2.36026
2.34423
2.32613
2.30679
2.2858
1
1
1
1
1
1
1
1
1
1
1
1
1
1
1
1
1
1
1
1
1
1
1
1
1
1
1
1
1
1
1
1
1
1
1
1
1
1
1
1
1
1
1
1
1
1
1
1
1
1
1
1
1
1
1
1
1
1
1
1
1
1
1
1.00169
1.29143
2.24119
2.46091
2.47629
2.48099
2.48469
2.48825
2.49046
2.48947
2.48618
2.48144
2.47665
2.47268
2.46986
2.46769
2.46519
2.46146
2.45571
2.44778
2.43853
2.42815
2.41731
2.40669
2.39639
2.38627
2.37566
2.36398
2.35194
2.33786
2.32154
2.30363
2.28406
1
1
1
1
1
1
1
1
1
1
1
1
1
1
1
1
1
1
1
1
1
1
1
1
1
1
1
1
1
1
1
1
1
1
1
1
1
1
1
1
1
1
1
1
1
1
1
1
1
1
1
1
1
1
1
1
1
1
1
1
1
1
1
1
1.00575
1.4192
2.28008
2.44606
2.45562
2.46259
2.46762
2.47124
2.4718
2.47035
2.46671
2.46213
2.45783
2.45422
2.45106
2.44759
2.44325
2.43774
2.43084
2.42285
2.41399
2.40434
2.39428
2.38433
2.3745
2.36431
2.35391
2.34305
2.33047
2.31566
2.29943
2.28125
1
1
1
1
1
1
1
1
1
1
1
1
1
1
1
1
1
1
1
1
1
1
1
1
1
1
1
1
1
1
1
1
1
1
1
1
1
1
1
1
1
1
1
1
1
1
1
1
1
1
1
1
1
1
1
1
1
1
1
1
1
1
1
1
1.00001
1.01358
1.57812
2.31877
2.43042
2.43525
2.4439
2.44913
2.45146
2.45129
2.44978
2.44693
2.44335
2.43959
2.43567
2.43119
2.4259
2.41993
2.41346
2.40659
2.39944
2.39136
2.38233
2.37295
2.3632
2.35328
2.34367
2.33362
2.32212
2.30861
2.294
2.2773
1
1
1
1
1
1
1
1
1
1
1
1
1
1
1
1
1
1
1
1
1
1
1
1
1
1
1
1
1
1
1
1
1
1
1
1
1
1
1
1
1
1
1
1
1
1
1
1
1
1
1
1
1
1
1
1
1
1
1
1
1
1
1
1
1
1.00003
1.03138
1.69071
2.33971
2.41767
2.41831
2.42334
2.42723
2.42972
2.43004
2.42941
2.42759
2.42463
2.42055
2.41546
2.40943
2.403
2.3967
2.3907
2.38454
2.37767
2.3699
2.36139
2.35197
2.34252
2.33328
2.32362
2.31267
2.30015
2.28698
2.27199
1
1
1
1
1
1
1
1
1
1
1
1
1
1
1
1
1
1
1
1
1
1
1
1
1
1
1
1
1
1
1
1
1
1
1
1
1
1
1
1
1
1
1
1
1
1
1
1
1
1
1
1
1
1
1
1
1
1
1
1
1
1
1
1
1
1
1.0001
1.05395
1.75438
2.34365
2.40451
2.4019
2.40375
2.40647
2.40921
2.40984
2.40953
2.40794
2.40459
2.39955
2.39347
2.38686
2.38051
2.3747
2.36923
2.36334
2.35665
2.34914
2.34084
2.33216
2.32307
2.31355
2.30281
2.29081
2.27865
2.26536
1
1
1
1
1
1
1
1
1
1
1
1
1
1
1
1
1
1
1
1
1
1
1
1
1
1
1
1
1
1
1
1
1
1
1
1
1
1
1
1
1
1
1
1
1
1
1
1
1
1
1
1
1
1
1
1
1
1
1
1
1
1
1
1
1
1
1
1.00026
1.07292
1.77505
2.33302
2.38928
2.38607
2.3864
2.38769
2.38957
2.38997
2.38916
2.38691
2.38301
2.37752
2.37131
2.365
2.35904
2.35357
2.34813
2.3424
2.3362
2.32929
2.32145
2.31266
2.30335
2.29285
2.28105
2.26941
2.25741
1
1
1
1
1
1
1
1
1
1
1
1
1
1
1
1
1
1
1
1
1
1
1
1
1
1
1
1
1
1
1
1
1
1
1
1
1
1
1
1
1
1
1
1
1
1
1
1
1
1
1
1
1
1
1
1
1
1
1
1
1
1
1
1
1
1
1
1
1.00043
1.08222
1.76197
2.31351
2.37256
2.36972
2.36948
2.36965
2.36971
2.36937
2.36803
2.36529
2.36115
2.35592
2.35002
2.34397
2.33821
2.33275
2.3275
2.32218
2.31641
2.30958
2.30138
2.29251
2.28251
2.27112
2.25986
2.24867
1
1
1
1
1
1
1
1
1
1
1
1
1
1
1
1
1
1
1
1
1
1
1
1
1
1
1
1
1
1
1
1
1
1
1
1
1
1
1
1
1
1
1
1
1
1
1
1
1
1
1
1
1
1
1
1
1
1
1
1
1
1
1
1
1
1
1
1
1
1.00054
1.08068
1.72351
2.28723
2.35532
2.35301
2.35153
2.3505
2.34991
2.34911
2.34722
2.3442
2.34021
2.33529
2.32973
2.32395
2.31833
2.31304
2.30792
2.30271
2.29675
2.28945
2.28125
2.27197
2.2614
2.25054
2.23991
1
1
1
1
1
1
1
1
1
1
1
1
1
1
1
1
1
1
1
1
1
1
1
1
1
1
1
1
1
1
1
1
1
1
1
1
1
1
1
1
1
1
1
1
1
1
1
1
1
1
1
1
1
1
1
1
1
1
1
1
1
1
1
1
1
1
1
1
1
1
1.00054
1.07047
1.66174
2.25889
2.33508
2.33258
2.33157
2.33136
2.33044
2.32895
2.32667
2.3238
2.32028
2.31585
2.31061
2.30507
2.29959
2.29425
2.28896
2.28335
2.2768
2.26933
2.26103
2.2515
2.24154
2.23157
1
1
1
1
1
1
1
1
1
1
1
1
1
1
1
1
1
1
1
1
1
1
1
1
1
1
1
1
1
1
1
1
1
1
1
1
1
1
1
1
1
1
1
1
1
1
1
1
1
1
1
1
1
1
1
1
1
1
1
1
1
1
1
1
1
1
1
1
1
1
1
1.00044
1.05409
1.60752
2.21434
2.31283
2.31532
2.31349
2.31251
2.31076
2.30872
2.3066
2.30416
2.30104
2.29702
2.29221
2.28691
2.28136
2.27573
2.2701
2.26404
2.25733
2.24997
2.24152
2.23251
2.22318
1
1
1
1
1
1
1
1
1
1
1
1
1
1
1
1
1
1
1
1
1
1
1
1
1
1
1
1
1
1
1
1
1
1
1
1
1
1
1
1
1
1
1
1
1
1
1
1
1
1
1
1
1
1
1
1
1
1
1
1
1
1
1
1
1
1
1
1
1
1
1
1
1.00029
1.04172
1.53406
2.1541
2.28256
2.30124
2.29658
2.2944
2.29222
2.28998
2.28782
2.28537
2.28231
2.27851
2.27398
2.26884
2.26318
2.25745
2.25163
2.24543
2.23872
2.23124
2.22302
2.21436
1
1
1
1
1
1
1
1
1
1
1
1
1
1
1
1
1
1
1
1
1
1
1
1
1
1
1
1
1
1
1
1
1
1
1
1
1
1
1
1
1
1
1
1
1
1
1
1
1
1
1
1
1
1
1
1
1
1
1
1
1
1
1
1
1
1
1
1
1
1
1
1
1
1.0002
1.0286
1.44331
2.05433
2.25597
2.28563
2.2791
2.27662
2.2743
2.27184
2.26936
2.26674
2.26363
2.25976
2.25518
2.25001
2.24459
2.23921
2.23364
2.22754
2.22097
2.21329
2.20492
1
1
1
1
1
1
1
1
1
1
1
1
1
1
1
1
1
1
1
1
1
1
1
1
1
1
1
1
1
1
1
1
1
1
1
1
1
1
1
1
1
1
1
1
1
1
1
1
1
1
1
1
1
1
1
1
1
1
1
1
1
1
1
1
1
1
1
1
1
1
1
1
1
1
1.00011
1.01707
1.3291
1.92078
2.22233
2.26663
2.2622
2.25863
2.25554
2.25261
2.2498
2.24683
2.24339
2.23942
2.23499
2.23033
2.22573
2.22083
2.21554
2.20995
2.2031
2.19549
1
1
1
1
1
1
1
1
1
1
1
1
1
1
1
1
1
1
1
1
1
1
1
1
1
1
1
1
1
1
1
1
1
1
1
1
1
1
1
1
1
1
1
1
1
1
1
1
1
1
1
1
1
1
1
1
1
1
1
1
1
1
1
1
1
1
1
1
1
1
1
1
1
1
1
1.00005
1.00848
1.20793
1.77797
2.1773
2.2434
2.24241
2.23662
2.23476
2.2326
2.22976
2.22647
2.22279
2.21888
2.21492
2.21076
2.20661
2.20227
2.19771
2.19263
2.18605
1
1
1
1
1
1
1
1
1
1
1
1
1
1
1
1
1
1
1
1
1
1
1
1
1
1
1
1
1
1
1
1
1
1
1
1
1
1
1
1
1
1
1
1
1
1
1
1
1
1
1
1
1
1
1
1
1
1
1
1
1
1
1
1
1
1
1
1
1
1
1
1
1
1
1
1
1.00002
1.00334
1.11682
1.6322
2.1124
2.20786
2.22669
2.22044
2.21761
2.21459
2.21123
2.20743
2.20372
2.19981
2.19579
2.19212
2.18834
2.18457
2.18066
2.17575
1
1
1
1
1
1
1
1
1
1
1
1
1
1
1
1
1
1
1
1
1
1
1
1
1
1
1
1
1
1
1
1
1
1
1
1
1
1
1
1
1
1
1
1
1
1
1
1
1
1
1
1
1
1
1
1
1
1
1
1
1
1
1
1
1
1
1
1
1
1
1
1
1
1
1
1
1
1
1.00119
1.05742
1.48146
1.99579
2.17725
2.20997
2.20599
2.20103
2.19758
2.19417
2.1904
2.18612
2.18205
2.17845
2.17477
2.17162
2.1684
2.16438
1
1
1
1
1
1
1
1
1
1
1
1
1
1
1
1
1
1
1
1
1
1
1
1
1
1
1
1
1
1
1
1
1
1
1
1
1
1
1
1
1
1
1
1
1
1
1
1
1
1
1
1
1
1
1
1
1
1
1
1
1
1
1
1
1
1
1
1
1
1
1
1
1
1
1
1
1
1
1
1.00036
1.02417
1.31769
1.83343
2.1337
2.18907
2.19097
2.18523
2.18213
2.17839
2.174
2.16985
2.16573
2.16227
2.15919
2.15529
2.152
1
1
1
1
1
1
1
1
1
1
1
1
1
1
1
1
1
1
1
1
1
1
1
1
1
1
1
1
1
1
1
1
1
1
1
1
1
1
1
1
1
1
1
1
1
1
1
1
1
1
1
1
1
1
1
1
1
1
1
1
1
1
1
1
1
1
1
1
1
1
1
1
1
1
1
1
1
1
1
1
1.00009
1.00852
1.16828
1.6425
2.06611
2.15572
2.1747
2.17055
2.16438
2.15955
2.15648
2.15342
2.15024
2.14642
2.14248
2.1392
1
1
1
1
1
1
1
1
1
1
1
1
1
1
1
1
1
1
1
1
1
1
1
1
1
1
1
1
1
1
1
1
1
1
1
1
1
1
1
1
1
1
1
1
1
1
1
1
1
1
1
1
1
1
1
1
1
1
1
1
1
1
1
1
1
1
1
1
1
1
1
1
1
1
1
1
1
1
1
1
1
1.00002
1.0024
1.06807
1.47043
1.92414
2.11698
2.15858
2.15594
2.15022
2.1453
2.1406
2.13713
2.13368
2.13052
2.12598
1
1
1
1
1
1
1
1
1
1
1
1
1
1
1
1
1
1
1
1
1
1
1
1
1
1
1
1
1
1
1
1
1
1
1
1
1
1
1
1
1
1
1
1
1
1
1
1
1
1
1
1
1
1
1
1
1
1
1
1
1
1
1
1
1
1
1
1
1
1
1
1
1
1
1
1
1
1
1
1
1
1
1
1.00051
1.02487
1.2788
1.728
2.06072
2.13201
2.13999
2.13547
2.12727
2.12197
2.11938
2.11664
2.11327
1
1
1
1
1
1
1
1
1
1
1
1
1
1
1
1
1
1
1
1
1
1
1
1
1
1
1
1
1
1
1
1
1
1
1
1
1
1
1
1
1
1
1
1
1
1
1
1
1
1
1
1
1
1
1
1
1
1
1
1
1
1
1
1
1
1
1
1
1
1
1
1
1
1
1
1
1
1
1
1
1
1
1
1
1.0001
1.00701
1.11686
1.53581
1.93142
2.10027
2.12717
2.1214
2.11235
2.10385
2.09876
2.09808
1
1
1
1
1
1
1
1
1
1
1
1
1
1
1
1
1
1
1
1
1
1
1
1
1
1
1
1
1
1
1
1
1
1
1
1
1
1
1
1
1
1
1
1
1
1
1
1
1
1
1
1
1
1
1
1
1
1
1
1
1
1
1
1
1
1
1
1
1
1
1
1
1
1
1
1
1
1
1
1
1
1
1
1
1
1.00002
1.00129
1.04064
1.31944
1.7667
2.02106
2.09662
2.10746
2.10357
2.09706
2.08697
1
1
1
1
1
1
1
1
1
1
1
1
1
1
1
1
1
1
1
1
1
1
1
1
1
1
1
1
1
1
1
1
1
1
1
1
1
1
1
1
1
1
1
1
1
1
1
1
1
1
1
1
1
1
1
1
1
1
1
1
1
1
1
1
1
1
1
1
1
1
1
1
1
1
1
1
1
1
1
1
1
1
1
1
1
1
1
1.00023
1.01029
1.15014
1.53704
1.90955
2.04315
2.08946
2.09398
2.08673
1
1
1
1
1
1
1
1
1
1
1
1
1
1
1
1
1
1
1
1
1
1
1
1
1
1
1
1
1
1
1
1
1
1
1
1
1
1
1
1
1
1
1
1
1
1
1
1
1
1
1
1
1
1
1
1
1
1
1
1
1
1
1
1
1
1
1
1
1
1
1
1
1
1
1
1
1
1
1
1
1
1
1
1
1
1
1
1
1.00003
1.00211
1.04576
1.31721
1.7308
1.9707
2.05511
2.0775
1
1
1
1
1
1
1
1
1
1
1
1
1
1
1
1
1
1
1
1
1
1
1
1
1
1
1
1
1
1
1
1
1
1
1
1
1
1
1
1
1
1
1
1
1
1
1
1
1
1
1
1
1
1
1
1
1
1
1
1
1
1
1
1
1
1
1
1
1
1
1
1
1
1
1
1
1
1
1
1
1
1
1
1
1
1
1
1
1
1
1.0003
1.01032
1.13824
1.4875
1.83831
2.02032
1
1
1
1
1
1
1
1
1
1
1
1
1
1
1
1
1
1
1
1
1
1
1
1
1
1
1
1
1
1
1
1
1
1
1
1
1
1
1
1
1
1
1
1
1
1
1
1
1
1
1
1
1
1
1
1
1
1
1
1
1
1
1
1
1
1
1
1
1
1
1
1
1
1
1
1
1
1
1
1
1
1
1
1
1
1
1
1
1
1
1
1.00003
1.00186
1.03644
1.25687
1.67011
1
1
1
1
1
1
1
1
1
1
1
1
1
1
1
1
1
1
1
1
1
1
1
1
1
1
1
1
1
1
1
1
1
1
1
1
1
1
1
1
1
1
1
1
1
1
1
1
1
1
1
1
1
1
1
1
1
1
1
1
1
1
1
1
1
1
1
1
1
1
1
1
1
1
1
1
1
1
1
1
1
1
1
1
1
1
1
1
1
1
1
1
1
1.0002
1.0072
1.10187
1
1
1
1
1
1
1
1
1
1
1
1
1
1
1
1
1
1
1
1
1
1
1
1
1
1
1
1
1
1
1
1
1
1
1
1
1
1
1
1
1
1
1
1
1
1
1
1
1
1
1
1
1
1
1
1
1
1
1
1
1
1
1
1
1
1
1
1
1
1
1
1
1
1
1
1
1
1
1
1
1
1
1
1
1
1
1
1
1
1
1
1
1
1
1.00002
1.00103
1
1
1
1
1
1
1
1
1
1
1
1
1
1
1
1
1
1
1
1
1
1
1
1
1
1
1
1
1
1
1
1
1
1
1
1
1
1
1
1
1
1
1
1
1
1
1
1
1
1
1
1
1
1
1
1
1
1
1
1
1
1
1
1
1
1
1
1
1
1
1
1
1
1
1
1
1
1
1
1
1
1
1
1
1
1
1
1
1
1
1
1
1
1
1
1
1
1
1
1
1
1
1
1
1
1
1
1
1
1
1
1
1
1
1
1
1
1
1
1
1
1
1
1
1
1
1
1
1
1
1
1
1
1
1
1
1
1
1
1
1
1
1
1
1
1
1
1
1
1
1
1
1
1
1
1
1
1
1
1
1
1
1
1
1
1
1
1
1
1
1
1
1
1
1
1
1
1
1
1
1
1
1
1
1
1
1
1
1
1
1
1
1
1
1
1
1
1
1
1
1
1
1
1
1
1
1
1
1
1
1
1
1
1
1
1
1
1
1
1
1
1
1
1
1
1
1
1
1
1
1
1
1
1
1
1
1
1
1
1
1
1
1
1
1
1
1
1
1
1
1
1
1
1
1
1
1
1
1
1
1
1
1
1
1
1
1
1
1
1
1
1
1
1
1
1
1
1
1
1
1
1
1
1
1
1
1
1
1
1
1
1
1
1
1
1
1
1
1
1
1
1
1
1
1
1
1
1
1
1
1
1
1
1
1
1
1
1
1
1
1
1
1
1
1
1
1
1
1
1
1
1
1
1
1
1
1
1
1
1
1
1
1
1
1
1
1
1
1
1
1
1
1
1
1
1
1
1
1
1
1
1
1
1
1
1
1
1
1
1
1
1
1
1
1
1
1
1
1
1
1
1
1
1
1
1
1
1
1
1
1
1
1
1
1
1
1
1
1
1
1
1
1
1
1
1
1
1
1
1
1
1
1
1
1
1
1
1
1
1
1
1
1
1
1
1
1
1
1
1
1
1
1
1
1
1
1
1
1
1
1
1
1
1
1
1
1
1
1
1
1
1
1
1
1
1
1
1
1
1
1
1
1
1
1
1
1
1
1
1
1
1
1
1
1
1
1
1
1
1
1
1
1
1
1
1
1
1
1
1
1
1
1
1
1
1
1
1
1
1
1
1
1
1
1
1
1
1
1
1
1
1
1
1
1
1
1
1
1
1
1
1
1
1
1
1
1
1
1
1
1
1
1
1
1
1
1
1
1
1
1
1
1
1
1
1
1
1
1
1
1
1
1
1
1
1
1
1
1
1
1
1
1
1
1
1
1
1
1
1
1
1
1
1
1
1
1
1
1
1
1
1
1
1
1
1
1
1
1
1
1
1
1
1
1
1
1
1
1
1
1
1
1
1
1
1
1
1
1
1
1
1
1
1
1
1
1
1
1
1
1
1
1
1
1
1
1
1
1
1
1
1
1
1
1
1
1
1
1
1
1
1
1
1
1
1
1
1
1
1
1
1
1
1
1
1
1
1
1
1
1
1
1
1
1
1
1
1
1
1
1
1
1
1
1
1
1
1
1
1
1
1
1
1
1
1
1
1
1
1
1
1
1
1
1
1
1
1
1
1
1
1
1
1
1
1
1
1
1
1
1
1
1
1
1
1
1
1
1
1
1
1
1
1
1
1
1
1
1
1
1
1
1
1
1
1
1
1
1
1
1
1
1
1
1
1
1
1
1
1
1
1
1
1
1
1
1
1
1
1
1
1
1
1
1
1
1
1
1
1
1
1
1
1
1
1
1
1
1
1
1
1
1
1
1
1
1
1
1
1
1
1
1
1
1
1
1
1
1
1
1
1
1
1
1
1
1
1
1
1
1
1
1
1
1
1
1
1
1
1
1
1
1
1
1
1
1
1
1
1
1
1
1
1
1
1
1
1
1
1
1
1
1
1
1
1
1
1
1
1
1
1
1
1
1
1
1
1
1
1
1
1
1
1
1
1
1
1
1
1
1
1
1
1
1
1
1
1
1
1
1
1
1
1
1
1
1
1
1
1
1
1
1
1
1
1
1
1
1
1
1
1
1
1
1
1
1
1
1
1
1
1
1
1
1
1
1
1
1
1
1
1
1
1
1
1
1
1
1
1
1
1
1
1
1
1
1
1
1
1
1
1
1
1
1
1
1
1
1
1
1
1
1
1
1
1
1
1
1
1
1
1
1
1
1
1
1
1
1
1
1
1
1
1
1
1
1
1
1
1
1
1
1
1
1
1
1
1
1
1
1
1
1
1
1
1
1
1
1
1
1
1
1
1
1
1
1
1
1
1
1
1
1
1
1
1
1
1
1
1
1
1
1
1
1
1
1
1
1
1
1
1
1
1
1
1
1
1
1
1
1
1
1
1
1
1
1
1
1
1
1
1
1
1
1
1
1
1
1
1
1
1
1
1
1
1
1
1
1
1
1
1
1
1
1
1
1
1
1
1
1
1
1
1
1
1
1
1
1
1
1
1
1
1
1
1
1
1
1
1
1
1
1
1
1
1
1
1
1
1
1
1
1
1
1
1
1
1
1
1
1
1
1
1
1
1
1
1
1
1
1
1
1
1
1
1
1
1
1
1
1
1
1
1
1
1
1
1
1
1
1
1
1
1
1
1
1
1
1
1
1
1
1
1
1
1
1
1
1
1
1
1
1
1
1
1
1
1
1
1
1
1
1
1
1
1
1
1
1
1
1
1
1
1
1
1
1
1
1
1
1
1
1
1
1
1
1
1
1
1
1
1
1
1
1
1
1
1
1
1
1
1
1
1
1
1
1
1
1
1
1
1
1
1
1
1
1
1
1
1
1
1
1
1
1
1
1
1
1
1
1
1
1
1
1
1
1
1
1
1
1
1
1
1
1
1
1
1
1
1
1
1
1
1
1
1
1
1
1
1
1
1
1
1
1
1
1
1
1
1
1
1
1
1
1
1
1
1
1
1
1
1
1
1
1
1
1
1
1
1
1
1
1
1
1
1
1
1
1
1
1
1
1
1
1
1
1
1
1
1
1
1
1
1
1
1
1
1
1
1
1
1
1
1
1
1
1
1
1
1
1
1
1
1
1
1
1
1
1
1
1
1
1
1
1
1
1
1
1
1
1
1
1
1
1
1
1
1
1
1
1
1
1
1
1
1
1
1
1
1
1
1
1
1
1
1
1
1
1
1
1
1
1
1
1
1
1
1
1
1
1
1
1
1
1
1
1
1
1
1
1
1
1
1
1
1
1
1
1
1
1
1
1
1
1
1
1
1
1
1
1
1
1
1
1
1
1
1
1
1
1
1
1
1
1
1
1
1
1
1
1
1
1
1
1
1
1
1
1
1
1
1
1
1
1
1
1
1
1
1
1
1
1
1
1
1
1
1
1
1
1
1
1
1
1
1
1
1
1
1
1
1
1
1
1
1
1
1
1
1
1
1
1
1
1
1
1
1
1
1
1
1
1
1
1
1
1
1
1
1
1
1
1
1
1
1
1
1
1
1
1
1
1
1
1
1
1
1
1
1
1
1
1
1
1
1
1
1
1
1
1
1
1
1
1
1
1
1
1
1
1
1
1
1
1
1
1
1
1
1
1
1
1
1
1
1
1
1
1
1
1
1
1
1
1
1
1
1
1
1
1
1
1
1
1
1
1
1
1
1
1
1
1
1
1
1
1
1
1
1
1
1
1
1
1
1
1
1
1
1
1
1
1
1
1
1
1
1
1
1
1
1
1
1
1
1
1
1
1
1
1
1
1
1
1
1
1
1
1
1
1
1
1
1
1
1
1
1
1
1
1
1
1
1
1
1
1
1
1
1
1
1
1
1
1
1
1
1
1
1
1
1
1
1
1
1
1
1
1
1
1
1
1
1
1
1
1
1
1
1
1
1
1
1
1
1
1
1
1
1
1
1
1
1
1
1
1
1
1
1
1
1
1
1
1
1
1
1
1
1
1
1
1
1
1
1
1
1
1
1
1
1
1
1
1
1
1
1
1
1
1
1
1
1
1
1
1
1
1
1
1
1
1
1
1
1
1
1
1
1
1
1
1
1
1
1
1
1
1
1
1
1
1
1
1
1
1
1
1
1
1
1
1
1
1
1
1
1
1
1
1
1
1
1
1
1
1
1
1
1
1
1
1
1
1
1
1
1
1
1
1
1
1
1
1
1
1
1
1
1
1
1
1
1
1
1
1
1
1
1
1
1
1
1
1
1
1
1
1
1
1
1
1
1
1
1
1
1
1
1
1
1
1
1
1
1
1
1
1
1
1
1
1
1
1
1
1
1
1
1
1
1
1
1
1
1
1
1
1
1
1
1
1
1
1
1
1
1
1
1
1
1
1
1
1
1
1
1
1
1
1
1
1
1
1
1
1
1
1
1
1
1
1
1
1
1
1
1
1
1
1
1
1
1
1
1
1
1
1
1
1
1
1
1
1
1
1
1
1
1
1
1
1
1
1
1
1
1
1
1
1
1
1
1
1
1
1
1
1
1
1
1
1
1
1
1
1
1
1
1
1
1
1
1
1
1
1
1
1
1
1
1
1
1
1
1
1
1
1
1
1
1
1
1
1
1
1
1
1
1
1
1
1
1
1
1
1
1
1
1
1
1
1
1
1
1
1
1
1
1
1
1
1
1
1
1
1
1
1
1
1
1
1
1
1
1
1
1
1
1
1
1
1
1
1
1
1
1
1
1
1
1
1
1
1
1
1
1
1
1
1
1
1
1
1
1
1
1
1
1
1
1
1
1
1
1
1
1
1
1
1
1
1
1
1
1
1
1
1
1
1
1
1.66212
1.00207
0.511505
0.632884
0.992582
1.07099
1.13119
1.23595
1.41539
1.43756
1.44098
1.45222
1.47549
1.49859
1.54037
1.60842
1.67977
1.73676
1.75807
1.7522
1.73607
1.731
1.73522
1.75201
1.76035
1.75728
1.75339
1.75611
1.7592
1.77232
1.79802
1.80875
1.80709
1.80175
1.79213
1.79015
1.79279
1.79802
1.79815
1.79719
1.79779
1.80009
1.80019
1.80062
1.80102
1.8004
1.79749
1.79248
1.78834
1.78661
1.78681
1.78867
1.7904
1.79172
1.79243
1.79257
1.79223
1.79211
1.79212
1.79264
1.79384
1.79323
1.79262
1.79242
1.79214
1.79135
1.79112
1.79341
1.7972
1.79918
1.8001
1.80028
1.79876
1.79448
1.78952
1.78469
1.78015
1.77642
1.77363
1.77142
1.76995
1.76993
1.77012
1.7701
1.77046
1.77068
1.7704
1.76896
1.76569
1.75992
1.75401
1.75185
1.75185
1.75231
1.75372
1.75566
1.75905
1.76214
1.76269
1.76258
1.7617
1.75881
1.75354
1.74765
1.74372
1.74282
1.74297
1.74366
1.74494
1.74623
1.74675
1.7469
1.74681
1.74608
1.74393
1.74037
1.73673
1.73418
1.73251
1.73136
1.73092
1.731
1.73216
1.73503
1.73805
1.74066
1.74284
1.74443
1.74545
1.74551
1.74488
1.74346
1.74171
1.73915
1.73577
1.73274
1.73019
1.73305
1.74564
1.77484
1.82692
1.90068
1.98534
2.07766
2.16203
2.24895
2.32258
2.38156
2.43129
2.4718
2.50775
2.53804
2.56159
2.58161
2.59158
2.5987
2.59786
2.59123
2.58312
2.57446
2.56043
2.54685
2.53583
2.52429
2.51404
2.50701
2.50073
2.49496
2.48933
2.48324
2.478
2.47339
2.46751
2.46125
2.45582
2.45082
2.44617
2.44309
2.44127
2.43976
2.43762
2.43534
2.43232
2.42804
2.42384
2.41964
2.41568
2.41065
2.40497
2.39876
2.39274
2.3819
1.90254
1.54765
1.16482
1.08918
1.17115
1.14537
1.09684
1.10425
1.12178
1.12809
1.14518
1.17056
1.20215
1.2459
1.297
1.35348
1.4135
1.45224
1.48941
1.53622
1.57343
1.59681
1.62035
1.64409
1.66115
1.67247
1.68142
1.69154
1.69783
1.70949
1.72836
1.73738
1.73701
1.73739
1.73723
1.73848
1.74391
1.7494
1.75127
1.75241
1.75506
1.75863
1.76034
1.76188
1.76277
1.76267
1.76174
1.75985
1.7577
1.75623
1.75634
1.75721
1.75857
1.76038
1.76268
1.76532
1.76705
1.76766
1.76764
1.7674
1.76766
1.76739
1.76749
1.76819
1.76924
1.76997
1.77002
1.77016
1.7717
1.77381
1.77445
1.77443
1.77423
1.7728
1.7689
1.76467
1.76103
1.75794
1.7552
1.75301
1.75209
1.75216
1.75274
1.75365
1.7542
1.75392
1.75325
1.75174
1.74837
1.74271
1.73694
1.7349
1.73492
1.73533
1.73677
1.73924
1.7423
1.74519
1.74604
1.74602
1.74551
1.74335
1.73863
1.7327
1.72917
1.7287
1.72892
1.72986
1.7317
1.73403
1.73578
1.73618
1.73586
1.73441
1.73144
1.7275
1.72377
1.7215
1.72096
1.72098
1.72122
1.72198
1.72335
1.72488
1.72598
1.72672
1.72747
1.72829
1.72838
1.72786
1.72647
1.72398
1.72281
1.72376
1.72665
1.73703
1.76318
1.80671
1.86685
1.92589
1.98102
2.01659
2.05519
2.07265
2.08783
2.10213
2.11807
2.14027
2.16587
2.19301
2.2175
2.23994
2.25997
2.28103
2.30227
2.32233
2.33975
2.35613
2.37346
2.38955
2.40189
2.41341
2.42175
2.42706
2.43244
2.43512
2.43704
2.43862
2.43785
2.43609
2.43356
2.43116
2.42712
2.42201
2.41788
2.41477
2.41151
2.41032
2.41081
2.41142
2.41125
2.41016
2.40794
2.4048
2.40093
2.39674
2.39258
2.38793
2.3829
2.37741
2.37219
2.36172
1.94824
1.75387
1.58362
1.4351
1.37422
1.30531
1.19436
1.14767
1.15451
1.14905
1.11976
1.11272
1.12512
1.14701
1.16902
1.1834
1.19646
1.21712
1.24436
1.30023
1.37196
1.42155
1.45325
1.4835
1.51308
1.54402
1.56657
1.58277
1.59702
1.60836
1.62316
1.62838
1.62777
1.62815
1.63
1.6356
1.64396
1.64665
1.64877
1.653
1.6604
1.66771
1.6737
1.67791
1.67915
1.67931
1.67915
1.67977
1.68271
1.68489
1.68615
1.68689
1.68754
1.68859
1.691
1.69495
1.69929
1.70161
1.70164
1.70098
1.69962
1.69879
1.69872
1.69946
1.70174
1.70442
1.70604
1.70677
1.70766
1.70894
1.71009
1.71015
1.70989