/*--------------------------------*- C++ -*----------------------------------*\
  =========                 |
  \\      /  F ield         | OpenFOAM: The Open Source CFD Toolbox
   \\    /   O peration     | Website:  https://openfoam.org
    \\  /    A nd           | Version:  7
     \\/     M anipulation  |
\*---------------------------------------------------------------------------*/
FoamFile
{
    version     2.0;
    format      ascii;
    class       volVectorField;
    location    "1.2";
    object      U;
}
// * * * * * * * * * * * * * * * * * * * * * * * * * * * * * * * * * * * * * //

dimensions      [0 1 -1 0 0 0 0];

internalField   nonuniform List<vector> 
19968
(
(3 9.65425e-18 0)
(3 -1.49123e-16 0)
(3 -3.04132e-16 0)
(3 -1.56779e-16 0)
(3 -6.99474e-17 0)
(3 -1.14428e-16 0)
(3 -3.00701e-16 0)
(3 -7.07009e-16 0)
(3 -6.80111e-16 0)
(3 -5.85803e-16 0)
(3 -2.43427e-16 0)
(3 6.30657e-17 0)
(3 2.23447e-16 0)
(3 8.73632e-16 0)
(3 9.00476e-16 0)
(3 5.06549e-16 0)
(3 8.98892e-17 0)
(3 -2.81351e-16 0)
(3 -5.88626e-16 0)
(3 -9.32373e-16 0)
(3 -8.95501e-16 0)
(3 -4.55001e-16 0)
(3 4.49165e-18 0)
(3 1.29308e-15 0)
(3 1.7312e-15 0)
(3 1.77531e-15 0)
(3 1.81543e-15 0)
(3 1.59236e-15 0)
(3 1.4212e-15 0)
(3 8.7041e-16 0)
(3 -3.63231e-16 0)
(3 -9.20196e-16 0)
(3 -9.97031e-16 0)
(3 -8.82406e-16 0)
(3 -6.37127e-16 0)
(3 1.05719e-16 0)
(3 4.47192e-16 0)
(3 6.05416e-16 0)
(3 7.33655e-16 0)
(3 6.60185e-16 0)
(3 5.24033e-16 0)
(3 3.74346e-16 0)
(3 1.80673e-16 0)
(3 2.06917e-16 0)
(3 7.78412e-17 0)
(3 6.77225e-17 0)
(3 4.35825e-16 0)
(3 -4.35551e-16 0)
(3 -7.31887e-16 0)
(3 -7.3136e-16 0)
(3 -4.98723e-16 0)
(3 -1.89535e-16 0)
(2.65955 0.00242632 0)
(0.904583 0.0049215 0)
(0.706202 0.0146729 0)
(0.687565 0.00946265 0)
(0.674106 0.00815929 0)
(0.663497 0.00780129 0)
(0.6529 0.00826352 0)
(0.640478 0.00909505 0)
(0.623842 0.00955919 0)
(0.606614 0.00873467 0)
(0.590048 0.0075472 0)
(0.5772 0.00696067 0)
(0.566541 0.00776737 0)
(0.555288 0.00935007 0)
(0.540687 0.0113248 0)
(0.522893 0.0132635 0)
(0.502663 0.0141896 0)
(0.482891 0.0132879 0)
(0.465128 0.0111458 0)
(0.448553 0.00900281 0)
(0.432537 0.00839806 0)
(0.415164 0.00921035 0)
(0.397128 0.0104561 0)
(0.37956 0.0111426 0)
(0.363343 0.0111778 0)
(0.348011 0.0112089 0)
(0.332217 0.011443 0)
(0.315012 0.0116697 0)
(0.297419 0.0118859 0)
(0.280114 0.0119787 0)
(0.264495 0.0120404 0)
(0.25037 0.0119764 0)
(0.236257 0.0118761 0)
(0.220814 0.0118451 0)
(0.203584 0.011974 0)
(0.184739 0.0121854 0)
(0.164637 0.0125275 0)
(0.143465 0.0129719 0)
(0.121347 0.0134179 0)
(0.0994621 0.0139696 0)
(0.0783885 0.0145577 0)
(0.0574535 0.0151709 0)
(0.0355689 0.0155621 0)
(0.011985 0.0160858 0)
(3 4.29868e-17 0)
(3 -2.85181e-16 0)
(3 -3.91036e-16 0)
(3 -2.19267e-16 0)
(3 -8.09485e-17 0)
(3 1.70936e-16 0)
(3 -5.40494e-17 0)
(3 -4.87206e-16 0)
(3 -5.20571e-16 0)
(3 -3.95524e-16 0)
(3 -3.4258e-16 0)
(3 5.12704e-17 0)
(3 7.31959e-16 0)
(3 1.06478e-15 0)
(3 7.5998e-16 0)
(3 4.42466e-16 0)
(3 3.91086e-16 0)
(3 5.44088e-16 0)
(3 4.08487e-16 0)
(3 1.78051e-16 0)
(3 1.66394e-16 0)
(3 6.78735e-16 0)
(3 1.41936e-15 0)
(3 1.7146e-15 0)
(3 2.72681e-15 0)
(3 3.04268e-15 0)
(3 3.78512e-15 0)
(3 4.00878e-15 0)
(3 3.42193e-15 0)
(3 1.62126e-15 0)
(3 -1.32844e-16 0)
(3 -1.93219e-15 0)
(3 -1.6644e-15 0)
(3 -1.06086e-15 0)
(3 -2.64299e-16 0)
(3 8.26105e-16 0)
(3 2.20254e-15 0)
(3 2.1851e-15 0)
(3 2.5153e-15 0)
(3 1.52202e-15 0)
(3 1.44328e-15 0)
(3 1.33713e-15 0)
(3 1.06256e-15 0)
(3 3.10385e-16 0)
(3 1.82195e-16 0)
(3 5.26309e-16 0)
(3 8.38317e-16 0)
(3 8.00317e-16 0)
(3 6.00391e-16 0)
(3 6.64522e-16 0)
(3 1.0056e-15 0)
(3 9.36153e-16 0)
(2.67677 0.0152127 0)
(0.905677 0.032208 0)
(0.697139 0.0405842 0)
(0.682996 0.0302763 0)
(0.670408 0.0241363 0)
(0.660467 0.0228541 0)
(0.650651 0.0247209 0)
(0.638438 0.0272354 0)
(0.622224 0.0283736 0)
(0.605354 0.026377 0)
(0.588966 0.0236805 0)
(0.575232 0.022428 0)
(0.563104 0.0244239 0)
(0.550264 0.0286224 0)
(0.534263 0.0341577 0)
(0.515822 0.0391611 0)
(0.495974 0.0410261 0)
(0.477537 0.0383655 0)
(0.461069 0.0330383 0)
(0.444701 0.0279351 0)
(0.427927 0.0263019 0)
(0.409983 0.0283635 0)
(0.391934 0.0319498 0)
(0.374452 0.033811 0)
(0.358456 0.0337873 0)
(0.343345 0.0337986 0)
(0.32773 0.0343344 0)
(0.310651 0.0347831 0)
(0.293153 0.0352899 0)
(0.27588 0.0357369 0)
(0.260116 0.0362999 0)
(0.245684 0.0366293 0)
(0.231375 0.0366494 0)
(0.216194 0.0365611 0)
(0.199427 0.0367389 0)
(0.181233 0.037032 0)
(0.161767 0.037777 0)
(0.141131 0.0390026 0)
(0.119627 0.0404707 0)
(0.0982211 0.0425656 0)
(0.0773224 0.0446744 0)
(0.0564665 0.0466933 0)
(0.0347487 0.0478448 0)
(0.0118035 0.0492927 0)
(3 3.21336e-17 0)
(3 -2.73401e-18 0)
(3 9.84717e-17 0)
(3 2.67792e-16 0)
(3 6.88113e-16 0)
(3 1.11408e-15 0)
(3 1.55601e-15 0)
(3 1.15603e-15 0)
(3 9.04591e-16 0)
(3 8.12114e-16 0)
(3 5.80289e-16 0)
(3 5.3726e-16 0)
(3 6.37569e-16 0)
(3 6.99554e-16 0)
(3 4.40024e-16 0)
(3 1.59398e-16 0)
(3 -9.22168e-17 0)
(3 -2.65535e-16 0)
(3 8.40287e-16 0)
(3 1.18622e-15 0)
(3 7.07239e-16 0)
(3 -2.31775e-16 0)
(3 6.05126e-17 0)
(3 5.36582e-16 0)
(3 1.16829e-15 0)
(3 1.35299e-15 0)
(3 1.19554e-15 0)
(3 1.9686e-15 0)
(3 2.20006e-15 0)
(3 2.27301e-15 0)
(3 1.64949e-15 0)
(3 -4.25647e-16 0)
(3 1.16204e-16 0)
(3 -5.69684e-16 0)
(3 -2.11058e-16 0)
(3 5.32758e-16 0)
(3 1.16971e-15 0)
(3 1.58907e-15 0)
(3 1.64912e-15 0)
(3 1.25636e-15 0)
(3 7.66887e-16 0)
(3 9.10558e-16 0)
(3 8.02984e-16 0)
(3 5.85561e-16 0)
(3 8.33034e-16 0)
(3 6.07513e-16 0)
(3 4.29833e-16 0)
(3 5.9984e-16 0)
(3 6.48332e-16 0)
(3 1.24324e-15 0)
(3 1.34664e-15 0)
(3 6.41674e-16 0)
(2.72082 0.0288441 0)
(0.918895 0.0682074 0)
(0.695157 0.0618634 0)
(0.686468 0.0508819 0)
(0.675605 0.0399144 0)
(0.664646 0.0381746 0)
(0.654277 0.0419532 0)
(0.641137 0.0462169 0)
(0.625189 0.0475583 0)
(0.608759 0.04515 0)
(0.592871 0.042267 0)
(0.578393 0.0415158 0)
(0.56465 0.0451195 0)
(0.549495 0.0519582 0)
(0.531653 0.0603504 0)
(0.511981 0.0669008 0)
(0.491947 0.0679806 0)
(0.474586 0.0628619 0)
(0.45912 0.0548982 0)
(0.442834 0.0479491 0)
(0.425502 0.0462643 0)
(0.407178 0.0499775 0)
(0.389147 0.0558661 0)
(0.371395 0.0587235 0)
(0.35511 0.0582991 0)
(0.339733 0.0580226 0)
(0.323778 0.0586465 0)
(0.306661 0.0594575 0)
(0.289074 0.0600195 0)
(0.271949 0.0606508 0)
(0.255839 0.0613189 0)
(0.240635 0.0618294 0)
(0.225746 0.0620619 0)
(0.210267 0.0619865 0)
(0.193676 0.0623802 0)
(0.175974 0.0628923 0)
(0.157093 0.0640437 0)
(0.137209 0.0659675 0)
(0.116631 0.0682851 0)
(0.095863 0.071551 0)
(0.075131 0.0749468 0)
(0.0543718 0.0783579 0)
(0.0329987 0.0804354 0)
(0.0113366 0.0829207 0)
(3 -1.22422e-16 0)
(3 1.73308e-16 0)
(3 4.02655e-16 0)
(3 6.9029e-16 0)
(3 9.56396e-16 0)
(3 9.73791e-16 0)
(3 1.08978e-15 0)
(3 1.21335e-15 0)
(3 1.11194e-15 0)
(3 1.01708e-15 0)
(3 9.5494e-16 0)
(3 9.59024e-16 0)
(3 5.61858e-16 0)
(3 2.7293e-16 0)
(3 3.42206e-16 0)
(3 3.92294e-16 0)
(3 2.93513e-16 0)
(3 2.89692e-16 0)
(3 -8.71713e-17 0)
(3 -1.24545e-16 0)
(3 -8.22889e-16 0)
(3 -1.03875e-15 0)
(3 -1.39387e-15 0)
(3 -1.12493e-15 0)
(3 -1.0789e-15 0)
(3 -1.13006e-15 0)
(3 -7.94173e-16 0)
(3 -5.46725e-16 0)
(3 -1.37213e-16 0)
(3 -1.35445e-16 0)
(3 5.06509e-16 0)
(3 1.73785e-15 0)
(3 1.48112e-15 0)
(3 1.17605e-15 0)
(3 1.21454e-15 0)
(3 1.10214e-15 0)
(3 9.44216e-16 0)
(3 -8.81554e-17 0)
(3 -8.82915e-16 0)
(3 -8.9594e-16 0)
(3 -3.78351e-16 0)
(3 5.24171e-18 0)
(3 3.5433e-16 0)
(3 2.63667e-16 0)
(3 -1.81177e-16 0)
(3 -4.71227e-16 0)
(3 -6.07584e-16 0)
(3 -6.45264e-16 0)
(3 -1.29716e-15 0)
(3 -1.62955e-15 0)
(3 -1.16725e-15 0)
(3 -1.64546e-15 0)
(2.78817 0.0461604 0)
(0.942595 0.106009 0)
(0.702594 0.0806794 0)
(0.697433 0.0653107 0)
(0.68569 0.0530306 0)
(0.672794 0.0541082 0)
(0.660201 0.060997 0)
(0.645284 0.0668044 0)
(0.630302 0.0676025 0)
(0.614988 0.0650112 0)
(0.599712 0.0627902 0)
(0.584491 0.0633562 0)
(0.569173 0.0690606 0)
(0.551738 0.0784977 0)
(0.532601 0.0890744 0)
(0.512287 0.0956428 0)
(0.492498 0.094555 0)
(0.476362 0.0867576 0)
(0.461428 0.0768297 0)
(0.444985 0.0690385 0)
(0.427275 0.0680656 0)
(0.408872 0.0737491 0)
(0.390955 0.0819118 0)
(0.37271 0.0857867 0)
(0.355854 0.0849547 0)
(0.339902 0.0843795 0)
(0.323312 0.0850716 0)
(0.305955 0.0857214 0)
(0.288354 0.0866328 0)
(0.27096 0.0872752 0)
(0.254298 0.0879577 0)
(0.238289 0.0885991 0)
(0.222456 0.0891097 0)
(0.206402 0.0892645 0)
(0.189686 0.0899762 0)
(0.172121 0.0906885 0)
(0.153809 0.0920557 0)
(0.134191 0.0943643 0)
(0.114319 0.097152 0)
(0.0939196 0.101204 0)
(0.0731248 0.105575 0)
(0.0522963 0.110188 0)
(0.0312099 0.113149 0)
(0.0108883 0.116715 0)
(3 1.57359e-17 0)
(3 4.60095e-17 0)
(3 -2.60215e-16 0)
(3 -2.39532e-16 0)
(3 -7.80281e-16 0)
(3 -6.721e-16 0)
(3 -1.95564e-16 0)
(3 3.6953e-17 0)
(3 2.69065e-16 0)
(3 3.58054e-16 0)
(3 1.11355e-15 0)
(3 1.10649e-15 0)
(3 5.58317e-16 0)
(3 6.83293e-17 0)
(3 2.97238e-16 0)
(3 9.22702e-16 0)
(3 1.705e-15 0)
(3 1.81395e-15 0)
(3 1.05716e-15 0)
(3 3.31746e-16 0)
(3 2.24186e-17 0)
(3 5.36681e-16 0)
(3 4.40651e-16 0)
(3 9.64119e-18 0)
(3 -4.06078e-17 0)
(3 1.014e-16 0)
(3 7.85005e-16 0)
(3 1.38271e-15 0)
(3 1.18864e-15 0)
(3 1.19608e-15 0)
(3 1.42033e-15 0)
(3 1.55776e-15 0)
(3 1.76052e-15 0)
(3 2.13931e-15 0)
(3 1.8441e-15 0)
(3 6.85778e-16 0)
(3 1.73703e-16 0)
(3 -1.37831e-16 0)
(3 -5.35227e-16 0)
(3 -8.40825e-16 0)
(3 5.24146e-16 0)
(3 8.05002e-16 0)
(3 7.49043e-16 0)
(3 3.84098e-16 0)
(3 -1.12068e-15 0)
(3 -1.54857e-15 0)
(3 -1.59072e-15 0)
(3 -1.35326e-15 0)
(3 -1.38457e-15 0)
(3 -1.33571e-15 0)
(3 -1.14107e-15 0)
(3 -1.18573e-15 0)
(2.89862 0.0537938 0)
(0.993093 0.129826 0)
(0.715026 0.0962042 0)
(0.708728 0.0767777 0)
(0.695582 0.0719378 0)
(0.679537 0.0773399 0)
(0.66331 0.0845722 0)
(0.647413 0.0890587 0)
(0.634464 0.0886648 0)
(0.620761 0.0864191 0)
(0.605921 0.0856169 0)
(0.589683 0.0884218 0)
(0.572172 0.0964844 0)
(0.552632 0.108282 0)
(0.532774 0.1197 0)
(0.512611 0.124278 0)
(0.494173 0.120087 0)
(0.479236 0.110028 0)
(0.464946 0.0989922 0)
(0.448776 0.0912319 0)
(0.431178 0.0915248 0)
(0.413255 0.099354 0)
(0.395705 0.10969 0)
(0.376879 0.114529 0)
(0.359474 0.113351 0)
(0.342791 0.112591 0)
(0.325547 0.113421 0)
(0.307926 0.114249 0)
(0.290475 0.114829 0)
(0.272936 0.115536 0)
(0.256096 0.11636 0)
(0.239482 0.117105 0)
(0.222809 0.117992 0)
(0.206029 0.118671 0)
(0.188903 0.119894 0)
(0.171181 0.120923 0)
(0.153209 0.122487 0)
(0.133502 0.124843 0)
(0.113964 0.127647 0)
(0.0935383 0.131975 0)
(0.0724075 0.136905 0)
(0.0512965 0.142574 0)
(0.0302249 0.146253 0)
(0.0107309 0.150729 0)
(3 2.71711e-16 0)
(3 2.33961e-16 0)
(3 2.78485e-16 0)
(3 1.80902e-17 0)
(3 -1.90364e-17 0)
(3 -1.48379e-17 0)
(3 -7.95577e-17 0)
(3 -3.53293e-16 0)
(3 -3.46086e-16 0)
(3 -1.31974e-16 0)
(3 1.83723e-16 0)
(3 7.40928e-17 0)
(3 2.06775e-16 0)
(3 3.30711e-16 0)
(3 7.18555e-16 0)
(3 1.20662e-15 0)
(3 1.35174e-15 0)
(3 7.38477e-16 0)
(3 2.23646e-16 0)
(3 -1.11467e-16 0)
(3 1.89369e-16 0)
(3 1.54079e-15 0)
(3 2.7088e-15 0)
(3 3.27369e-15 0)
(3 2.77e-15 0)
(3 2.51257e-15 0)
(3 2.50945e-15 0)
(3 1.86373e-15 0)
(3 1.90616e-15 0)
(3 2.88445e-15 0)
(3 2.83603e-15 0)
(3 2.49793e-15 0)
(3 2.27291e-15 0)
(3 2.06141e-15 0)
(3 1.52907e-15 0)
(3 1.22572e-15 0)
(3 5.43566e-16 0)
(3 -3.02262e-16 0)
(3 -2.03726e-17 0)
(3 7.77952e-16 0)
(3 7.46727e-16 0)
(3 5.58161e-16 0)
(3 2.13978e-16 0)
(3 -8.17497e-17 0)
(3 -1.13405e-15 0)
(3 -1.41124e-15 0)
(3 -1.82154e-15 0)
(3 -1.677e-15 0)
(3 -1.39753e-15 0)
(3 -1.25682e-15 0)
(3 -1.33027e-15 0)
(3 -1.15992e-15 0)
(3.00008 0.00469027 0)
(1.08598 0.131502 0)
(0.73672 0.108276 0)
(0.71401 0.0953483 0)
(0.694835 0.098635 0)
(0.677699 0.104348 0)
(0.664197 0.108607 0)
(0.652621 0.110804 0)
(0.640948 0.11066 0)
(0.626687 0.109916 0)
(0.609758 0.1114 0)
(0.590915 0.117186 0)
(0.570742 0.127606 0)
(0.550603 0.140785 0)
(0.531185 0.150498 0)
(0.512788 0.151278 0)
(0.497514 0.143847 0)
(0.484224 0.132289 0)
(0.470845 0.121075 0)
(0.455266 0.11428 0)
(0.438032 0.116385 0)
(0.420587 0.126663 0)
(0.402795 0.139075 0)
(0.383359 0.144791 0)
(0.36502 0.143232 0)
(0.347458 0.142297 0)
(0.32935 0.143464 0)
(0.311145 0.144615 0)
(0.293656 0.145385 0)
(0.27645 0.146112 0)
(0.259696 0.146836 0)
(0.242971 0.147656 0)
(0.225855 0.149026 0)
(0.208278 0.150335 0)
(0.190699 0.152164 0)
(0.172514 0.153643 0)
(0.154452 0.155435 0)
(0.134494 0.157832 0)
(0.114957 0.160453 0)
(0.0943293 0.164795 0)
(0.0727917 0.169847 0)
(0.0513174 0.176117 0)
(0.0300791 0.180363 0)
(0.0108168 0.185509 0)
(3 1.26375e-16 0)
(3 6.46114e-16 0)
(3 6.85334e-16 0)
(3 5.03416e-16 0)
(3 5.21885e-16 0)
(3 3.53092e-16 0)
(3 -3.93774e-16 0)
(3 -8.74984e-16 0)
(3 -1.08632e-15 0)
(3 -6.17129e-16 0)
(3 -6.54486e-16 0)
(3 1.08198e-16 0)
(3 8.60854e-16 0)
(3 1.47492e-15 0)
(3 1.26719e-15 0)
(3 2.31112e-16 0)
(3 -2.60781e-17 0)
(3 -1.08531e-16 0)
(3 -1.33691e-16 0)
(3 -1.71612e-16 0)
(3 -2.31011e-17 0)
(3 9.90157e-17 0)
(3 1.02152e-15 0)
(3 1.03624e-15 0)
(3 1.23118e-15 0)
(3 1.37932e-15 0)
(3 1.20979e-15 0)
(3 6.13333e-16 0)
(3 7.97436e-16 0)
(3 8.10068e-16 0)
(3 7.70131e-16 0)
(3 8.06587e-16 0)
(3 9.05181e-16 0)
(3 8.66298e-16 0)
(3 1.0989e-15 0)
(3 2.66197e-15 0)
(3 2.75008e-15 0)
(3 1.83784e-15 0)
(3 2.09569e-15 0)
(3 1.96568e-15 0)
(3 1.55278e-15 0)
(3 1.24504e-15 0)
(3 9.20342e-16 0)
(3 6.05487e-16 0)
(3 -8.73224e-17 0)
(3 -5.84877e-16 0)
(3 -7.86137e-16 0)
(3 -1.71873e-15 0)
(3 -1.528e-15 0)
(3 -1.82479e-15 0)
(3 -1.78692e-15 0)
(3 -1.47217e-15 0)
(3.00004 1.51249e-05 0)
(1.22965 0.149316 0)
(0.744409 0.131617 0)
(0.716672 0.121778 0)
(0.699439 0.124184 0)
(0.683939 0.127672 0)
(0.670704 0.130974 0)
(0.658753 0.13407 0)
(0.645663 0.136041 0)
(0.629416 0.137986 0)
(0.61023 0.142297 0)
(0.589559 0.150416 0)
(0.56827 0.161733 0)
(0.549399 0.173526 0)
(0.532302 0.178498 0)
(0.517889 0.174717 0)
(0.506499 0.164721 0)
(0.494379 0.152788 0)
(0.480945 0.142906 0)
(0.46512 0.138597 0)
(0.447865 0.143354 0)
(0.430268 0.156522 0)
(0.411468 0.170781 0)
(0.39139 0.176819 0)
(0.372297 0.174547 0)
(0.354061 0.17314 0)
(0.335087 0.174692 0)
(0.316035 0.176498 0)
(0.298102 0.177811 0)
(0.281332 0.178912 0)
(0.264685 0.179739 0)
(0.248334 0.180578 0)
(0.231298 0.18245 0)
(0.213036 0.184401 0)
(0.195181 0.186789 0)
(0.176211 0.188841 0)
(0.157601 0.190924 0)
(0.137227 0.193435 0)
(0.117367 0.195908 0)
(0.0964189 0.200235 0)
(0.0744376 0.205227 0)
(0.0524477 0.211883 0)
(0.03072 0.216152 0)
(0.0111049 0.221695 0)
(3 -5.22542e-17 0)
(3 -2.95111e-17 0)
(3 -4.34165e-16 0)
(3 -4.51201e-16 0)
(3 -6.51982e-16 0)
(3 -5.98807e-16 0)
(3 -3.17883e-16 0)
(3 1.77426e-16 0)
(3 4.20214e-16 0)
(3 7.03495e-16 0)
(3 6.11568e-16 0)
(3 7.66375e-16 0)
(3 1.51024e-15 0)
(3 1.5651e-15 0)
(3 9.35335e-16 0)
(3 2.54864e-16 0)
(3 -6.80986e-16 0)
(3 -7.49793e-16 0)
(3 -6.67075e-16 0)
(3 -3.45806e-16 0)
(3 -2.32222e-16 0)
(3 -5.11545e-16 0)
(3 -6.03721e-16 0)
(3 -8.55139e-16 0)
(3 -5.55213e-16 0)
(3 -3.83887e-16 0)
(3 -5.79294e-16 0)
(3 -5.1646e-16 0)
(3 -1.52246e-16 0)
(3 -5.27814e-18 0)
(3 3.84589e-16 0)
(3 1.1823e-15 0)
(3 1.7461e-15 0)
(3 2.21333e-15 0)
(3 2.78785e-15 0)
(3 3.21371e-15 0)
(3 3.45313e-15 0)
(3 3.40461e-15 0)
(3 3.00511e-15 0)
(3 2.63678e-15 0)
(3 1.21529e-15 0)
(3 4.72374e-16 0)
(3 -2.61996e-17 0)
(3 8.21749e-17 0)
(3 3.00351e-16 0)
(3 4.84993e-16 0)
(3 3.27191e-16 0)
(3 1.30919e-16 0)
(3 -1.39925e-16 0)
(3 -5.22761e-16 0)
(3 -1.3671e-15 0)
(3 -1.26098e-15 0)
(3 2.64533e-08 0)
(1.44712 0.167926 0)
(0.765042 0.149245 0)
(0.723978 0.149967 0)
(0.705162 0.151619 0)
(0.688156 0.154404 0)
(0.672254 0.158068 0)
(0.657029 0.161996 0)
(0.641363 0.166075 0)
(0.623365 0.170275 0)
(0.603749 0.17641 0)
(0.58363 0.184983 0)
(0.565911 0.194967 0)
(0.551959 0.201597 0)
(0.540693 0.200289 0)
(0.531716 0.192847 0)
(0.5212 0.182759 0)
(0.508547 0.172992 0)
(0.493527 0.166523 0)
(0.476272 0.166291 0)
(0.458157 0.174578 0)
(0.439738 0.190589 0)
(0.419771 0.205664 0)
(0.39927 0.210713 0)
(0.380057 0.207256 0)
(0.361495 0.205086 0)
(0.341845 0.207001 0)
(0.321921 0.209912 0)
(0.303143 0.212285 0)
(0.286402 0.214219 0)
(0.269817 0.215575 0)
(0.254103 0.216482 0)
(0.23768 0.218673 0)
(0.219477 0.221212 0)
(0.20069 0.224049 0)
(0.181244 0.22673 0)
(0.161724 0.2292 0)
(0.140795 0.231995 0)
(0.120341 0.234518 0)
(0.0989774 0.238923 0)
(0.0765247 0.243796 0)
(0.0539355 0.250663 0)
(0.0315782 0.254678 0)
(0.0114171 0.260322 0)
(3 -1.45941e-16 0)
(3 -5.21619e-16 0)
(3 -7.30107e-16 0)
(3 -5.85184e-16 0)
(3 -1.04424e-15 0)
(3 -1.09041e-15 0)
(3 -8.44998e-16 0)
(3 -3.61165e-16 0)
(3 2.22017e-17 0)
(3 4.39352e-17 0)
(3 -5.01011e-17 0)
(3 -6.29531e-16 0)
(3 -1.11152e-15 0)
(3 -1.0693e-15 0)
(3 -8.92327e-16 0)
(3 -8.35772e-16 0)
(3 -1.10776e-15 0)
(3 -1.36998e-15 0)
(3 -1.39035e-15 0)
(3 -1.01747e-15 0)
(3 -3.44336e-16 0)
(3 -1.35121e-16 0)
(3 -6.86935e-16 0)
(3 -8.56958e-16 0)
(3 -9.95259e-16 0)
(3 -1.04014e-15 0)
(3 -8.85985e-16 0)
(3 -3.25901e-16 0)
(3 2.69803e-16 0)
(3 1.30134e-16 0)
(3 -4.58516e-17 0)
(3 7.20902e-16 0)
(3 1.84914e-15 0)
(3 1.73849e-15 0)
(3 1.46457e-15 0)
(3 9.86869e-16 0)
(3 9.41963e-16 0)
(3 1.53348e-15 0)
(3 1.60584e-15 0)
(3 9.71596e-16 0)
(3 4.10587e-16 0)
(3 -5.06314e-16 0)
(3 -1.1356e-15 0)
(3 -9.04688e-16 0)
(3 9.74016e-17 0)
(3 1.50168e-15 0)
(3 2.02245e-15 0)
(3 8.71239e-16 0)
(3 3.94531e-16 0)
(3 -3.36615e-16 0)
(3 -8.09317e-16 0)
(3 -1.49e-15 0)
(3 4.52248e-11 0)
(1.75531 0.184451 0)
(0.793953 0.17476 0)
(0.725153 0.18686 0)
(0.703636 0.184601 0)
(0.684592 0.185502 0)
(0.667776 0.189288 0)
(0.652268 0.193603 0)
(0.637866 0.199173 0)
(0.622198 0.204971 0)
(0.605485 0.211186 0)
(0.589453 0.217367 0)
(0.576409 0.221512 0)
(0.566638 0.219291 0)
(0.55903 0.214112 0)
(0.549849 0.208433 0)
(0.537715 0.202257 0)
(0.522731 0.196863 0)
(0.505008 0.194779 0)
(0.485648 0.199256 0)
(0.465961 0.211622 0)
(0.446624 0.229559 0)
(0.426119 0.243521 0)
(0.406188 0.246054 0)
(0.387986 0.240984 0)
(0.369924 0.237829 0)
(0.350597 0.239943 0)
(0.330732 0.244289 0)
(0.311527 0.248285 0)
(0.294451 0.251418 0)
(0.278588 0.253803 0)
(0.263101 0.255143 0)
(0.247451 0.25743 0)
(0.229776 0.260445 0)
(0.210265 0.263813 0)
(0.190495 0.267269 0)
(0.169485 0.270404 0)
(0.147747 0.273835 0)
(0.12609 0.276807 0)
(0.103829 0.28151 0)
(0.0803741 0.286372 0)
(0.0566349 0.293395 0)
(0.0331003 0.296973 0)
(0.011936 0.302616 0)
(3 1.07337e-16 0)
(3 2.77247e-16 0)
(3 4.94743e-16 0)
(3 3.89047e-16 0)
(3 3.30362e-16 0)
(3 3.28129e-16 0)
(3 6.37195e-17 0)
(3 -1.42894e-17 0)
(3 1.36855e-16 0)
(3 -5.68848e-16 0)
(3 -8.44903e-16 0)
(3 -1.91882e-15 0)
(3 -2.45595e-15 0)
(3 -2.88101e-15 0)
(3 -2.5861e-15 0)
(3 -1.81587e-15 0)
(3 -1.52464e-15 0)
(3 -1.28627e-15 0)
(3 7.98084e-17 0)
(3 9.83131e-16 0)
(3 1.53367e-15 0)
(3 1.29093e-15 0)
(3 8.73837e-16 0)
(3 5.75152e-16 0)
(3 -3.48859e-17 0)
(3 -3.37741e-16 0)
(3 -4.09826e-16 0)
(3 -1.20302e-16 0)
(3 -8.95669e-16 0)
(3 -1.22595e-15 0)
(3 -1.22085e-15 0)
(3 -1.21506e-15 0)
(3 -9.89859e-16 0)
(3 -3.81506e-16 0)
(3 -6.6701e-16 0)
(3 -1.84652e-15 0)
(3 -2.0307e-15 0)
(3 -1.6365e-15 0)
(3 -1.33766e-15 0)
(3 -1.33619e-15 0)
(3 -9.37001e-16 0)
(3 -7.35659e-16 0)
(3 -1.4556e-16 0)
(3 -4.9703e-17 0)
(3 5.48037e-17 0)
(3 -1.93676e-17 0)
(3 1.58879e-16 0)
(3 3.73776e-16 0)
(3 5.84093e-16 0)
(3 6.27136e-16 0)
(3 4.12937e-16 0)
(3 -2.56334e-16 0)
(3 7.68508e-14 0)
(2.17638 0.195898 0)
(0.838365 0.221491 0)
(0.728152 0.225424 0)
(0.714388 0.218371 0)
(0.698434 0.216048 0)
(0.682985 0.218442 0)
(0.667699 0.222567 0)
(0.654032 0.228717 0)
(0.640054 0.235065 0)
(0.625036 0.239798 0)
(0.610263 0.240898 0)
(0.59788 0.238261 0)
(0.5876 0.234567 0)
(0.577446 0.232753 0)
(0.565205 0.231251 0)
(0.5498 0.229388 0)
(0.531325 0.228144 0)
(0.510452 0.230223 0)
(0.488712 0.238319 0)
(0.46784 0.253511 0)
(0.448746 0.271205 0)
(0.429969 0.281591 0)
(0.413445 0.280552 0)
(0.398743 0.273771 0)
(0.382733 0.269831 0)
(0.364783 0.272159 0)
(0.345531 0.278486 0)
(0.325603 0.28512 0)
(0.307173 0.290462 0)
(0.290588 0.294815 0)
(0.273761 0.29741 0)
(0.257847 0.300155 0)
(0.240287 0.303797 0)
(0.220305 0.307964 0)
(0.199301 0.312301 0)
(0.177 0.31617 0)
(0.154215 0.320428 0)
(0.131204 0.324042 0)
(0.10795 0.329102 0)
(0.083493 0.334015 0)
(0.0587203 0.34112 0)
(0.0342199 0.344213 0)
(0.0122795 0.349806 0)
(3 9.50868e-17 0)
(3 1.90463e-16 0)
(3 1.08605e-16 0)
(3 -1.2919e-16 0)
(3 2.5905e-16 0)
(3 3.86325e-16 0)
(3 4.34643e-16 0)
(3 4.15163e-16 0)
(3 3.24465e-16 0)
(3 2.35055e-16 0)
(3 -1.42455e-16 0)
(3 -2.30769e-16 0)
(3 -2.27519e-16 0)
(3 -7.89823e-16 0)
(3 -1.10317e-15 0)
(3 -7.84307e-16 0)
(3 -1.80559e-16 0)
(3 1.97508e-16 0)
(3 8.38247e-16 0)
(3 6.43802e-16 0)
(3 8.2816e-16 0)
(3 3.61867e-16 0)
(3 2.26985e-16 0)
(3 8.16581e-17 0)
(3 -5.30535e-17 0)
(3 -2.56232e-16 0)
(3 -7.61449e-16 0)
(3 -1.33816e-15 0)
(3 -1.66737e-15 0)
(3 -1.26395e-15 0)
(3 -7.38997e-16 0)
(3 -7.60081e-16 0)
(3 -1.23308e-15 0)
(3 -1.25007e-15 0)
(3 -1.68521e-15 0)
(3 -1.94008e-15 0)
(3 -2.08459e-15 0)
(3 -2.15266e-15 0)
(3 -1.70296e-15 0)
(3 -1.64042e-15 0)
(3 -1.6374e-15 0)
(3 -1.66331e-15 0)
(3 -1.3975e-15 0)
(3 -1.011e-15 0)
(3 -6.63005e-16 0)
(3 -1.06381e-15 0)
(3 -1.62188e-15 0)
(3 -1.48722e-15 0)
(3 1.24966e-16 0)
(3 8.18194e-16 0)
(3 1.63132e-15 0)
(3 1.90214e-15 0)
(3 1.48763e-15 0)
(2.71768 0.162765 0)
(0.954734 0.272719 0)
(0.751811 0.252688 0)
(0.744025 0.239624 0)
(0.726265 0.238343 0)
(0.70905 0.242911 0)
(0.69201 0.249227 0)
(0.677342 0.256679 0)
(0.66348 0.263873 0)
(0.648347 0.26835 0)
(0.632782 0.268316 0)
(0.617347 0.265839 0)
(0.602143 0.263095 0)
(0.586704 0.263238 0)
(0.569841 0.263993 0)
(0.550965 0.264519 0)
(0.530333 0.265746 0)
(0.509634 0.270709 0)
(0.489967 0.280509 0)
(0.473403 0.295891 0)
(0.458814 0.309974 0)
(0.444314 0.314365 0)
(0.431945 0.30942 0)
(0.419131 0.30241 0)
(0.403489 0.299919 0)
(0.385484 0.304221 0)
(0.365995 0.313965 0)
(0.344393 0.324657 0)
(0.323471 0.333288 0)
(0.304704 0.340061 0)
(0.286204 0.34432 0)
(0.269874 0.347708 0)
(0.253034 0.351601 0)
(0.233837 0.356152 0)
(0.212846 0.361092 0)
(0.190195 0.365629 0)
(0.166419 0.370986 0)
(0.141645 0.375857 0)
(0.116801 0.381882 0)
(0.0905645 0.387531 0)
(0.0638564 0.395089 0)
(0.037321 0.397977 0)
(0.013301 0.403577 0)
(3 -2.92364e-16 0)
(3 -6.17364e-16 0)
(3 -7.58372e-16 0)
(3 -7.5547e-16 0)
(3 -6.08101e-16 0)
(3 -5.15806e-16 0)
(3 -4.87122e-16 0)
(3 -5.10851e-16 0)
(3 -7.46307e-16 0)
(3 -5.35736e-16 0)
(3 4.18109e-17 0)
(3 2.79506e-16 0)
(3 7.54147e-16 0)
(3 4.16925e-16 0)
(3 -1.7818e-16 0)
(3 -3.60205e-16 0)
(3 -2.02518e-17 0)
(3 5.69023e-16 0)
(3 7.21093e-16 0)
(3 -9.27412e-16 0)
(3 -1.92766e-15 0)
(3 -1.83431e-15 0)
(3 -1.52243e-15 0)
(3 -7.94735e-16 0)
(3 -3.90349e-16 0)
(3 -5.34424e-16 0)
(3 -7.4221e-16 0)
(3 -5.30527e-16 0)
(3 -5.21791e-16 0)
(3 -7.74504e-16 0)
(3 -9.54077e-16 0)
(3 -1.02772e-15 0)
(3 -1.65971e-15 0)
(3 -1.91384e-15 0)
(3 -1.7578e-15 0)
(3 -1.5375e-15 0)
(3 -1.5893e-15 0)
(3 -1.88517e-15 0)
(3 -2.00129e-15 0)
(3 -1.95786e-15 0)
(3 -2.33333e-15 0)
(3 -2.70024e-15 0)
(3 -2.93773e-15 0)
(3 -2.72048e-15 0)
(3 -2.40738e-15 0)
(3 -1.0498e-15 0)
(3 -3.76756e-16 0)
(3 1.51001e-16 0)
(3 8.80362e-17 0)
(3 2.2427e-16 0)
(3 6.79207e-16 0)
(3 1.08708e-15 0)
(3 9.26942e-16 0)
(3.01588 0.00864684 0)
(1.19069 0.3043 0)
(0.783421 0.257633 0)
(0.761218 0.270421 0)
(0.737347 0.276336 0)
(0.712722 0.281674 0)
(0.69103 0.286741 0)
(0.673837 0.292539 0)
(0.659601 0.298906 0)
(0.645444 0.303255 0)
(0.631036 0.303344 0)
(0.616751 0.301081 0)
(0.60322 0.298879 0)
(0.590102 0.299779 0)
(0.576336 0.301366 0)
(0.560781 0.302646 0)
(0.543389 0.304479 0)
(0.525868 0.309413 0)
(0.509788 0.317871 0)
(0.497073 0.330059 0)
(0.484444 0.3389 0)
(0.471476 0.339545 0)
(0.458544 0.335714 0)
(0.443857 0.332618 0)
(0.426303 0.334399 0)
(0.406732 0.342708 0)
(0.385482 0.356435 0)
(0.362353 0.370785 0)
(0.33918 0.38172 0)
(0.318232 0.389683 0)
(0.298776 0.394968 0)
(0.282452 0.399076 0)
(0.266741 0.403471 0)
(0.248939 0.408923 0)
(0.228321 0.415333 0)
(0.204883 0.421524 0)
(0.179114 0.428729 0)
(0.15219 0.43561 0)
(0.125347 0.443307 0)
(0.0972667 0.450425 0)
(0.068731 0.458622 0)
(0.0404588 0.461376 0)
(0.014156 0.466663 0)
(3 2.30127e-17 0)
(3 3.36139e-17 0)
(3 1.9741e-16 0)
(3 5.96195e-16 0)
(3 4.23997e-16 0)
(3 4.34118e-16 0)
(3 2.54657e-16 0)
(3 1.60905e-16 0)
(3 2.13011e-17 0)
(3 -1.95204e-16 0)
(3 -9.92649e-17 0)
(3 4.51138e-16 0)
(3 6.25083e-16 0)
(3 1.14683e-15 0)
(3 1.23431e-15 0)
(3 2.08208e-15 0)
(3 1.55485e-15 0)
(3 5.24612e-16 0)
(3 -6.90526e-17 0)
(3 -4.27956e-16 0)
(3 -5.81545e-16 0)
(3 -5.82712e-16 0)
(3 -4.70831e-16 0)
(3 -6.52279e-16 0)
(3 -8.82115e-16 0)
(3 -1.24678e-15 0)
(3 -1.15681e-15 0)
(3 -4.88808e-16 0)
(3 -1.07428e-16 0)
(3 -3.6423e-16 0)
(3 -7.15739e-16 0)
(3 -1.27968e-15 0)
(3 -1.51129e-15 0)
(3 -2.01572e-15 0)
(3 -1.50336e-15 0)
(3 -1.23141e-15 0)
(3 -1.40506e-15 0)
(3 -1.53089e-15 0)
(3 -1.94366e-15 0)
(3 -2.25204e-15 0)
(3 -2.5002e-15 0)
(3 -2.38659e-15 0)
(3 -2.39035e-15 0)
(3 -2.49068e-15 0)
(3 -2.37412e-15 0)
(3 -2.02542e-15 0)
(3 -1.57549e-16 0)
(3 7.81723e-16 0)
(3 1.39654e-15 0)
(3 1.44259e-15 0)
(3 1.29999e-15 0)
(3 1.14324e-15 0)
(3 1.40362e-15 0)
(3.00017 1.30974e-05 0)
(1.71524 0.33452 0)
(0.809361 0.301006 0)
(0.750079 0.315262 0)
(0.731784 0.318163 0)
(0.715768 0.320912 0)
(0.700567 0.324089 0)
(0.686941 0.327463 0)
(0.675223 0.331963 0)
(0.663354 0.334949 0)
(0.651271 0.334156 0)
(0.638719 0.331155 0)
(0.626466 0.328814 0)
(0.614532 0.329099 0)
(0.602344 0.330524 0)
(0.58859 0.331967 0)
(0.573001 0.334304 0)
(0.556579 0.339234 0)
(0.541279 0.348054 0)
(0.528318 0.360564 0)
(0.514311 0.37089 0)
(0.497903 0.374798 0)
(0.479846 0.374614 0)
(0.460152 0.37527 0)
(0.439111 0.380416 0)
(0.418676 0.391328 0)
(0.399066 0.406917 0)
(0.379854 0.421871 0)
(0.36027 0.432149 0)
(0.341472 0.439064 0)
(0.32386 0.444375 0)
(0.30822 0.449785 0)
(0.293255 0.45635 0)
(0.276495 0.464294 0)
(0.256472 0.47356 0)
(0.23255 0.482494 0)
(0.20525 0.492123 0)
(0.176165 0.501883 0)
(0.146296 0.51294 0)
(0.114555 0.524116 0)
(0.0814951 0.534795 0)
(0.0483997 0.538226 0)
(0.0166418 0.542759 0)
(3 1.40277e-16 0)
(3 3.33798e-16 0)
(3 4.97642e-16 0)
(3 5.62764e-16 0)
(3 5.60538e-16 0)
(3 5.36613e-16 0)
(3 7.3519e-16 0)
(3 7.50502e-16 0)
(3 7.14903e-16 0)
(3 7.45257e-16 0)
(3 6.37937e-16 0)
(3 3.38762e-16 0)
(3 1.20724e-18 0)
(3 4.7134e-16 0)
(3 1.33432e-15 0)
(3 1.57171e-15 0)
(3 1.39332e-15 0)
(3 9.34671e-16 0)
(3 7.4751e-16 0)
(3 6.73777e-16 0)
(3 6.35156e-16 0)
(3 5.02807e-16 0)
(3 3.65179e-16 0)
(3 -9.11682e-16 0)
(3 -1.98219e-15 0)
(3 -2.33316e-15 0)
(3 -2.36701e-15 0)
(3 -2.02396e-15 0)
(3 -1.50655e-15 0)
(3 -7.61633e-16 0)
(3 -8.1991e-16 0)
(3 -8.72768e-16 0)
(3 -7.68547e-16 0)
(3 -1.16827e-15 0)
(3 -1.37016e-15 0)
(3 -1.41731e-15 0)
(3 -1.39695e-15 0)
(3 -1.2817e-15 0)
(3 -2.01244e-15 0)
(3 -2.35288e-15 0)
(3 -1.96476e-15 0)
(3 -9.22806e-16 0)
(3 -7.45838e-16 0)
(3 -1.0596e-15 0)
(3 -1.39738e-15 0)
(3 -1.36829e-15 0)
(3 -8.5252e-16 0)
(3 -6.43616e-16 0)
(3 -2.47576e-16 0)
(3 5.5528e-16 0)
(3 6.6364e-16 0)
(3 5.8844e-16 0)
(3 5.48882e-16 0)
(3 3.17139e-08 0)
(2.65054 0.205145 0)
(0.962625 0.353432 0)
(0.771169 0.349181 0)
(0.761172 0.341036 0)
(0.747351 0.341919 0)
(0.733923 0.345707 0)
(0.720788 0.350704 0)
(0.709484 0.356243 0)
(0.697465 0.359484 0)
(0.68576 0.359787 0)
(0.672852 0.35821 0)
(0.659539 0.358276 0)
(0.645822 0.360466 0)
(0.631444 0.364327 0)
(0.615077 0.368631 0)
(0.596779 0.37368 0)
(0.577376 0.380378 0)
(0.559353 0.39051 0)
(0.543979 0.403776 0)
(0.529798 0.415933 0)
(0.513653 0.421932 0)
(0.496419 0.423437 0)
(0.47826 0.424954 0)
(0.460017 0.430012 0)
(0.443513 0.439549 0)
(0.429041 0.452983 0)
(0.414573 0.465379 0)
(0.398354 0.473937 0)
(0.38083 0.481603 0)
(0.362641 0.490959 0)
(0.344585 0.502194 0)
(0.326555 0.515302 0)
(0.306535 0.529179 0)
(0.283588 0.54372 0)
(0.256326 0.557409 0)
(0.22552 0.571282 0)
(0.192706 0.586147 0)
(0.159687 0.602875 0)
(0.126527 0.620555 0)
(0.0922686 0.634887 0)
(0.0571298 0.639586 0)
(0.0189729 0.642283 0)
(3 -1.35603e-17 0)
(3 -8.18019e-17 0)
(3 -1.73867e-16 0)
(3 -3.13783e-16 0)
(3 -3.58429e-16 0)
(3 -3.4704e-16 0)
(3 -3.43323e-16 0)
(3 -1.72271e-16 0)
(3 -2.38398e-16 0)
(3 -2.88418e-16 0)
(3 -4.87782e-16 0)
(3 -7.83974e-16 0)
(3 -8.31573e-16 0)
(3 -5.78733e-16 0)
(3 -5.64019e-16 0)
(3 -7.67041e-16 0)
(3 -1.37751e-15 0)
(3 -1.46611e-15 0)
(3 -1.2787e-15 0)
(3 -8.6537e-16 0)
(3 4.61937e-16 0)
(3 1.12152e-15 0)
(3 2.1244e-16 0)
(3 -2.9476e-16 0)
(3 -3.30755e-16 0)
(3 -4.43792e-16 0)
(3 -1.25579e-15 0)
(3 -1.58386e-15 0)
(3 -1.68e-15 0)
(3 -2.00621e-15 0)
(3 -2.26915e-15 0)
(3 -1.99671e-15 0)
(3 -2.02323e-15 0)
(3 -2.31269e-15 0)
(3 -2.9303e-15 0)
(3 -2.89443e-15 0)
(3 -2.83506e-15 0)
(3 -3.16123e-15 0)
(3 -2.97735e-15 0)
(3 -2.94034e-15 0)
(3 -2.7541e-15 0)
(3 -2.44938e-15 0)
(3 -1.48772e-15 0)
(3 -1.05849e-15 0)
(3 -4.62678e-16 0)
(3 -1.8381e-16 0)
(3 -7.65588e-16 0)
(3 -1.64236e-15 0)
(3 -2.25108e-15 0)
(3 -1.39976e-15 0)
(3 -7.14669e-16 0)
(3 -1.43849e-16 0)
(3 -3.70053e-16 0)
(3 3.60947e-11 0)
(3.01686 0.00726427 0)
(1.40039 0.393419 0)
(0.818918 0.362194 0)
(0.786663 0.379116 0)
(0.766776 0.380319 0)
(0.748151 0.383503 0)
(0.732988 0.38941 0)
(0.720619 0.39586 0)
(0.708542 0.399702 0)
(0.696564 0.40122 0)
(0.683664 0.400393 0)
(0.670606 0.401884 0)
(0.657745 0.405062 0)
(0.645149 0.409739 0)
(0.631528 0.414826 0)
(0.616675 0.419908 0)
(0.60079 0.42542 0)
(0.585648 0.43277 0)
(0.572969 0.442853 0)
(0.561898 0.45345 0)
(0.548794 0.460184 0)
(0.53385 0.463009 0)
(0.51731 0.465218 0)
(0.500393 0.470289 0)
(0.484804 0.480024 0)
(0.471282 0.494327 0)
(0.457388 0.509301 0)
(0.440565 0.52192 0)
(0.421549 0.534517 0)
(0.401749 0.549903 0)
(0.382158 0.567769 0)
(0.363691 0.587321 0)
(0.344725 0.606719 0)
(0.324469 0.625483 0)
(0.301283 0.642971 0)
(0.274889 0.659657 0)
(0.246541 0.677551 0)
(0.216548 0.696446 0)
(0.185338 0.718721 0)
(0.148159 0.744723 0)
(0.100157 0.770853 0)
(0.0384616 0.789327 0)
(3 -8.08373e-17 0)
(3 -1.86489e-16 0)
(3 -2.89277e-16 0)
(3 -3.11687e-16 0)
(3 -5.24365e-16 0)
(3 -6.23678e-16 0)
(3 -6.10652e-16 0)
(3 -3.92348e-16 0)
(3 -3.76635e-16 0)
(3 -8.17619e-16 0)
(3 -9.86596e-16 0)
(3 -1.40586e-15 0)
(3 -1.70793e-15 0)
(3 -1.76845e-15 0)
(3 -1.73342e-15 0)
(3 -2.0001e-15 0)
(3 -2.4524e-15 0)
(3 -2.51728e-15 0)
(3 -2.34246e-15 0)