/*--------------------------------*- C++ -*----------------------------------*\
  =========                 |
  \\      /  F ield         | OpenFOAM: The Open Source CFD Toolbox
   \\    /   O peration     | Website:  https://openfoam.org
    \\  /    A nd           | Version:  7
     \\/     M anipulation  |
\*---------------------------------------------------------------------------*/
FoamFile
{
    version     2.0;
    format      ascii;
    class       volScalarField;
    location    "7.4";
    object      T;
}
// * * * * * * * * * * * * * * * * * * * * * * * * * * * * * * * * * * * * * //

dimensions      [0 0 0 1 0 0 0];

internalField   nonuniform List<scalar> 
19968
(
1
1
1
1
1
1
1
1
1
1
1
1
1
1
1
1
1
1
1
1
1
1
1
1
1
1
1
1
1
1
1
1
1
1
1
1
1
1
1
1
1
1
1
1
1
1
1
1
1.28042
2.46248
2.68734
2.69013
2.69674
2.7025
2.70809
2.71258
2.71588
2.7183
2.72058
2.72348
2.7275
2.73253
2.73768
2.74185
2.74476
2.74699
2.74929
2.75222
2.75594
2.76003
2.76373
2.76654
2.76852
2.77018
2.77198
2.7742
2.77679
2.7795
2.78201
2.78422
2.78621
2.78818
2.79022
2.79231
2.79425
2.79589
2.79716
2.79816
2.79902
2.79986
2.8007
2.80146
2.80204
2.8024
2.80257
2.8027
1
1
1
1
1
1
1
1
1
1
1
1
1
1
1
1
1
1
1
1
1
1
1
1
1
1
1
1
1
1
1
1
1
1
1
1
1
1
1
1
1
1
1
1
1
1
1
1
1.26562
2.45374
2.68686
2.69095
2.6969
2.70254
2.7079
2.71223
2.71547
2.71797
2.72034
2.72333
2.72739
2.73238
2.73745
2.74157
2.74448
2.74672
2.74904
2.75198
2.75571
2.75979
2.76347
2.76626
2.76824
2.76991
2.77173
2.77396
2.77655
2.77924
2.78173
2.78391
2.78589
2.78785
2.78989
2.79196
2.7939
2.79553
2.7968
2.79778
2.79863
2.79944
2.80024
2.80097
2.80155
2.80193
2.80213
2.80228
1
1
1
1
1
1
1
1
1
1
1
1
1
1
1
1
1
1
1
1
1
1
1
1
1
1
1
1
1
1
1
1
1
1
1
1
1
1
1
1
1
1
1
1
1
1
1
1
1.23267
2.43429
2.6872
2.69099
2.69676
2.70202
2.70692
2.711
2.71427
2.71705
2.71975
2.72302
2.72715
2.73201
2.73691
2.74091
2.74382
2.7461
2.74848
2.75148
2.75523
2.75929
2.76293
2.7657
2.7677
2.7694
2.77124
2.77347
2.77604
2.7787
2.78116
2.78333
2.78531
2.78726
2.78929
2.79134
2.79326
2.79489
2.79617
2.79717
2.79801
2.79879
2.79955
2.80025
2.80083
2.80124
2.80149
2.80168
1
1
1
1
1
1
1
1
1
1
1
1
1
1
1
1
1
1
1
1
1
1
1
1
1
1
1
1
1
1
1
1
1
1
1
1
1
1
1
1
1
1
1
1
1
1
1
1
1.18465
2.40462
2.68748
2.69111
2.69636
2.70114
2.70554
2.7094
2.7128
2.71602
2.71925
2.72288
2.72703
2.73163
2.73621
2.74002
2.74292
2.74528
2.74776
2.75083
2.75457
2.75856
2.76213
2.76489
2.76693
2.7687
2.77059
2.77282
2.77534
2.77793
2.78035
2.7825
2.78447
2.7864
2.78838
2.79037
2.79224
2.79385
2.79511
2.7961
2.79691
2.79765
2.79837
2.79906
2.79967
2.80016
2.80049
2.80076
1
1
1
1
1
1
1
1
1
1
1
1
1
1
1
1
1
1
1
1
1
1
1
1
1
1
1
1
1
1
1
1
1
1
1
1
1
1
1
1
1
1
1
1
1
1
1
1
1.12172
2.36468
2.68803
2.69118
2.69585
2.70009
2.70409
2.70789
2.71155
2.71522
2.71888
2.72277
2.72688
2.73117
2.7354
2.73899
2.74191
2.74441
2.74703
2.75015
2.75382
2.75767
2.76113
2.76388
2.76603
2.7679
2.76986
2.77207
2.77453
2.77704
2.7794
2.78153
2.7835
2.78541
2.78735
2.78929
2.79111
2.79267
2.7939
2.79483
2.79556
2.7962
2.79682
2.79743
2.79801
2.79851
2.79888
2.79918
1
1
1
1
1
1
1
1
1
1
1
1
1
1
1
1
1
1
1
1
1
1
1
1
1
1
1
1
1
1
1
1
1
1
1
1
1
1
1
1
1
1
1
1
1
1
1
1
1.01014
2.30026
2.68749
2.69104
2.69532
2.6992
2.7031
2.70717
2.71132
2.71539
2.71926
2.72319
2.72717
2.73108
2.73482
2.73807
2.74096
2.7436
2.74635
2.74942
2.75289
2.75647
2.75972
2.76241
2.76463
2.7666
2.7686
2.77076
2.77309
2.77546
2.77771
2.77979
2.78173
2.78361
2.7855
2.7874
2.78919
2.79075
2.79199
2.79291
2.79363
2.79425
2.79486
2.79548
2.79609
2.79664
2.79705
2.79738
1
1
1
1
1
1
1
1
1
1
1
1
1
1
1
1
1
1
1
1
1
1
1
1
1
1
1
1
1
1
1
1
1
1
1
1
1
1
1
1
1
1
1
1
1
1
1
1
1.00005
2.21521
2.68303
2.68804
2.69177
2.69564
2.69969
2.70405
2.70854
2.71291
2.71698
2.72098
2.72486
2.72849
2.73193
2.73504
2.73807
2.74099
2.74396
2.74707
2.75041
2.75379
2.75692
2.75966
2.76203
2.76419
2.76629
2.76845
2.7707
2.77296
2.77512
2.77715
2.77906
2.78094
2.78283
2.78473
2.78653
2.7881
2.78935
2.79026
2.79096
2.79155
2.79215
2.79278
2.7934
2.79396
2.79437
2.7947
1
1
1
1
1
1
1
1
1
1
1
1
1
1
1
1
1
1
1
1
1
1
1
1
1
1
1
1
1
1
1
1
1
1
1
1
1
1
1
1
1
1
1
1
1
1
1
1
1
2.08902
2.67178
2.68457
2.68837
2.69265
2.69697
2.70135
2.7057
2.70998
2.71405
2.71801
2.72179
2.72528
2.72874
2.73198
2.73521
2.73833
2.74137
2.74443
2.74763
2.75088
2.75396
2.75675
2.75926
2.76155
2.76372
2.76588
2.76805
2.77018
2.77221
2.77414
2.77598
2.77782
2.7797
2.7816
2.78342
2.785
2.78622
2.7871
2.78774
2.78828
2.78884
2.78945
2.79006
2.79061
2.791
2.7913
1
1
1
1
1
1
1
1
1
1
1
1
1
1
1
1
1
1
1
1
1
1
1
1
1
1
1
1
1
1
1
1
1
1
1
1
1
1
1
1
1
1
1
1
1
1
1
1
1
1.91178
2.64099
2.67827
2.68294
2.68786
2.69249
2.69696
2.70124
2.7054
2.70939
2.71328
2.71706
2.72066
2.72432
2.72787
2.73132
2.73454
2.73754
2.74051
2.74359
2.74678
2.74984
2.75267
2.75527
2.75764
2.75987
2.76204
2.76417
2.76621
2.76813
2.76994
2.7717
2.77349
2.77535
2.77727
2.77912
2.78072
2.78196
2.78282
2.78343
2.78393
2.78447
2.78505
2.78566
2.78621
2.78659
2.78689
1
1
1
1
1
1
1
1
1
1
1
1
1
1
1
1
1
1
1
1
1
1
1
1
1
1
1
1
1
1
1
1
1
1
1
1
1
1
1
1
1
1
1
1
1
1
1
1
1
1.68078
2.58357
2.67199
2.67769
2.68295
2.68741
2.69181
2.69609
2.70019
2.7041
2.70791
2.71171
2.71549
2.71938
2.72322
2.72685
2.73011
2.73302
2.73589
2.7389
2.74205
2.74512
2.74795
2.75052
2.75285
2.75502
2.75711
2.75916
2.76112
2.76293
2.76463
2.7663
2.76803
2.76989
2.77184
2.77374
2.77539
2.77664
2.77747
2.77801
2.77841
2.77882
2.77929
2.77982
2.78034
2.7807
2.78099
1
1
1
1
1
1
1
1
1
1
1
1
1
1
1
1
1
1
1
1
1
1
1
1
1
1
1
1
1
1
1
1
1
1
1
1
1
1
1
1
1
1
1
1
1
1
1
1
1
1.37755
2.48072
2.67079
2.6724
2.67836
2.68223
2.68642
2.69065
2.69476
2.69868
2.70247
2.70624
2.71011
2.71404
2.71794
2.72159
2.72486
2.72772
2.73054
2.73352
2.73666
2.73978
2.74264
2.74518
2.74743
2.74951
2.75151
2.75348
2.75535
2.75704
2.75857
2.76004
2.76155
2.76317
2.76492
2.76665
2.76817
2.76932
2.77009
2.77056
2.77091
2.77126
2.77169
2.77221
2.77276
2.77317
2.7735
1
1
1
1
1
1
1
1
1
1
1
1
1
1
1
1
1
1
1
1
1
1
1
1
1
1
1
1
1
1
1
1
1
1
1
1
1
1
1
1
1
1
1
1
1
1
1
1
1
1.01557
2.29781
2.6787
2.67845
2.67967
2.682
2.68509
2.68861
2.69226
2.69584
2.69918
2.70231
2.70549
2.70876
2.71212
2.71545
2.71849
2.72114
2.72375
2.72657
2.72957
2.73264
2.73542
2.73787
2.74
2.74193
2.74383
2.74575
2.74763
2.74933
2.75083
2.7522
2.75357
2.75502
2.75661
2.75823
2.75967
2.76076
2.76141
2.76167
2.76172
2.76169
2.76167
2.76178
2.76202
2.76226
2.76252
1
1
1
1
1
1
1
1
1
1
1
1
1
1
1
1
1
1
1
1
1
1
1
1
1
1
1
1
1
1
1
1
1
1
1
1
1
1
1
1
1
1
1
1
1
1
1
1
1
1.00003
2.01701
2.64554
2.66195
2.66612
2.67128
2.67575
2.67987
2.68379
2.68748
2.69087
2.6939
2.69684
2.69986
2.70291
2.70593
2.70881
2.71141
2.71397
2.71681
2.71984
2.72294
2.72573
2.72813
2.73018
2.73203
2.73386
2.73576
2.73765
2.73938
2.74083
2.74206
2.74317
2.74427
2.74541
2.74656
2.74753
2.7481
2.74825
2.74807
2.74773
2.74745
2.74739
2.74751
2.74771
2.74776
2.74793
1
1
1
1
1
1
1
1
1
1
1
1
1
1
1
1
1
1
1
1
1
1
1
1
1
1
1
1
1
1
1
1
1
1
1
1
1
1
1
1
1
1
1
1
1
1
1
1
1
1
1.54515
2.51409
2.64697
2.65448
2.66226
2.66782
2.67245
2.67658
2.68042
2.68401
2.68725
2.6902
2.69308
2.69581
2.69836
2.7008
2.70311
2.70541
2.70803
2.7109
2.71375
2.71628
2.71833
2.72004
2.72158
2.72311
2.72472
2.7264
2.72793
2.72913
2.73002
2.73069
2.73122
2.73178
2.73243
2.73303
2.73332
2.73316
2.73261
2.73175
2.73074
2.72969
2.7282
2.7261
2.72353
2.72146
1
1
1
1
1
1
1
1
1
1
1
1
1
1
1
1
1
1
1
1
1
1
1
1
1
1
1
1
1
1
1
1
1
1
1
1
1
1
1
1
1
1
1
1
1
1
1
1
1
1
1.02798
2.25039
2.65569
2.65557
2.65776
2.66102
2.66421
2.66739
2.6707
2.67414
2.6776
2.68077
2.68363
2.6862
2.68842
2.69045
2.69243
2.69444
2.69674
2.69938
2.70196
2.70422
2.70594
2.70728
2.7085
2.7097
2.71091
2.71218
2.71336
2.71422
2.71453
2.71443
2.71412
2.71373
2.71339
2.71297
2.7121
2.71042
2.70776
2.70429
2.70045
2.69669
2.69349
2.69027
2.68796
2.68678
1
1
1
1
1
1
1
1
1
1
1
1
1
1
1
1
1
1
1
1
1
1
1
1
1
1
1
1
1
1
1
1
1
1
1
1
1
1
1
1
1
1
1
1
1
1
1
1
1
1
1.00005
1.75245
2.55641
2.63713
2.64233
2.64638
2.64953
2.65272
2.65618
2.65996
2.6639
2.66774
2.67121
2.67424
2.67679
2.6789
2.68077
2.68255
2.68442
2.68655
2.68873
2.69063
2.69207
2.6932
2.69413
2.69469
2.69526
2.69584
2.69632
2.69644
2.69605
2.69498
2.69333
2.69141
2.68945
2.68741
2.68496
2.68167
2.67726
2.67188
2.66591
2.66001
2.65476
2.65289
2.65057
2.66516
1
1
1
1
1
1
1
1
1
1
1
1
1
1
1
1
1
1
1
1
1
1
1
1
1
1
1
1
1
1
1
1
1
1
1
1
1
1
1
1
1
1
1
1
1
1
1
1
1
1
1
1.10308
2.33402
2.63342
2.63352
2.63611
2.63917
2.64182
2.64457
2.64785
2.65168
2.65575
2.65958
2.66282
2.66549
2.66768
2.66955
2.67125
2.67276
2.67435
2.67612
2.67766
2.67889
2.67985
2.68024
2.68021
2.68013
2.67996
2.67961
2.67889
2.67762
2.67558
2.67269
2.66914
2.66516
2.66089
2.65597
2.64984
2.64152
2.6304
2.61507
2.59457
2.56475
2.52256
2.45945
2.33186
1
1
1
1
1
1
1
1
1
1
1
1
1
1
1
1
1
1
1
1
1
1
1
1
1
1
1
1
1
1
1
1
1
1
1
1
1
1
1
1
1
1
1
1
1
1
1
1
1
1
1
1.00084
2.00894
2.60745
2.61558
2.61947
2.62385
2.6277
2.6312
2.63493
2.63904
2.64315
2.6469
2.65003
2.65272
2.65527
2.65765
2.65965
2.66125
2.66276
2.66418
2.66554
2.66665
2.66741
2.6673
2.66699
2.66651
2.66574
2.66455
2.66289
2.66071
2.65782
2.65398
2.6491
2.6432
2.63653
2.62872
2.61942
2.60704
2.5909
2.56816
2.53779
2.49349
2.43477
2.32562
2.16421
1
1
1
1
1
1
1
1
1
1
1
1
1
1
1
1
1
1
1
1
1
1
1
1
1
1
1
1
1
1
1
1
1
1
1
1
1
1
1
1
1
1
1
1
1
1
1
1
1
1
1
0.999999
1.40175
2.44229
2.59885
2.60626
2.61195
2.61517
2.61856
2.62241
2.62678
2.6312
2.63504
2.63812
2.64058
2.64303
2.64549
2.64751
2.64922
2.65078
2.65206
2.65313
2.654
2.65441
2.65411
2.65346
2.65255
2.65118
2.64915
2.64645
2.64311
2.63913
2.63421
2.62811
2.62047
2.61152
2.60083
2.58833
2.57246
2.55223
2.52502
2.48819
2.43926
2.366
2.26282
2.13432
1
1
1
1
1
1
1
1
1
1
1
1
1
1
1
1
1
1
1
1
1
1
1
1
1
1
1
1
1
1
1
1
1
1
1
1
1
1
1
1
1
1
1
1
1
1
1
1
1
1
1
1
1.0159
2.13271
2.60141
2.59947
2.59976
2.60162
2.60467
2.60844
2.61315
2.61837
2.62261
2.62569
2.62778
2.62957
2.63149
2.63328
2.63517
2.63698
2.6384
2.63939
2.63995
2.64005
2.63962
2.63871
2.63742
2.6356
2.63298
2.62947
2.62506
2.61993
2.61383
2.60659
2.59758
2.58686
2.574
2.55882
2.54036
2.51726
2.48789
2.44896
2.39889
2.33209
2.24566
2.14831
1
1
1
1
1
1
1
1
1
1
1
1
1
1
1
1
1
1
1
1
1
1
1
1
1
1
1
1
1
1
1
1
1
1
1
1
1
1
1
1
1
1
1
1
1
1
1
1
1
1
1
1
1.00001
1.48061
2.45396
2.58533
2.58814
2.59161
2.5938
2.59651
2.60055
2.6057
2.61005
2.61346
2.61541
2.61652
2.6176
2.61894
2.62064
2.62244
2.62387
2.62472
2.625
2.6249
2.62438
2.6233
2.6216
2.61928
2.61615
2.61213
2.60702
2.60099
2.59384
2.58547
2.57533
2.56329
2.54907
2.53228
2.51229
2.48788
2.45794
2.41989
2.37339
2.31667
2.24955
2.16954
1
1
1
1
1
1
1
1
1
1
1
1
1
1
1
1
1
1
1
1
1
1
1
1
1
1
1
1
1
1
1
1
1
1
1
1
1
1
1
1
1
1
1
1
1
1
1
1
1
1
1
1
1
1.02286
2.12996
2.58228
2.58325
2.58456
2.58645
2.58849
2.59158
2.59557
2.59908
2.60154
2.60276
2.60298
2.6034
2.60425
2.60579
2.60761
2.60901
2.60956
2.60949
2.60919
2.60844
2.6071
2.605
2.6022
2.59863
2.59428
2.58885
2.58233
2.57448
2.56518
2.5541
2.54117
2.52625
2.50883
2.4885
2.46403
2.43504
2.39959
2.35767
2.31066
2.25557
2.1932
1
1
1
1
1
1
1
1
1
1
1
1
1
1
1
1
1
1
1
1
1
1
1
1
1
1
1
1
1
1
1
1
1
1
1
1
1
1
1
1
1
1
1
1
1
1
1
1
1
1
1
1
1
1.00003
1.41761
2.41321
2.57454
2.57379
2.57633
2.57911
2.58291
2.58638
2.589
2.5902
2.59026
2.58976
2.58948
2.58974
2.59087
2.59248
2.59367
2.59378
2.59343
2.59277
2.5917
2.59013
2.58778
2.58463
2.58065
2.576
2.57049
2.5639
2.55581
2.54605
2.53444
2.52104
2.5058
2.4883
2.46851
2.44459
2.41784
2.38528
2.34847
2.30767
2.26122
2.21084
1
1
1
1
1
1
1
1
1
1
1
1
1
1
1
1
1
1
1
1
1
1
1
1
1
1
1
1
1
1
1
1
1
1
1
1
1
1
1
1
1
1
1
1
1
1
1
1
1
1
1
1
1
1
1.01577
2.04051
2.55412
2.56625
2.56703
2.56998
2.57387
2.57735
2.57965
2.58015
2.57973
2.57861
2.57756
2.57734
2.57789
2.57876
2.57936
2.5791
2.57815
2.57678
2.57504
2.57301
2.57041
2.56699
2.56266
2.55773
2.55216
2.54558
2.53743
2.52757
2.5159
2.50252
2.48746
2.47031
2.45136
2.4286
2.40401
2.37514
2.34267
2.30754
2.26731
2.22487
1
1
1
1
1
1
1
1
1
1
1
1
1
1
1
1
1
1
1
1
1
1
1
1
1
1
1
1
1
1
1
1
1
1
1
1
1
1
1
1
1
1
1
1
1
1
1
1
1
1
1
1
1
1
1.00002
1.22711
2.33671
2.56021
2.55663
2.55942
2.56261
2.56583
2.5679
2.56826
2.56783
2.5667
2.56534
2.56476
2.56499
2.56504
2.56499
2.56442
2.56284
2.56073
2.55825
2.55574
2.55296
2.54941
2.54484
2.53967
2.53396
2.52732
2.51922
2.5095
2.49817
2.48523
2.47086
2.45439
2.4365
2.41523
2.39259
2.36721
2.33808
2.30717
2.27191
2.23581
1
1
1
1
1
1
1
1
1
1
1
1
1
1
1
1
1
1
1
1
1
1
1
1
1
1
1
1
1
1
1
1
1
1
1
1
1
1
1
1
1
1
1
1
1
1
1
1
1
1
1
1
1
1
1
1.0037
1.84812
2.49538
2.53449
2.54391
2.54974
2.55237
2.5543
2.55514
2.555
2.55429
2.5531
2.55238
2.55246
2.55216
2.55174
2.55081
2.54874
2.54593
2.54255
2.53932
2.53605
2.53228
2.52761
2.52231
2.51627
2.50934
2.50119
2.49156
2.4807
2.46846
2.45521
2.43974
2.4233
2.40381
2.38309
2.36036
2.33372
2.30627
2.27599
2.24433
1
1
1
1
1
1
1
1
1
1
1
1
1
1
1
1
1
1
1
1
1
1
1
1
1
1
1
1
1
1
1
1
1
1
1
1
1
1
1
1
1
1
1
1
1
1
1
1
1
1
1
1
1
1
1
1
1.09993
2.18993
2.53405
2.53655
2.53822
2.53911
2.54042
2.54165
2.54218
2.54201
2.54133
2.5407
2.54069
2.54017
2.53948
2.53823
2.53583
2.53248
2.52827
2.52418
2.5202
2.51603
2.51132
2.50611
2.4996
2.49234
2.48406
2.47446
2.46399
2.45241
2.44021
2.42579
2.41102
2.39347
2.37457
2.35363
2.32926
2.30524
2.27898
2.25058
1
1
1
1
1
1
1
1
1
1
1
1
1
1
1
1
1
1
1
1
1
1
1
1
1
1
1
1
1
1
1
1
1
1
1
1
1
1
1
1
1
1
1
1
1
1
1
1
1
1
1
1
1
1
1
1
1.00066
1.44227
2.36114
2.51683
2.5167
2.5199
2.52267
2.52499
2.52657
2.52722
2.52725
2.52718
2.52753
2.52721
2.52651
2.52523
2.52286
2.51944
2.51495
2.5102
2.50561
2.50085
2.49577
2.49041
2.4839
2.47647
2.46812
2.45861
2.44831
2.43707
2.4256
2.41221
2.39897
2.38321
2.36593
2.34682
2.32548
2.304
2.28039
2.25509
1
1
1
1
1
1
1
1
1
1
1
1
1
1
1
1
1
1
1
1
1
1
1
1
1
1
1
1
1
1
1
1
1
1
1
1
1
1
1
1
1
1
1
1
1
1
1
1
1
1
1
1
1
1
1
1
1
1.01763
1.89207
2.47268
2.50058
2.50575
2.5083
2.50985
2.51138
2.51222
2.51266
2.51294
2.51362
2.51357
2.51293
2.5117
2.50956
2.50634
2.50204
2.49713
2.49227
2.48726
2.4817
2.4759
2.46952
2.46192
2.45368
2.44452
2.43447
2.42336
2.41222
2.39966
2.38716
2.37251
2.35672
2.33971
2.32113
2.30146
2.28024
2.25808
1
1
1
1
1
1
1
1
1
1
1
1
1
1
1
1
1
1
1
1
1
1
1
1
1
1
1
1
1
1
1
1
1
1
1
1
1
1
1
1
1
1
1
1
1
1
1
1
1
1
1
1
1
1
1
1
1
1.00003
1.1175
2.12412
2.48291
2.49816
2.49609
2.49692
2.49767
2.49826
2.49883
2.49917
2.49979
2.4998
2.49922
2.49793
2.49588
2.49285
2.48875
2.48409
2.47927
2.47454
2.46881
2.46282
2.45625
2.44881
2.44047
2.43158
2.42191
2.41125
2.40032
2.38822
2.37582
2.36183
2.34743
2.33216
2.31562
2.29775
2.27905
2.25917
1
1
1
1
1
1
1
1
1
1
1
1
1
1
1
1
1
1
1
1
1
1
1
1
1
1
1
1
1
1
1
1
1
1
1
1
1
1
1
1
1
1
1
1
1
1
1
1
1
1
1
1
1
1
1
1
1
1
1.00093
1.26711
2.27063
2.4816
2.48015
2.48055
2.48068
2.48131
2.48236
2.48332
2.48431
2.4847
2.48429
2.48321
2.48133
2.47864
2.47492
2.47063
2.46613
2.46176
2.45636
2.45053
2.44407
2.43692
2.42882
2.4201
2.41091
2.4009
2.38998
2.37814
2.36582
2.35232
2.33886
2.32457
2.30949
2.29337
2.27662
2.25857
1
1
1
1
1
1
1
1
1
1
1
1
1
1
1
1
1
1
1
1
1
1
1
1
1
1
1
1
1
1
1
1
1
1
1
1
1
1
1
1
1
1
1
1
1
1
1
1
1
1
1
1
1
1
1
1
1
1
1
1.00514
1.65742
2.37755
2.45729
2.45462
2.45615
2.45834
2.4612
2.46373
2.46605
2.46761
2.46776
2.46728
2.46591
2.46347
2.46028
2.45643
2.45243
2.4484
2.44369
2.43832
2.43237
2.42566
2.41806
2.40978
2.40091
2.39121
2.38038
2.3689
2.35681
2.34392
2.33124
2.31771
2.30348
2.28876
2.27323
2.25687
1
1
1
1
1
1
1
1
1
1
1
1
1
1
1
1
1
1
1
1
1
1
1
1
1
1
1
1
1
1
1
1
1
1
1
1
1
1
1
1
1
1
1
1
1
1
1
1
1
1
1
1
1
1
1
1
1
1
1
1.00001
1.04896
1.90856
2.41726
2.44389
2.44342
2.44523
2.44695
2.44859
2.45013
2.45133
2.45151
2.45111
2.45001
2.44788
2.44504
2.44201
2.43822
2.43461
2.43048
2.42569
2.42038
2.41435
2.4075
2.39994
2.39143
2.38197
2.37154
2.36063
2.34903
2.33684
2.32475
2.31186
2.2983
2.28459
2.26979
2.25481
1
1
1
1
1
1
1
1
1
1
1
1
1
1
1
1
1
1
1
1
1
1
1
1
1
1
1
1
1
1
1
1
1
1
1
1
1
1
1
1
1
1
1
1
1
1
1
1
1
1
1
1
1
1
1
1
1
1
1
1
1.00021
1.13223
2.02565
2.41147
2.43504
2.43758
2.43818
2.43782
2.43747
2.4371
2.43651
2.4355
2.43404
2.43193
2.42921
2.42656
2.42327
2.41999
2.41629
2.41211
2.40746
2.40217
2.39616
2.38938
2.38148
2.37242
2.36265
2.35252
2.34169
2.33027
2.31869
2.30641
2.29372
2.28083
2.26681
2.25297
1
1
1
1
1
1
1
1
1
1
1
1
1
1
1
1
1
1
1
1
1
1
1
1
1
1
1
1
1
1
1
1
1
1
1
1
1
1
1
1
1
1
1
1
1
1
1
1
1
1
1
1
1
1
1
1
1
1
1
1
1
1.00122
1.21236
2.10251
2.39809
2.42914
2.42843
2.42779
2.42675
2.42533
2.42374
2.42197
2.41989
2.41736
2.41459
2.41188
2.40888
2.40569
2.40217
2.39833
2.3941
2.38935
2.38403
2.37795
2.37074
2.36231
2.35328
2.344
2.33405
2.32347
2.3125
2.30097
2.28929
2.27723
2.2642
2.25137
1
1
1
1
1
1
1
1
1
1
1
1
1
1
1
1
1
1
1
1
1
1
1
1
1
1
1
1
1
1
1
1
1
1
1
1
1
1
1
1
1
1
1
1
1
1
1
1
1
1
1
1
1
1
1
1
1
1
1
1
1
1
1.00317
1.29476
2.1548
2.38969
2.41039
2.41329
2.41315
2.4125
2.41116
2.40936
2.40701
2.40428
2.40146
2.39854
2.3954
2.39205
2.38848
2.38471
2.38063
2.37613
2.37112
2.36541
2.35875
2.35101
2.34271
2.33419
2.32512
2.31544
2.30533
2.29485
2.28432
2.27321
2.26128
2.24943
1
1
1
1
1
1
1
1
1
1
1
1
1
1
1
1
1
1
1
1
1
1
1
1
1
1
1
1
1
1
1
1
1
1
1
1
1
1
1
1
1
1
1
1
1
1
1
1
1
1
1
1
1
1
1
1
1
1
1
1
1
1
1
1.00644
1.37741
2.19466
2.37653
2.39072
2.39482
2.39569
2.39564
2.39482
2.39314
2.39102
2.38854
2.38578
2.3828
2.37955
2.37603
2.37227
2.36817
2.36361
2.35849
2.35279
2.34641
2.33926
2.33158
2.32363
2.31532
2.30661
2.29747
2.28812
2.27862
2.26838
2.25748
2.24648
1
1
1
1
1
1
1
1
1
1
1
1
1
1
1
1
1
1
1
1
1
1
1
1
1
1
1
1
1
1
1
1
1
1
1
1
1
1
1
1
1
1
1
1
1
1
1
1
1
1
1
1
1
1
1
1
1
1
1
1
1
1
1
1.00001
1.01162
1.45153
2.22671
2.36714
2.37042
2.37332
2.37465
2.37546
2.37518
2.3743
2.37285
2.37109
2.36895
2.3664
2.36338
2.35989
2.3559
2.35131
2.34611
2.34038
2.33414
2.32736
2.32014
2.31266
2.30493
2.29697
2.28856
2.28006
2.27139
2.26192
2.25195
2.24179
1
1
1
1
1
1
1
1
1
1
1
1
1
1
1
1
1
1
1
1
1
1
1
1
1
1
1
1
1
1
1
1
1
1
1
1
1
1
1
1
1
1
1
1
1
1
1
1
1
1
1
1
1
1
1
1
1
1
1
1
1
1
1
1
1.00003
1.01843
1.55212
2.25323
2.35428
2.35295
2.3542
2.35422
2.35431
2.35443
2.3543
2.35385
2.35293
2.35143
2.34927
2.34643
2.34288
2.33865
2.33375
2.32828
2.32232
2.31592
2.30912
2.30198
2.29451
2.28693
2.27888
2.27084
2.26278
2.25403
2.24526
2.23624
1
1
1
1
1
1
1
1
1
1
1
1
1
1
1
1
1
1
1
1
1
1
1
1
1
1
1
1
1
1
1
1
1
1
1
1
1
1
1
1
1
1
1
1
1
1
1
1
1
1
1
1
1
1
1
1
1
1
1
1
1
1
1
1
1
1.00005
1.03183
1.61697
2.26357
2.34148
2.33871
2.33698
2.33611
2.3355
2.33532
2.33517
2.33483
2.33414
2.3329
2.331
2.32834
2.32494
2.32081
2.31602
2.31067
2.30474
2.29834
2.29147
2.28418
2.27676
2.269
2.26134
2.25414
2.24637
2.24058
2.23559
1
1
1
1
1
1
1
1
1
1
1
1
1
1
1
1
1
1
1
1
1
1
1
1
1
1
1
1
1
1
1
1
1
1
1
1
1
1
1
1
1
1
1
1
1
1
1
1
1
1
1
1
1
1
1
1
1
1
1
1
1
1
1
1
1
1
1.00012
1.04432
1.63686
2.25655
2.32894
2.32596
2.3238
2.32198
2.32042
2.3191
2.31787
2.3166
2.31526
2.31367
2.31167
2.30912
2.30594
2.30206
2.29754
2.29228
2.28643
2.2799
2.27309
2.26613
2.25928
2.253
2.24893
2.24757
2.24929
2.25337
1
1
1
1
1
1
1
1
1
1
1
1
1
1
1
1
1
1
1
1
1
1
1
1
1
1
1
1
1
1
1
1
1
1
1
1
1
1
1
1
1
1
1
1
1
1
1
1
1
1
1
1
1
1
1
1
1
1
1
1
1
1
1
1
1
1
1
1.00022
1.04962
1.62236
2.2389
2.31768
2.31531
2.31289
2.31012
2.30732
2.30459
2.30194
2.29946
2.2971
2.29478
2.2923
2.28947
2.28616
2.28218
2.27758
2.27251
2.26688
2.26163
2.25682
2.25495
2.25736
2.26104
2.27174
2.2857
2.30133
1
1
1
1
1
1
1
1
1
1
1
1
1
1
1
1
1
1
1
1
1
1
1
1
1
1
1
1
1
1
1
1
1
1
1
1
1
1
1
1
1
1
1
1
1
1
1
1
1
1
1
1
1
1
1
1
1
1
1
1
1
1
1
1
1
1
1
1
1.00027
1.04723
1.60296
2.21698
2.30534
2.3039
2.30087
2.29773
2.29419
2.29078
2.28737
2.28391
2.28053
2.27711
2.27344
2.26975
2.26566
2.26166
2.25776
2.25472
2.25616
2.2604
2.27034
2.28631
2.3031
2.32303
2.33486
2.34384
1
1
1
1
1
1
1
1
1
1
1
1
1
1
1
1
1
1
1
1
1
1
1
1
1
1
1
1
1
1
1
1
1
1
1
1
1
1
1
1
1
1
1
1
1
1
1
1
1
1
1
1
1
1
1
1
1
1
1
1
1
1
1
1
1
1
1
1
1
1.00025
1.04337
1.57189
2.1879
2.29208
2.29162
2.28847
2.28518
2.28144
2.27771
2.27374
2.26953
2.265
2.26006
2.25556
2.25096
2.24933
2.2524
2.25909
2.27372
2.29426
2.31734
2.33685
2.3512
2.36305
2.36076
2.35812
1
1
1
1
1
1
1
1
1
1
1
1
1
1
1
1
1
1
1
1
1
1
1
1
1
1
1
1
1
1
1
1
1
1
1
1
1
1
1
1
1
1
1
1
1
1
1
1
1
1
1
1
1
1
1
1
1
1
1
1
1
1
1
1
1
1
1
1
1
1
1.00022
1.03735
1.5262
2.1511
2.27435
2.27892
2.27574
2.27259
2.26881
2.26459
2.26003
2.2549
2.24958
2.24679
2.24929
2.25744
2.2751
2.29918
2.32665
2.34686
2.35851
2.36985
2.37017
2.36578
2.3598
2.35598
1
1
1
1
1
1
1
1
1
1
1
1
1
1
1
1
1
1
1
1
1
1
1
1
1
1
1
1
1
1
1
1
1
1
1
1
1
1
1
1
1
1
1
1
1
1
1
1
1
1
1
1
1
1
1
1
1
1
1
1
1
1
1
1
1
1
1
1
1
1
1
1.00018
1.02957
1.46825
2.09798
2.25271
2.26715
2.26308
2.25976
2.25515
2.25054
2.24749
2.24981
2.25887
2.27869
2.30699
2.3372
2.36159
2.37304
2.37783
2.37688
2.37532
2.3699
2.36184
2.35645
2.35289
1
1
1
1
1
1
1
1
1
1
1
1
1
1
1
1
1
1
1
1
1
1
1
1
1
1
1
1
1
1
1
1
1
1
1
1
1
1
1
1
1
1
1
1
1
1
1
1
1
1
1
1
1
1
1
1
1
1
1
1
1
1
1
1
1
1
1
1
1
1
1
1
1.00012
1.02154
1.39607
2.02412
2.22542
2.25536
2.24793
2.24325
2.24547
2.25779
2.28291
2.31778
2.35115
2.37547
2.38756
2.39364
2.38973
2.38549
2.38085
2.3751
2.36747
2.36052
2.35701
2.35367
1
1
1
1
1
1
1
1
1
1
1
1
1
1
1
1
1
1
1
1
1
1
1
1
1
1
1
1
1
1
1
1
1
1
1
1
1
1
1
1
1
1
1
1
1
1
1
1
1
1
1
1
1
1
1
1
1
1
1
1
1
1
1
1
1
1
1
1
1
1
1
1
1
1.00008
1.0141
1.3129
1.91058
2.20374
2.23123
2.25045
2.27782
2.32051
2.36202
2.38872
2.40159
2.40763
2.40267
2.39565
2.3888
2.3845
2.37986
2.37363
2.36641
2.36189
2.35953
2.35551
1
1
1
1
1
1
1
1
1
1
1
1
1
1
1
1
1
1
1
1
1
1
1
1
1
1
1
1
1
1
1
1
1
1
1
1
1
1
1
1
1
1
1
1
1
1
1
1
1
1
1
1
1
1
1
1
1
1
1
1
1
1
1
1
1
1
1
1
1
1
1
1
1
1
1.00004
1.00817
1.2169
1.79198
2.1711
2.30683
2.353
2.38559
2.39965
2.40555
2.40275
2.40126
2.39618
2.39049
2.38557
2.38234
2.3781
2.37175
2.36598
2.36371
2.36136
2.35647
1
1
1
1
1
1
1
1
1
1
1
1
1
1
1
1
1
1
1
1
1
1
1
1
1
1
1
1
1
1
1
1
1
1
1
1
1
1
1
1
1
1
1
1
1
1
1
1
1
1
1
1
1
1
1
1
1
1
1
1
1
1
1
1
1
1
1
1
1
1
1
1
1
1
1
1.00002
1.00405
1.12942
1.97632
2.4541
2.44628
2.43614
2.42566
2.4161
2.40678
2.39983
2.39225
2.38543
2.38067
2.37779
2.37381
2.36932
2.36648
2.3653
2.36254
2.35729
1
1
1
1
1
1
1
1
1
1
1
1
1
1
1
1
1
1
1
1
1
1
1
1
1
1
1
1
1
1
1
1
1
1
1
1
1
1
1
1
1
1
1
1
1
1
1
1
1
1
1
1
1
1
1
1
1
1
1
1
1
1
1
1
1
1
1
1
1
1
1
1
1
1
1
1
1.00001
1.00141
1.67796
2.56013
2.54563
2.51464
2.48474
2.45914
2.43807
2.42226
2.40925
2.39777
2.38871
2.38254
2.37677
2.37111
2.36726
2.36503
2.36144
2.35681
1
1
1
1
1
1
1
1
1
1
1
1
1
1
1
1
1
1
1
1
1
1
1
1
1
1
1
1
1
1
1
1
1
1
1
1
1
1
1
1
1
1
1
1
1
1
1
1
1
1
1
1
1
1
1
1
1
1
1
1
1
1
1
1
1
1
1
1
1
1
1
1
1
1
1
1
1
1
1.22449
2.43675
2.62357
2.59415
2.56484
2.53434
2.50557
2.47872
2.4549
2.4353
2.41973
2.40889
2.3997
2.39029
2.38256
2.37682
2.37033
2.364
1
1
1
1
1
1
1
1
1
1
1
1
1
1
1
1
1
1
1
1
1
1
1
1
1
1
1
1
1
1
1
1
1
1
1
1
1
1
1
1
1
1
1
1
1
1
1
1
1
1
1
1
1
1
1
1
1
1
1
1
1
1
1
1
1
1
1
1
1
1
1
1
1
1
1
1
1
1
1.00411
2.14849
2.64739
2.64076
2.62711
2.60837
2.58577
2.56182
2.53701
2.51352
2.49198
2.47244
2.45526
2.43865
2.42489
2.41257
2.40063
2.3893
1
1
1
1
1
1
1
1
1
1
1
1
1
1
1
1
1
1
1
1
1
1
1
1
1
1
1
1
1
1
1
1
1
1
1
1
1
1
1
1
1
1
1
1
1
1
1
1
1
1
1
1
1
1
1
1
1
1
1
1
1
1
1
1
1
1
1
1
1
1
1
1
1
1
1
1
1
1
1
1.64935
2.54097
2.64214
2.63669
2.63171
2.62478
2.61316
2.59958
2.58267
2.56403
2.54379
2.5234
2.50327
2.48417
2.46598
2.44859
2.43284
1
1
1
1
1
1
1
1
1
1
1
1
1
1
1
1
1
1
1
1
1
1
1
1
1
1
1
1
1
1
1
1
1
1
1
1
1
1
1
1
1
1
1
1
1
1
1
1
1
1
1
1
1
1
1
1
1
1
1
1
1
1
1
1
1
1
1
1
1
1
1
1
1
1
1
1
1
1
1
1.05518
2.3283
2.64879
2.64374
2.6396
2.63552
2.63165
2.62608
2.61827
2.60829
2.59596
2.58188
2.56634
2.55018
2.53312
2.51557
2.49872
1
1
1
1
1
1
1
1
1
1
1
1
1
1
1
1
1
1
1
1
1
1
1
1
1
1
1
1
1
1
1
1
1
1
1
1
1
1
1
1
1
1
1
1
1
1
1
1
1
1
1
1
1
1
1
1
1
1
1
1
1
1
1
1
1
1
1
1
1
1
1
1
1
1
1
1
1
1
1
1.00019
2.04184
2.61075
2.63411
2.63347
2.63309
2.63084
2.62804
2.62481
2.62094
2.61592
2.60945
2.6013
2.59152
2.58054
2.56848
2.55595
1
1
1
1
1
1
1
1
1
1
1
1
1
1
1
1
1
1
1
1
1
1
1
1
1
1
1
1
1
1
1
1
1
1
1
1
1
1
1
1
1
1
1
1
1
1
1
1
1
1
1
1
1
1
1
1
1
1
1
1
1
1
1
1
1
1
1
1
1
1
1
1
1
1
1
1
1
1
1
1
1.59408
2.50951
2.64064
2.63659
2.63546
2.63339
2.63148
2.62958
2.62737
2.62463
2.62112
2.61668
2.61083
2.6041
2.5968
2.5889
1
1
1
1
1
1
1
1
1
1
1
1
1
1
1
1
1
1
1
1
1
1
1
1
1
1
1
1
1
1
1
1
1
1
1
1
1
1
1
1
1
1
1
1
1
1
1
1
1
1
1
1
1
1
1
1
1
1
1
1
1
1
1
1
1
1
1
1
1
1
1
1
1
1
1
1
1
1
1
1
1.0763
2.33687
2.64457
2.63892
2.63512
2.63285
2.63117
2.6294
2.62733
2.625
2.62232
2.61928
2.61594
2.61214
2.60779
2.60267
1
1
1
1
1
1
1
1
1
1
1
1
1
1
1
1
1
1
1
1
1
1
1
1
1
1
1
1
1
1
1
1
1
1
1
1
1
1
1
1
1
1
1
1
1
1
1
1
1
1
1
1
1
1
1
1
1
1
1
1
1
1
1
1
1
1
1
1
1
1
1
1
1
1
1
1
1
1
1
1
1.00042
2.11192
2.63915
2.64116
2.6387
2.63664
2.63407
2.63153
2.62898
2.62648
2.62388
2.6211
2.61826
2.61511
2.61177
2.60815
1
1
1
1
1
1
1
1
1
1
1
1
1
1
1
1
1
1
1
1
1
1
1
1
1
1
1
1
1
1
1
1
1
1
1
1
1
1
1
1
1
1
1
1
1
1
1
1
1
1
1
1
1
1
1
1
1
1
1
1
1
1
1
1
1
1
1
1
1
1
1
1
1
1
1
1
1
1
1
1
1
1.76142
2.58036
2.64789
2.6431
2.64021
2.63689
2.63382
2.6309
2.62803
2.62521
2.62232
2.61946
2.61649
2.61345
2.61025
1
1
1
1
1
1
1
1
1
1
1
1
1
1
1
1
1
1
1
1
1
1
1
1
1
1
1
1
1
1
1
1
1
1
1
1
1
1
1
1
1
1
1
1
1
1
1
1
1
1
1
1
1
1
1
1
1
1
1
1
1
1
1
1
1
1
1
1
1
1
1
1
1
1
1
1
1
1
1
1
1
1.34064
2.45423
2.65475
2.64894
2.64591
2.64229
2.63865
2.63506
2.63163
2.62839
2.62521
2.62213
2.61906
2.61595
2.61275
1
1
1
1
1
1
1
1
1
1
1
1
1
1
1
1
1
1
1
1
1
1
1
1
1
1
1
1
1
1
1
1
1
1
1
1
1
1
1
1
1
1
1
1
1
1
1
1
1
1
1
1
1
1
1
1
1
1
1
1
1
1
1
1
1
1
1
1
1
1
1
1
1
1
1
1
1
1
1
1
1
1.01248
2.30219
2.66676
2.66108
2.65444
2.64931
2.64465
2.64032
2.63621
2.63236
2.62872
2.62524
2.62189
2.61857
2.61526
1
1
1
1
1
1
1
1
1
1
1
1
1
1
1
1
1
1
1
1
1
1
1
1
1
1
1
1
1
1
1
1
1
1
1
1
1
1
1
1
1
1
1
1
1
1
1
1
1
1
1
1
1
1
1
1
1
1
1
1
1
1
1
1
1
1
1
1
1
1
1
1
1
1
1
1
1
1
1
1
1
1.00001
2.09508
2.65793
2.66123
2.65758
2.65437
2.65024
2.64609
2.64188
2.63775
2.63379
2.62994
2.62623
2.62261
2.61906
1
1
1
1
1
1
1
1
1
1
1
1
1
1
1
1
1
1
1
1
1
1
1
1
1
1
1
1
1
1
1
1
1
1
1
1
1
1
1
1
1
1
1
1
1
1
1
1
1
1
1
1
1
1
1
1
1
1
1
1
1
1
1
1
1
1
1
1
1
1
1
1
1
1
1
1
1
1
1
1
1
1
1.83404
2.61076
2.66486
2.65995
2.65719
2.65365
2.65016
2.64651
2.64272
2.63884
2.63491
2.63098
2.62709
2.62327
1
1
1
1
1
1
1
1
1
1
1
1
1
1
1
1
1
1
1
1
1
1
1
1
1
1
1
1
1
1
1
1
1
1
1
1
1
1
1
1
1
1
1
1
1
1
1
1
1
1
1
1
1
1
1
1
1
1
1
1
1
1
1
1
1
1
1
1
1
1
1
1
1
1
1
1
1
1
1
1
1
1
1.53114
2.52752
2.66665
2.66133
2.65947
2.65696
2.65426
2.65122
2.64789
2.6443
2.64053
2.63666
2.63273
2.62878
1
1
1
1
1
1
1
1
1
1
1
1
1
1
1
1
1
1
1
1
1
1
1
1
1
1
1
1
1
1
1
1
1
1
1
1
1
1
1
1
1
1
1
1
1
1
1
1
1
1
1
1
1
1
1
1
1
1
1
1
1
1
1
1
1
1
1
1
1
1
1
1
1
1
1
1
1
1
1
1
1
1
1.21054
2.40833
2.66814
2.66237
2.65991
2.65752
2.65502
2.65235
2.64949
2.6464
2.64312
2.6397
2.6361
2.63235
1
1
1
1
1
1
1
1
1
1
1
1
1
1
1
1
1
1
1
1
1
1
1
1
1
1
1
1
1
1
1
1
1
1
1
1
1
1
1
1
1
1
1
1
1
1
1
1
1
1
1
1
1
1
1
1
1
1
1
1
1
1
1
1
1
1
1
1
1
1
1
1
1
1
1
1
1
1
1
1
1
1
1.00487
2.29361
2.67426
2.67137
2.666
2.66237
2.65897
2.65583
2.65276
2.64963
2.64643
2.64315
2.63968
2.63603
1
1
1
1
1
1
1
1
1
1
1
1
1
1
1
1
1
1
1
1
1
1
1
1
1
1
1
1
1
1
1
1
1
1
1
1
1
1
1
1
1
1
1
1
1
1
1
1
1
1
1
1
1
1
1
1
1
1
1
1
1
1
1
1
1
1
1
1
1
1
1
1
1
1
1
1
1
1
1
1
1
1
1
2.15387
2.66746
2.674
2.66971
2.66692
2.66366
2.6605
2.65733
2.65414
2.65086
2.64747
2.64392
2.64022
1
1
1
1
1
1
1
1
1
1
1
1
1
1
1
1
1
1
1
1
1
1
1
1
1
1
1
1
1
1
1
1
1
1
1
1
1
1
1
1
1
1
1
1
1
1
1
1
1
1
1
1
1
1
1
1
1
1
1
1
1
1
1
1
1
1
1
1
1
1
1
1
1
1
1
1
1
1
1
1
1
1
1
1.99117
2.64609
2.67741
2.6728
2.67029
2.66717
2.66414
2.66103
2.65787
2.65455
2.6511
2.64751
2.64381
1
1
1
1
1
1
1
1
1
1
1
1
1
1
1
1
1
1
1
1
1
1
1
1
1
1
1
1
1
1
1
1
1
1
1
1
1
1
1
1
1
1
1
1
1
1
1
1
1
1
1
1
1
1
1
1
1
1
1
1
1
1
1
1
1
1
1
1
1
1
1
1
1
1
1
1
1
1
1
1
1
1
1
1.82085
2.61381
2.67949
2.67422
2.67191
2.66899
2.66598
2.66272
2.65936
2.65591
2.65241
2.64883
2.6452
1
1
1
1
1
1
1
1
1
1
1
1
1
1
1
1
1
1
1
1
1
1
1
1
1
1
1
1
1
1
1
1
1
1
1
1
1
1
1
1
1
1
1
1
1
1
1
1
1
1
1
1
1
1
1
1
1
1
1
1
1
1
1
1
1
1
1
1
1
1
1
1
1
1
1
1
1
1
1
1
1
1
1
1.64259
2.57873
2.67954
2.6737
2.67131
2.66841
2.66545
2.66237
2.65923
2.65604
2.65284
2.64957
2.64623
1
1
1
1
1
1
1
1
1
1
1
1
1
1
1
1
1
1
1
1
1
1
1
1
1
1
1
1
1
1
1
1
1
1
1
1
1
1
1
1
1
1
1
1
1
1
1
1
1
1
1
1
1
1
1
1
1
1
1
1
1
1
1
1
1
1
1
1
1
1
1
1
1
1
1
1
1
1
1
1
1
1
1
1.47186
2.532
2.68097
2.67488
2.67212
2.66904
2.66595
2.66279
2.65962
2.65642
2.65324
2.65004
2.64682
1
1
1
1
1
1
1
1
1
1
1
1
1
1
1
1
1
1
1
1
1
1
1
1
1
1
1
1
1
1
1
1
1
1
1
1
1
1
1
1
1
1
1
1
1
1
1
1
1
1
1
1
1
1
1
1
1
1
1
1
1
1
1
1
1
1
1
1
1
1
1
1
1
1
1
1
1
1
1
1
1
1
1
1.33452
2.48291
2.68312
2.67747
2.67427
2.67093
2.66765
2.66439
2.66117
2.65793
2.65471
2.6515
2.6483
1
1
1
1
1
1
1
1
1
1
1
1
1
1
1
1
1
1
1
1
1
1
1
1
1
1
1
1
1
1
1
1
1
1
1
1
1
1
1
1
1
1
1
1
1
1
1
1
1
1
1
1
1
1
1
1
1
1
1
1
1
1
1
1
1
1
1
1
1
1
1
1
1
1
1
1
1
1
1
1
1
1
1
1.22846
2.4313
2.68321
2.67893
2.67566
2.67243
2.66921
2.66607
2.66296
2.65981
2.65662
2.65342
2.65018
1
1
1
1
1
1
1
1
1
1
1
1
1
1
1
1
1
1
1
1
1
1
1
1
1
1
1
1
1
1
1
1
1
1
1
1
1
1
1
1
1
1
1
1
1
1
1
1
1
1
1
1
1
1
1
1
1
1
1
1
1
1
1
1
1
1
1
1
1
1
1
1
1
1
1
1
1
1
1
1
1
1
1
1.14362
2.3786
2.68117
2.67875
2.67535
2.67269
2.6699
2.66715
2.66437
2.66155
2.65862
2.65556
2.6524
1
1
1
1
1
1
1
1
1
1
1
1
1
1
1
1
1
1
1
1
1
1
1
1
1
1
1
1
1
1
1
1
1
1
1
1
1
1
1
1
1
1
1
1
1
1
1
1
1
1
1
1
1
1
1
1
1
1
1
1
1
1
1
1
1
1
1
1
1
1
1
1
1
1
1
1
1
1
1
1
1
1
1
1.05268
2.32791
2.67906
2.68013
2.67629
2.67397
2.67126
2.66858
2.66582
2.66302
2.66011
2.65704
2.65388
1
1
1
1
1
1
1
1
1
1
1
1
1
1
1
1
1
1
1
1
1
1
1
1
1
1
1
1
1
1
1
1
1
1
1
1
1
1
1
1
1
1
1
1
1
1
1
1
1
1
1
1
1
1
1
1
1
1
1
1
1
1
1
1
1
1
1
1
1
1
1
1
1
1
1
1
1
1
1
1
1
1
1
1.00082
2.28084
2.67578
2.68221
2.67755
2.67511
2.67223
2.66946
2.66662
2.66375
2.6608
2.65775
2.65467
1
1
1
1
1
1
1
1
1
1
1
1
1
1
1
1
1
1
1
1
1
1
1
1
1
1
1
1
1
1
1
1
1
1
1
1
1
1
1
1
1
1
1
1
1
1
1
1
1
1
1
1
1
1
1
1
1
1
1
1
1
1
1
1
1
1
1
1
1
1
1
1
1
1
1
1
1
1
1
1
1
1
1
1
2.23981
2.67417
2.6834
2.67853
2.67601
2.67312
2.67033
2.66744
2.66453
2.66155
2.65851
2.65544
1
1
1
1
1
1
1
1
1
1
1
1
1
1
1
1
1
1
1
1
1
1
1
1
1
1
1
1
1
1
1
1
1
1
1
1
1
1
1
1
1
1
1
1
1
1
1
1
1
1
1
1
1
1
1
1
1
1
1
1
1
1
1
1
1
1
1
1
1
1
1
1
1
1
1
1
1
1
1
1
1
1
1
1
2.21164
2.6746
2.68418
2.67919
2.67657
2.67363
2.67078
2.66783
2.66488
2.6619
2.65887
2.6558
1
1
1
1
1
1
1
1
1
1
1
1
1
1
1
1
1
1
1
1
1
1
1
1
1
1
1
1
1
1
1
1
1
1
1
1
1
1
1
1
1
1
1
1
1
1
1
1
1
1
1
1
1
1
1
1
1
1
1
1
1
1
1
1
1
1
1
1
1
1
1
1
1
1
1
1
1
1
1
1
1
1
1
1