/*--------------------------------*- C++ -*----------------------------------*\
  =========                 |
  \\      /  F ield         | OpenFOAM: The Open Source CFD Toolbox
   \\    /   O peration     | Website:  https://openfoam.org
    \\  /    A nd           | Version:  7
     \\/     M anipulation  |
\*---------------------------------------------------------------------------*/
FoamFile
{
    version     2.0;
    format      ascii;
    class       volVectorField;
    location    "7.4";
    object      U;
}
// * * * * * * * * * * * * * * * * * * * * * * * * * * * * * * * * * * * * * //

dimensions      [0 1 -1 0 0 0 0];

internalField   nonuniform List<vector> 
19968
(
(3 -4.365e-17 0)
(3 -5.20176e-18 0)
(3 1.64946e-16 0)
(3 4.34898e-16 0)
(3 4.41774e-16 0)
(3 3.33328e-16 0)
(3 8.30899e-17 0)
(3 -3.00452e-17 0)
(3 1.62097e-16 0)
(3 7.20152e-16 0)
(3 4.97503e-16 0)
(3 4.09543e-16 0)
(3 1.91464e-16 0)
(3 -2.08444e-16 0)
(3 -4.05478e-16 0)
(3 -2.71693e-16 0)
(3 6.70906e-16 0)
(3 5.66187e-16 0)
(3 1.18108e-15 0)
(3 1.04522e-15 0)
(3 3.73141e-16 0)
(3 -9.25321e-17 0)
(3 -7.15116e-16 0)
(3 -1.13226e-15 0)
(3 -9.07365e-16 0)
(3 -8.89906e-16 0)
(3 -3.95635e-17 0)
(3 2.11782e-16 0)
(3 4.06146e-17 0)
(3 -6.16779e-16 0)
(3 -1.15746e-15 0)
(3 -4.99092e-16 0)
(3 6.4474e-16 0)
(3 1.05254e-15 0)
(3 1.13257e-15 0)
(3 -4.27323e-16 0)
(3 -6.50876e-16 0)
(3 -4.97983e-16 0)
(3 -4.6036e-16 0)
(3 3.35029e-16 0)
(3 1.14769e-15 0)
(3 1.92017e-15 0)
(3 1.99835e-15 0)
(3 1.86468e-15 0)
(3 2.07142e-15 0)
(3 2.15725e-15 0)
(3 3.28227e-15 0)
(3 1.24353e-15 0)
(2.79548 0.00238735 0)
(0.966768 0.00732101 0)
(0.759045 0.00488376 0)
(0.746364 0.00804574 0)
(0.729522 0.00872599 0)
(0.713817 0.00947806 0)
(0.697011 0.00984012 0)
(0.680298 0.00955452 0)
(0.664572 0.00875057 0)
(0.650314 0.00802772 0)
(0.636975 0.00796221 0)
(0.623304 0.00867139 0)
(0.60819 0.00970782 0)
(0.591816 0.0100615 0)
(0.575694 0.00949836 0)
(0.560562 0.00913527 0)
(0.545815 0.00936418 0)
(0.530874 0.0096041 0)
(0.515659 0.00963739 0)
(0.500026 0.00973056 0)
(0.48382 0.00995352 0)
(0.467314 0.0101297 0)
(0.451053 0.0101883 0)
(0.435335 0.0102386 0)
(0.420034 0.0103656 0)
(0.40481 0.0105246 0)
(0.389312 0.0106511 0)
(0.373285 0.0107432 0)
(0.35666 0.0108255 0)
(0.339607 0.0109161 0)
(0.322425 0.0110224 0)
(0.305354 0.0111368 0)
(0.288468 0.0112506 0)
(0.27168 0.011367 0)
(0.254837 0.0114936 0)
(0.237837 0.0116337 0)
(0.220688 0.0117882 0)
(0.20345 0.0119572 0)
(0.186137 0.012141 0)
(0.168671 0.0123398 0)
(0.150894 0.0125566 0)
(0.132617 0.012796 0)
(0.113685 0.0130699 0)
(0.0940614 0.0133791 0)
(0.0738427 0.0137412 0)
(0.0531331 0.0141669 0)
(0.0320517 0.0144637 0)
(0.0109104 0.0149209 0)
(3 -1.30001e-17 0)
(3 -5.19308e-16 0)
(3 -2.84152e-16 0)
(3 -2.19267e-16 0)
(3 5.57661e-18 0)
(3 3.38896e-16 0)
(3 -1.71113e-16 0)
(3 -4.41398e-16 0)
(3 -1.8974e-16 0)
(3 3.06856e-16 0)
(3 2.63096e-16 0)
(3 -9.63313e-17 0)
(3 -9.27288e-16 0)
(3 -1.26631e-15 0)
(3 -1.26573e-15 0)
(3 -2.80274e-16 0)
(3 4.92881e-16 0)
(3 -1.58292e-16 0)
(3 -1.36113e-16 0)
(3 -2.85113e-16 0)
(3 -7.2823e-17 0)
(3 -5.63155e-16 0)
(3 -1.16113e-15 0)
(3 -1.8991e-15 0)
(3 -2.02698e-15 0)
(3 -1.77219e-15 0)
(3 -6.27659e-16 0)
(3 -2.97113e-16 0)
(3 -4.05536e-16 0)
(3 -9.69404e-16 0)
(3 -1.66994e-15 0)
(3 -2.93304e-16 0)
(3 1.14003e-15 0)
(3 1.12263e-15 0)
(3 1.35932e-15 0)
(3 4.59646e-16 0)
(3 -7.44405e-16 0)
(3 -2.52869e-16 0)
(3 4.33611e-16 0)
(3 1.2319e-15 0)
(3 2.07441e-15 0)
(3 2.24819e-15 0)
(3 1.93799e-15 0)
(3 1.99508e-15 0)
(3 2.19263e-15 0)
(3 2.69962e-15 0)
(3 4.33495e-15 0)
(3 1.67575e-15 0)
(2.81073 0.013057 0)
(0.972057 0.0315659 0)
(0.755732 0.0227131 0)
(0.740266 0.0227119 0)
(0.724496 0.0250353 0)
(0.709236 0.0271805 0)
(0.693244 0.0285569 0)
(0.677237 0.0283258 0)
(0.661834 0.0266607 0)
(0.6474 0.0248354 0)
(0.633566 0.0244984 0)
(0.619575 0.0263175 0)
(0.604499 0.0290991 0)
(0.588343 0.0300601 0)
(0.572516 0.0287288 0)
(0.557378 0.0278858 0)
(0.542525 0.0285954 0)
(0.527456 0.0292745 0)
(0.512121 0.0293211 0)
(0.496399 0.02954 0)
(0.480169 0.0301677 0)
(0.463679 0.0307063 0)
(0.447419 0.0309478 0)
(0.431648 0.0311579 0)
(0.416259 0.0315409 0)
(0.400954 0.031982 0)
(0.385401 0.0323303 0)
(0.369343 0.032598 0)
(0.352705 0.0328541 0)
(0.33565 0.0331489 0)
(0.318466 0.0335034 0)
(0.301376 0.033888 0)
(0.284448 0.0342647 0)
(0.267606 0.0346338 0)
(0.250715 0.0350166 0)
(0.233697 0.0354292 0)
(0.216569 0.0358827 0)
(0.199392 0.0363842 0)
(0.18217 0.0369383 0)
(0.164818 0.0375471 0)
(0.147183 0.0382192 0)
(0.129093 0.0389633 0)
(0.110421 0.0398047 0)
(0.0911529 0.0407379 0)
(0.0713992 0.0417978 0)
(0.0512748 0.0430259 0)
(0.0308595 0.0438501 0)
(0.0105028 0.0451055 0)
(3 -1.47682e-16 0)
(3 -2.65167e-16 0)
(3 -5.8191e-16 0)
(3 -7.96519e-16 0)
(3 -1.51827e-15 0)
(3 -1.7824e-15 0)
(3 -1.23842e-15 0)
(3 -9.48291e-16 0)
(3 -6.84587e-16 0)
(3 -2.27898e-16 0)
(3 -2.94487e-16 0)
(3 -8.76962e-16 0)
(3 -1.36956e-15 0)
(3 -1.06458e-15 0)
(3 -7.08406e-18 0)
(3 7.81462e-16 0)
(3 7.777e-16 0)
(3 4.19707e-16 0)
(3 -3.55241e-16 0)
(3 -7.72312e-16 0)
(3 -2.50155e-16 0)
(3 1.37575e-16 0)
(3 -2.1164e-16 0)
(3 -7.02685e-16 0)
(3 -1.4852e-15 0)
(3 -1.39769e-15 0)
(3 -9.81679e-16 0)
(3 -4.22454e-16 0)
(3 -6.38106e-16 0)
(3 -8.32451e-16 0)
(3 -1.42681e-15 0)
(3 -1.21295e-15 0)
(3 -4.47541e-16 0)
(3 3.00232e-16 0)
(3 -1.96479e-16 0)
(3 -1.45979e-15 0)
(3 -2.05724e-15 0)
(3 -1.76424e-15 0)
(3 4.77886e-16 0)
(3 2.40329e-15 0)
(3 2.3512e-15 0)
(3 1.77076e-15 0)
(3 5.01672e-16 0)
(3 7.89676e-16 0)
(3 1.27528e-15 0)
(3 1.9294e-15 0)
(3 3.33604e-15 0)
(3 2.66042e-15 0)
(2.84654 0.0207983 0)
(0.988518 0.0521829 0)
(0.760671 0.0410875 0)
(0.744213 0.0406863 0)
(0.72747 0.0435217 0)
(0.711758 0.046435 0)
(0.695859 0.0481669 0)
(0.680065 0.0478367 0)
(0.664658 0.0457182 0)
(0.649766 0.0433189 0)
(0.635106 0.0428903 0)
(0.620494 0.0456038 0)
(0.605248 0.0496767 0)
(0.589105 0.0509589 0)
(0.573438 0.0489808 0)
(0.558185 0.0479132 0)
(0.543171 0.0492034 0)
(0.527893 0.0503806 0)
(0.512309 0.0504798 0)
(0.496343 0.0508083 0)
(0.479934 0.0517742 0)
(0.463314 0.0526175 0)
(0.44692 0.0530332 0)
(0.430968 0.0534189 0)
(0.415364 0.054054 0)
(0.399844 0.0547598 0)
(0.384102 0.0553299 0)
(0.367892 0.0557962 0)
(0.351141 0.0562501 0)
(0.333997 0.0567513 0)
(0.316724 0.0573338 0)
(0.299527 0.0579628 0)
(0.282472 0.0585861 0)
(0.265502 0.0592042 0)
(0.248511 0.0598453 0)
(0.231439 0.0605259 0)
(0.21431 0.0612568 0)
(0.197169 0.0620487 0)
(0.180002 0.0629143 0)
(0.162707 0.0638647 0)
(0.14513 0.0649197 0)
(0.127111 0.0660911 0)
(0.108551 0.0674142 0)
(0.0894576 0.0688749 0)
(0.0699515 0.0705123 0)
(0.0501705 0.0724222 0)
(0.0301411 0.0736556 0)
(0.0102838 0.0755675 0)
(3 4.92733e-17 0)
(3 4.56372e-16 0)
(3 2.63443e-16 0)
(3 -1.54264e-16 0)
(3 -4.54287e-16 0)
(3 -8.22046e-16 0)
(3 -1.30931e-15 0)
(3 -7.58819e-16 0)
(3 -4.93641e-16 0)
(3 -2.12624e-16 0)
(3 -2.33004e-16 0)
(3 3.32569e-16 0)
(3 4.18005e-16 0)
(3 1.42839e-15 0)
(3 2.25405e-15 0)
(3 2.15565e-15 0)
(3 1.72276e-15 0)
(3 1.29202e-15 0)
(3 5.48564e-16 0)
(3 3.25574e-16 0)
(3 -4.42376e-16 0)
(3 -7.13919e-16 0)
(3 -1.03192e-15 0)
(3 -9.30035e-16 0)
(3 -2.99309e-16 0)
(3 -2.34465e-16 0)
(3 -3.77865e-17 0)
(3 4.09199e-16 0)
(3 4.84602e-16 0)
(3 -8.26865e-16 0)
(3 -1.04339e-15 0)
(3 -9.53587e-16 0)
(3 -1.25672e-15 0)
(3 -1.39938e-15 0)
(3 -1.31449e-15 0)
(3 -1.05101e-15 0)
(3 -4.38625e-16 0)
(3 7.7496e-16 0)
(3 2.74124e-15 0)
(3 2.65861e-15 0)
(3 1.87225e-15 0)
(3 1.26279e-15 0)
(3 7.90528e-16 0)
(3 2.23659e-17 0)
(3 2.82863e-16 0)
(3 9.53378e-16 0)
(3 1.05368e-15 0)
(3 1.36867e-15 0)
(2.89287 0.0243576 0)
(1.01135 0.0704278 0)
(0.762284 0.0594108 0)
(0.745714 0.0599153 0)
(0.729261 0.0629273 0)
(0.713819 0.0659793 0)
(0.698449 0.0678116 0)
(0.683125 0.0675878 0)
(0.667911 0.0656362 0)
(0.652795 0.0633092 0)
(0.637548 0.0629661 0)
(0.622457 0.0662732 0)
(0.607139 0.0710722 0)
(0.591106 0.072431 0)
(0.575634 0.0700172 0)
(0.560356 0.068936 0)
(0.545393 0.070863 0)
(0.530157 0.0726265 0)
(0.514555 0.0728884 0)
(0.498524 0.0733608 0)
(0.482061 0.0746239 0)
(0.465392 0.0757471 0)
(0.448905 0.076385 0)
(0.432777 0.0770249 0)
(0.41692 0.0779578 0)
(0.401096 0.0789462 0)
(0.385024 0.0797656 0)
(0.368477 0.0804743 0)
(0.351394 0.081163 0)
(0.333919 0.0818811 0)
(0.316295 0.0826783 0)
(0.298706 0.0835272 0)
(0.281218 0.084366 0)
(0.263806 0.085192 0)
(0.246412 0.0860362 0)
(0.229021 0.0869152 0)
(0.211679 0.0878447 0)
(0.194431 0.0888479 0)
(0.177258 0.0899564 0)
(0.160051 0.0911986 0)
(0.142653 0.092611 0)
(0.124902 0.0942084 0)
(0.10669 0.0960292 0)
(0.0879924 0.0980494 0)
(0.068882 0.10028 0)
(0.049488 0.102885 0)
(0.0297474 0.104522 0)
(0.0102201 0.107044 0)
(3 1.17646e-16 0)
(3 -6.0331e-17 0)
(3 -1.05135e-16 0)
(3 -4.9005e-17 0)
(3 5.44544e-16 0)
(3 9.45161e-16 0)
(3 9.21011e-16 0)
(3 9.98448e-16 0)
(3 1.04446e-15 0)
(3 6.41629e-16 0)
(3 1.18002e-15 0)
(3 1.10649e-15 0)
(3 1.89643e-15 0)
(3 2.48757e-15 0)
(3 2.2734e-15 0)
(3 1.65822e-15 0)
(3 4.95382e-16 0)
(3 -4.70054e-17 0)
(3 -2.80959e-16 0)
(3 -7.05073e-16 0)
(3 -8.10582e-16 0)
(3 -1.24452e-15 0)
(3 -1.69502e-15 0)
(3 -1.58547e-15 0)
(3 -5.28002e-16 0)
(3 -1.82175e-16 0)
(3 5.10292e-16 0)
(3 2.30684e-16 0)
(3 -1.71637e-16 0)
(3 -6.42723e-16 0)
(3 -7.86237e-16 0)
(3 -2.67755e-16 0)
(3 4.88869e-16 0)
(3 4.1571e-16 0)
(3 1.16618e-15 0)
(3 1.75804e-15 0)
(3 1.8397e-15 0)
(3 1.60793e-15 0)
(3 1.40106e-15 0)
(3 7.9416e-16 0)
(3 4.56142e-17 0)
(3 -1.91369e-17 0)
(3 1.0657e-16 0)
(3 5.21454e-16 0)
(3 3.41505e-16 0)
(3 -4.94026e-16 0)
(3 -1.00585e-15 0)
(3 -9.14601e-16 0)
(2.94195 0.0312943 0)
(1.03835 0.0949295 0)
(0.764623 0.0784683 0)
(0.748543 0.0808195 0)
(0.732205 0.0834984 0)
(0.716994 0.0859934 0)
(0.70223 0.087467 0)
(0.687666 0.0873355 0)
(0.673134 0.0858672 0)
(0.658407 0.0842214 0)
(0.643221 0.0843903 0)
(0.628102 0.0881839 0)
(0.612874 0.0932772 0)
(0.596997 0.0945829 0)
(0.581655 0.0919132 0)
(0.566372 0.0908896 0)
(0.5516 0.0933869 0)
(0.536644 0.0957932 0)
(0.521259 0.0963835 0)
(0.505361 0.0971163 0)
(0.488969 0.098697 0)
(0.472325 0.100121 0)
(0.455803 0.101086 0)
(0.439549 0.102147 0)
(0.423468 0.103529 0)
(0.407331 0.104924 0)
(0.390879 0.106125 0)
(0.373911 0.107229 0)
(0.356379 0.108307 0)
(0.338426 0.109371 0)
(0.320272 0.11048 0)
(0.302072 0.111623 0)
(0.283882 0.112729 0)
(0.265696 0.113786 0)
(0.247498 0.114812 0)
(0.229315 0.115811 0)
(0.211219 0.116793 0)
(0.193277 0.117793 0)
(0.175492 0.118874 0)
(0.157788 0.12011 0)
(0.14005 0.121595 0)
(0.122155 0.123381 0)
(0.104019 0.125529 0)
(0.0856038 0.128028 0)
(0.0669205 0.130816 0)
(0.048081 0.134135 0)
(0.0288746 0.136212 0)
(0.00996873 0.139337 0)
(3 1.19403e-16 0)
(3 3.93463e-17 0)
(3 2.31947e-16 0)
(3 9.23473e-16 0)
(3 1.03865e-15 0)
(3 1.54208e-15 0)
(3 2.42082e-15 0)
(3 2.95939e-15 0)
(3 2.8566e-15 0)
(3 2.18648e-15 0)
(3 1.79564e-15 0)
(3 1.27986e-15 0)
(3 1.2137e-15 0)
(3 9.44171e-16 0)
(3 -3.87513e-17 0)
(3 -7.01458e-16 0)
(3 -9.28638e-16 0)
(3 -1.12729e-15 0)
(3 -1.65904e-15 0)
(3 -2.22685e-15 0)
(3 -2.41678e-15 0)
(3 -2.43613e-15 0)
(3 -1.48389e-15 0)
(3 -1.02477e-15 0)
(3 -6.18843e-16 0)
(3 -2.71271e-16 0)
(3 -9.67003e-17 0)
(3 -3.44724e-16 0)
(3 -1.2461e-16 0)
(3 3.07919e-16 0)
(3 2.38339e-16 0)
(3 -4.80524e-16 0)
(3 -1.42852e-16 0)
(3 4.11415e-16 0)
(3 1.27946e-15 0)
(3 1.42034e-15 0)
(3 1.33049e-15 0)
(3 9.45813e-16 0)
(3 -1.93834e-16 0)
(3 -3.77046e-16 0)
(3 4.50573e-16 0)
(3 7.95084e-16 0)
(3 2.98593e-16 0)
(3 -2.25596e-16 0)
(3 -3.80975e-16 0)
(3 -1.08535e-17 0)
(3 -6.54706e-18 0)
(3 -1.03815e-15 0)
(2.99772 0.00259791 0)
(1.1053 0.112759 0)
(0.775964 0.091808 0)
(0.760172 0.101401 0)
(0.743118 0.104145 0)
(0.727127 0.105714 0)
(0.711976 0.106334 0)
(0.697479 0.105952 0)
(0.683279 0.105073 0)
(0.66892 0.104557 0)
(0.65401 0.105713 0)
(0.639067 0.110077 0)
(0.62396 0.115338 0)
(0.608182 0.116646 0)
(0.592884 0.113834 0)
(0.577618 0.112709 0)
(0.563082 0.115462 0)
(0.548553 0.11841 0)
(0.533532 0.119482 0)
(0.517897 0.120651 0)
(0.501669 0.12262 0)
(0.485126 0.124345 0)
(0.468685 0.125684 0)
(0.452491 0.127298 0)
(0.436421 0.129283 0)
(0.420224 0.131213 0)
(0.40365 0.132927 0)
(0.386513 0.134595 0)
(0.368773 0.136258 0)
(0.350574 0.137862 0)
(0.332121 0.139467 0)
(0.313533 0.141094 0)
(0.294835 0.142678 0)
(0.276013 0.144188 0)
(0.257066 0.145621 0)
(0.23804 0.146951 0)
(0.219018 0.148163 0)
(0.200085 0.149285 0)
(0.181271 0.150397 0)
(0.162543 0.151612 0)
(0.143837 0.153071 0)
(0.125084 0.15488 0)
(0.106234 0.157122 0)
(0.0872582 0.15985 0)
(0.0681209 0.162937 0)
(0.0489365 0.166767 0)
(0.0293614 0.169158 0)
(0.0101623 0.172757 0)
(3 1.22335e-16 0)
(3 4.07772e-16 0)
(3 8.46922e-16 0)
(3 8.22553e-16 0)
(3 7.56188e-16 0)
(3 7.69182e-16 0)
(3 6.08074e-16 0)
(3 1.18784e-16 0)
(3 1.09512e-15 0)
(3 1.13206e-15 0)
(3 1.1957e-15 0)
(3 1.02521e-15 0)
(3 6.58868e-16 0)
(3 1.78178e-16 0)
(3 -4.41609e-16 0)
(3 -4.2332e-16 0)
(3 -2.24024e-16 0)
(3 -3.26676e-16 0)
(3 -6.75012e-16 0)
(3 -1.20174e-15 0)
(3 -1.90561e-15 0)
(3 -1.35124e-15 0)
(3 -1.23667e-15 0)
(3 -8.01827e-16 0)
(3 3.14164e-16 0)
(3 7.57206e-16 0)
(3 1.39562e-15 0)
(3 1.36068e-15 0)
(3 1.20949e-15 0)
(3 1.28271e-15 0)
(3 1.23874e-15 0)
(3 2.89505e-16 0)
(3 -4.76399e-16 0)
(3 -3.05218e-16 0)
(3 -1.41291e-16 0)
(3 3.51256e-16 0)
(3 2.89895e-16 0)
(3 -2.85053e-17 0)
(3 -5.46277e-16 0)
(3 -1.07218e-15 0)
(3 -6.89262e-16 0)
(3 5.90608e-16 0)
(3 5.72928e-16 0)
(3 -1.48304e-15 0)
(3 -1.81228e-15 0)
(3 -3.18256e-16 0)
(3 7.36833e-16 0)
(3 1.6377e-16 0)
(3.00003 3.89215e-05 0)
(1.21865 0.133355 0)
(0.77704 0.109445 0)
(0.757391 0.125669 0)
(0.739877 0.12924 0)
(0.723331 0.129487 0)
(0.707853 0.128562 0)
(0.693196 0.127207 0)
(0.678953 0.126468 0)
(0.664654 0.126985 0)
(0.649925 0.129312 0)
(0.635273 0.134337 0)
(0.620584 0.139777 0)
(0.605296 0.141235 0)
(0.590421 0.138383 0)
(0.57552 0.136992 0)
(0.561446 0.139752 0)
(0.547611 0.143227 0)
(0.533241 0.145053 0)
(0.518169 0.146969 0)
(0.502389 0.149496 0)
(0.48621 0.151522 0)
(0.470142 0.153193 0)
(0.454356 0.155385 0)
(0.438692 0.15805 0)
(0.42285 0.160572 0)
(0.406598 0.162821 0)
(0.389784 0.165076 0)
(0.372383 0.167365 0)
(0.354534 0.169552 0)
(0.336423 0.171679 0)
(0.31814 0.173801 0)
(0.29967 0.175862 0)
(0.280972 0.177818 0)
(0.26203 0.179646 0)
(0.24287 0.181295 0)
(0.22357 0.18273 0)
(0.204227 0.183967 0)
(0.18491 0.185097 0)
(0.165637 0.186261 0)
(0.146397 0.187643 0)
(0.127159 0.189391 0)
(0.107889 0.191591 0)
(0.0885636 0.194396 0)
(0.0691041 0.197595 0)
(0.0496575 0.201798 0)
(0.0297727 0.204419 0)
(0.0103197 0.208411 0)
(3 4.41779e-17 0)
(3 4.37773e-17 0)
(3 -3.87878e-16 0)
(3 -7.52068e-16 0)
(3 -8.71847e-16 0)
(3 -7.45384e-16 0)
(3 -8.57902e-16 0)
(3 -1.02605e-15 0)
(3 1.13418e-17 0)
(3 -1.68251e-16 0)
(3 -4.02897e-16 0)
(3 -5.99103e-16 0)
(3 -6.88407e-16 0)
(3 -2.16968e-16 0)
(3 1.87022e-16 0)
(3 6.25163e-16 0)
(3 6.07346e-16 0)
(3 8.93409e-16 0)
(3 1.11499e-15 0)
(3 1.48255e-15 0)
(3 7.32098e-16 0)
(3 -2.55272e-17 0)
(3 -2.17993e-16 0)
(3 -1.2997e-16 0)
(3 6.19521e-17 0)
(3 6.80722e-16 0)
(3 9.25046e-16 0)
(3 4.36288e-16 0)
(3 2.56626e-16 0)
(3 -2.45645e-17 0)
(3 -1.90146e-16 0)
(3 4.43998e-17 0)
(3 2.53333e-16 0)
(3 9.36567e-16 0)
(3 1.3838e-15 0)
(3 1.76337e-15 0)
(3 1.2699e-15 0)
(3 1.04009e-15 0)
(3 2.70295e-16 0)
(3 -2.83178e-16 0)
(3 -3.23764e-16 0)
(3 -6.38523e-16 0)
(3 -4.35071e-16 0)
(3 -4.12581e-17 0)
(3 2.00062e-16 0)
(3 6.12283e-16 0)
(3 8.6721e-16 0)
(3 5.35934e-16 0)
(3 7.08417e-08 0)
(1.41938 0.163293 0)
(0.789878 0.13336 0)
(0.75856 0.152024 0)
(0.740611 0.154933 0)
(0.723609 0.153718 0)
(0.707784 0.151205 0)
(0.692721 0.148755 0)
(0.678157 0.147868 0)
(0.6638 0.149201 0)
(0.649344 0.152527 0)
(0.635178 0.157913 0)
(0.621162 0.163248 0)
(0.606579 0.164919 0)
(0.592107 0.162352 0)
(0.577489 0.160628 0)
(0.563658 0.163 0)
(0.550429 0.166684 0)
(0.536809 0.169291 0)
(0.522533 0.172161 0)
(0.507491 0.175427 0)
(0.491957 0.177745 0)
(0.476557 0.179609 0)
(0.461494 0.182303 0)
(0.446535 0.185704 0)
(0.43127 0.188929 0)
(0.415478 0.191817 0)
(0.39906 0.194789 0)
(0.38202 0.197899 0)
(0.364488 0.200911 0)
(0.346638 0.203814 0)
(0.328542 0.206701 0)
(0.310154 0.209548 0)
(0.291397 0.212297 0)
(0.27222 0.214896 0)
(0.252629 0.217254 0)
(0.232701 0.219298 0)
(0.21257 0.221014 0)
(0.192366 0.222481 0)
(0.172173 0.22385 0)
(0.152027 0.225319 0)
(0.131923 0.227076 0)
(0.111827 0.229175 0)
(0.0917226 0.23193 0)
(0.0714988 0.235024 0)
(0.0513599 0.239423 0)
(0.030771 0.242165 0)
(0.0106536 0.246456 0)
(3 -5.01804e-17 0)
(3 -1.12796e-16 0)
(3 -1.18713e-16 0)
(3 -1.98459e-16 0)
(3 -5.80168e-16 0)
(3 -1.27456e-15 0)
(3 -1.1286e-15 0)
(3 -8.84164e-16 0)
(3 -1.03853e-15 0)
(3 -1.21937e-15 0)
(3 -1.50492e-15 0)
(3 -1.3551e-15 0)
(3 -9.20001e-16 0)
(3 -2.77436e-16 0)
(3 2.60481e-16 0)
(3 2.5074e-16 0)
(3 -3.71139e-16 0)
(3 -4.12372e-16 0)
(3 1.41985e-15 0)
(3 3.24756e-15 0)
(3 2.84891e-15 0)
(3 1.86848e-15 0)
(3 9.70457e-16 0)
(3 1.5221e-16 0)
(3 -4.87042e-17 0)
(3 -4.98726e-16 0)
(3 -1.23588e-15 0)
(3 -5.06372e-16 0)
(3 -1.16922e-16 0)
(3 -8.71686e-17 0)
(3 -9.02068e-18 0)
(3 3.82057e-16 0)
(3 8.21558e-16 0)
(3 1.87477e-15 0)
(3 2.5032e-15 0)
(3 1.93342e-15 0)
(3 1.18873e-15 0)
(3 6.64267e-16 0)
(3 1.03864e-15 0)
(3 6.73265e-16 0)
(3 5.17397e-16 0)
(3 -4.59275e-17 0)
(3 -2.00099e-16 0)
(3 2.18543e-15 0)
(3 2.7124e-15 0)
(3 1.29543e-15 0)
(3 -5.26251e-16 0)
(3 -8.22983e-16 0)
(3 1.59002e-10 0)
(1.73305 0.184271 0)
(0.817217 0.161279 0)
(0.76498 0.181489 0)
(0.746723 0.181958 0)
(0.72905 0.179602 0)
(0.712317 0.176027 0)
(0.69599 0.172953 0)
(0.680163 0.171676 0)
(0.664865 0.173147 0)
(0.650038 0.176762 0)
(0.635868 0.181906 0)
(0.622214 0.187005 0)
(0.608049 0.189362 0)
(0.593454 0.18783 0)
(0.578553 0.186044 0)
(0.564206 0.187624 0)
(0.550775 0.190958 0)
(0.537339 0.194086 0)
(0.523501 0.197955 0)
(0.50897 0.202134 0)
(0.493878 0.2048 0)
(0.47899 0.206716 0)
(0.464619 0.20983 0)
(0.450524 0.214084 0)
(0.436106 0.218223 0)
(0.421097 0.221896 0)
(0.405456 0.225687 0)
(0.389199 0.22976 0)
(0.37243 0.233796 0)
(0.355314 0.237683 0)
(0.337919 0.241535 0)
(0.320164 0.245376 0)
(0.301906 0.249143 0)
(0.28302 0.252746 0)
(0.263457 0.256055 0)
(0.24329 0.258957 0)
(0.222695 0.261412 0)
(0.201865 0.263476 0)
(0.180928 0.265298 0)
(0.159946 0.267054 0)
(0.138922 0.268956 0)
(0.11782 0.270973 0)
(0.0966457 0.273634 0)
(0.0752915 0.276445 0)
(0.0540682 0.280883 0)
(0.0323888 0.283647 0)
(0.0111985 0.288172 0)
(3 -1.66971e-16 0)
(3 -1.90483e-16 0)
(3 2.34956e-17 0)
(3 1.97861e-17 0)
(3 -1.16268e-16 0)
(3 -6.67117e-16 0)
(3 -1.7017e-15 0)
(3 -2.12435e-15 0)
(3 -1.97672e-15 0)
(3 -1.89115e-15 0)
(3 -1.7874e-15 0)
(3 -9.16537e-16 0)
(3 -2.26313e-16 0)
(3 -1.4496e-16 0)
(3 -3.70539e-16 0)
(3 -1.38371e-16 0)
(3 9.30766e-17 0)
(3 -1.53866e-16 0)
(3 1.20517e-15 0)
(3 1.80605e-15 0)
(3 1.99085e-15 0)
(3 2.37762e-15 0)
(3 1.98162e-15 0)
(3 1.39104e-15 0)
(3 4.57462e-16 0)
(3 1.12406e-16 0)
(3 2.12642e-16 0)
(3 5.58434e-16 0)
(3 4.68838e-16 0)
(3 1.11271e-15 0)
(3 2.0392e-15 0)
(3 2.35797e-15 0)
(3 8.10727e-16 0)
(3 -2.72486e-16 0)
(3 -5.29856e-16 0)
(3 -1.76212e-15 0)
(3 -2.38238e-15 0)
(3 -2.72318e-15 0)
(3 -1.99178e-15 0)
(3 -1.80744e-15 0)
(3 -1.63684e-15 0)
(3 -9.11497e-16 0)
(3 -8.48914e-16 0)
(3 -6.02534e-17 0)
(3 1.00433e-15 0)
(3 6.24201e-16 0)
(3 5.87925e-16 0)
(3 8.16889e-16 0)
(3 3.30855e-13 0)
(2.15525 0.189328 0)
(0.85652 0.201444 0)
(0.760272 0.211358 0)
(0.745532 0.210566 0)
(0.730611 0.208686 0)
(0.71573 0.205497 0)
(0.700286 0.202293 0)
(0.684585 0.200355 0)
(0.669159 0.201067 0)
(0.65441 0.2039 0)
(0.64045 0.207922 0)
(0.627194 0.212532 0)
(0.613472 0.216004 0)
(0.598648 0.216327 0)
(0.583207 0.215066 0)
(0.568039 0.2156 0)
(0.5539 0.217804 0)
(0.540199 0.220778 0)
(0.526419 0.225306 0)
(0.512008 0.230316 0)
(0.496842 0.233247 0)
(0.481838 0.234777 0)
(0.467486 0.237765 0)
(0.45373 0.242591 0)
(0.439794 0.247612 0)
(0.425272 0.252004 0)
(0.410193 0.256471 0)
(0.39463 0.261442 0)
(0.378683 0.266588 0)
(0.362497 0.271651 0)
(0.346121 0.276713 0)
(0.329409 0.281847 0)
(0.312087 0.28699 0)
(0.293895 0.292024 0)
(0.274692 0.296778 0)
(0.254544 0.301092 0)
(0.233694 0.304873 0)
(0.212411 0.30811 0)
(0.190869 0.310897 0)
(0.169131 0.313357 0)
(0.14719 0.315718 0)
(0.124994 0.317824 0)
(0.102583 0.32048 0)
(0.0798706 0.322907 0)
(0.0573078 0.327228 0)
(0.0343271 0.329917 0)
(0.0118456 0.334636 0)
(3 7.15811e-17 0)
(3 8.63667e-17 0)
(3 -1.90253e-16 0)
(3 -2.97088e-16 0)
(3 -3.28593e-16 0)
(3 -4.22943e-16 0)
(3 -7.7758e-16 0)
(3 -9.64958e-16 0)
(3 -9.04547e-16 0)
(3 -7.42111e-16 0)
(3 -5.85706e-16 0)
(3 -7.04241e-16 0)
(3 -1.26849e-15 0)
(3 -1.82072e-15 0)
(3 -6.63273e-16 0)
(3 -4.5187e-16 0)
(3 1.821e-16 0)
(3 2.91531e-16 0)
(3 3.81564e-16 0)
(3 3.1808e-16 0)
(3 6.33399e-16 0)
(3 1.07375e-15 0)
(3 1.27467e-15 0)
(3 1.46514e-15 0)
(3 1.39758e-15 0)
(3 1.25149e-15 0)
(3 1.41787e-15 0)
(3 9.9898e-16 0)
(3 1.13989e-15 0)
(3 1.70449e-15 0)
(3 2.28317e-15 0)
(3 2.14791e-15 0)
(3 6.47375e-16 0)
(3 -1.44819e-15 0)
(3 -2.70603e-15 0)
(3 -2.2255e-15 0)
(3 -2.31965e-15 0)
(3 -2.10565e-15 0)
(3 -1.63916e-15 0)
(3 -1.05949e-15 0)
(3 -5.35986e-16 0)
(3 7.24193e-16 0)
(3 1.14447e-15 0)
(3 1.47053e-15 0)
(3 2.07373e-15 0)
(3 1.95164e-15 0)
(3 2.04501e-15 0)
(3 2.02521e-15 0)
(3 1.96849e-15 0)
(2.67638 0.17081 0)
(0.958916 0.252355 0)
(0.781706 0.237761 0)
(0.773583 0.228986 0)
(0.757641 0.22978 0)
(0.742673 0.22895 0)
(0.72642 0.228086 0)
(0.709623 0.227152 0)
(0.692884 0.227831 0)
(0.676834 0.230008 0)
(0.66161 0.232987 0)
(0.647304 0.237535 0)
(0.633187 0.242923 0)
(0.617921 0.246263 0)
(0.601812 0.246654 0)
(0.58576 0.246518 0)
(0.570513 0.247347 0)
(0.55587 0.249864 0)
(0.541485 0.254977 0)
(0.526649 0.261108 0)
(0.510741 0.264833 0)
(0.494732 0.266117 0)
(0.47934 0.268645 0)
(0.464861 0.273708 0)
(0.450485 0.279512 0)
(0.435487 0.284511 0)
(0.419909 0.289317 0)
(0.403972 0.294799 0)
(0.387881 0.300801 0)
(0.371799 0.306937 0)
(0.355772 0.31318 0)
(0.339622 0.319625 0)
(0.322988 0.326227 0)
(0.305495 0.332848 0)
(0.286915 0.339288 0)
(0.267274 0.345333 0)
(0.246808 0.350831 0)
(0.22575 0.355701 0)
(0.204198 0.359974 0)
(0.182105 0.363724 0)
(0.159399 0.3672 0)
(0.13596 0.370067 0)
(0.111909 0.373335 0)
(0.0872157 0.37578 0)
(0.0625443 0.380109 0)
(0.0374551 0.382742 0)
(0.0129202 0.387725 0)
(3 9.23946e-17 0)
(3 -4.98461e-17 0)
(3 -2.09188e-17 0)
(3 -2.00777e-16 0)
(3 -2.90675e-16 0)
(3 -2.49682e-16 0)
(3 -1.08776e-16 0)
(3 -3.95217e-17 0)
(3 -2.0444e-16 0)
(3 -2.21516e-16 0)
(3 3.2192e-17 0)
(3 -4.13058e-16 0)
(3 -7.27172e-16 0)
(3 -7.2773e-16 0)
(3 -2.90401e-16 0)
(3 6.33754e-16 0)
(3 6.21012e-16 0)
(3 1.32964e-16 0)
(3 -4.23563e-16 0)
(3 -4.17608e-16 0)
(3 -2.31078e-17 0)
(3 1.6323e-16 0)
(3 5.29616e-16 0)
(3 2.6335e-16 0)
(3 -1.88351e-16 0)
(3 2.3475e-17 0)
(3 1.04258e-16 0)
(3 -7.89666e-18 0)
(3 2.18868e-16 0)
(3 4.34278e-16 0)
(3 3.34863e-16 0)
(3 1.97097e-16 0)
(3 6.85005e-17 0)
(3 -4.45601e-17 0)
(3 -4.84891e-16 0)
(3 -4.28116e-16 0)
(3 -7.42828e-16 0)
(3 -8.04646e-16 0)
(3 -8.18157e-16 0)
(3 -5.43872e-16 0)
(3 2.01113e-17 0)
(3 1.30445e-15 0)
(3 2.64447e-15 0)
(3 2.95791e-15 0)
(3 2.83495e-15 0)
(3 2.62784e-15 0)
(3 2.11455e-15 0)
(3 2.74171e-15 0)
(3 2.49598e-15 0)
(3.02065 0.0106022 0)
(1.14682 0.28047 0)
(0.807441 0.234469 0)
(0.794746 0.248272 0)
(0.781334 0.254993 0)
(0.767047 0.257783 0)
(0.751871 0.258881 0)
(0.736021 0.258553 0)
(0.719849 0.25864 0)
(0.703901 0.259522 0)
(0.688449 0.260801 0)
(0.67377 0.264061 0)
(0.660025 0.269671 0)
(0.645808 0.274924 0)
(0.630375 0.277341 0)
(0.614473 0.277313 0)
(0.598872 0.276932 0)
(0.583625 0.278598 0)
(0.568783 0.283855 0)
(0.55385 0.291181 0)
(0.537618 0.296578 0)
(0.520789 0.298428 0)
(0.504333 0.300517 0)
(0.488843 0.305591 0)
(0.473793 0.312339 0)
(0.458062 0.318418 0)
(0.441548 0.323782 0)
(0.424627 0.329734 0)
(0.407675 0.33654 0)
(0.390923 0.343772 0)
(0.374401 0.351204 0)
(0.357913 0.358916 0)
(0.341049 0.366941 0)
(0.323351 0.375213 0)
(0.304499 0.383606 0)
(0.284427 0.391914 0)
(0.263323 0.399926 0)
(0.241405 0.407464 0)
(0.218767 0.414371 0)
(0.195406 0.420499 0)
(0.171349 0.426032 0)
(0.146458 0.430426 0)
(0.120882 0.434828 0)
(0.0943736 0.437706 0)
(0.0675738 0.442025 0)
(0.0403736 0.444398 0)
(0.0137931 0.449413 0)
(3 -6.57716e-17 0)
(3 9.12169e-18 0)
(3 2.80071e-16 0)
(3 3.11473e-16 0)
(3 3.10721e-16 0)
(3 4.21872e-16 0)
(3 5.27133e-16 0)
(3 4.33381e-16 0)
(3 4.88548e-17 0)
(3 -1.09481e-16 0)
(3 -4.08479e-16 0)
(3 -1.12182e-16 0)
(3 4.53637e-16 0)
(3 5.68205e-16 0)
(3 4.1994e-16 0)
(3 1.16584e-16 0)
(3 -2.57575e-16 0)
(3 -4.24461e-16 0)
(3 -5.52774e-16 0)
(3 -8.07586e-16 0)
(3 -9.09128e-16 0)
(3 -6.25573e-16 0)
(3 -1.6774e-16 0)
(3 -3.07894e-17 0)
(3 -4.32566e-17 0)
(3 -3.09953e-16 0)
(3 -1.24559e-15 0)
(3 -1.81139e-15 0)
(3 -2.36071e-15 0)
(3 -2.00521e-15 0)
(3 -1.41377e-15 0)
(3 -6.82687e-16 0)
(3 5.21562e-16 0)
(3 1.08561e-15 0)
(3 8.0197e-16 0)
(3 2.6874e-16 0)
(3 4.28797e-16 0)
(3 6.39735e-16 0)
(3 7.3824e-16 0)
(3 6.3498e-16 0)
(3 6.53172e-16 0)
(3 1.03008e-15 0)
(3 1.78251e-15 0)
(3 2.64962e-15 0)
(3 3.4091e-15 0)
(3 3.23735e-15 0)
(3 2.81519e-15 0)
(3 2.86968e-15 0)
(3 2.33949e-15 0)
(3.00031 1.03017e-05 0)
(1.55764 0.311951 0)
(0.824653 0.278935 0)
(0.780669 0.277723 0)
(0.768718 0.284821 0)
(0.755565 0.288325 0)
(0.742748 0.290628 0)
(0.729408 0.291735 0)
(0.715613 0.292693 0)
(0.701628 0.293789 0)
(0.687693 0.294575 0)
(0.674065 0.296594 0)
(0.6614 0.301601 0)
(0.649267 0.308213 0)
(0.63614 0.313033 0)
(0.622159 0.31444 0)
(0.608003 0.314016 0)
(0.593751 0.314961 0)
(0.579763 0.319713 0)
(0.566241 0.327597 0)
(0.551687 0.334617 0)
(0.536041 0.337653 0)
(0.520372 0.339475 0)
(0.505382 0.343981 0)
(0.491153 0.351064 0)
(0.476369 0.358142 0)
(0.460497 0.364095 0)
(0.443934 0.37026 0)
(0.427185 0.377489 0)
(0.410597 0.385536 0)
(0.394208 0.39399 0)
(0.377841 0.402802 0)
(0.361165 0.412078 0)
(0.343784 0.421862 0)
(0.32541 0.432152 0)
(0.305929 0.442755 0)
(0.285482 0.453364 0)
(0.264265 0.463673 0)
(0.242182 0.47333 0)
(0.21908 0.481943 0)
(0.195037 0.489818 0)
(0.169358 0.496549 0)
(0.142029 0.503743 0)
(0.112165 0.509751 0)
(0.0806401 0.516094 0)
(0.0480289 0.519228 0)
(0.0161761 0.524074 0)
(3 -8.18917e-17 0)
(3 2.02251e-16 0)
(3 3.04706e-16 0)
(3 6.68002e-16 0)
(3 9.78566e-16 0)
(3 9.92643e-16 0)
(3 1.25846e-15 0)
(3 1.33808e-15 0)
(3 1.5685e-15 0)
(3 1.47315e-15 0)
(3 1.15828e-15 0)
(3 9.78958e-16 0)
(3 8.48956e-16 0)
(3 6.93508e-16 0)
(3 4.98259e-16 0)
(3 5.45268e-17 0)
(3 -1.96945e-16 0)
(3 -2.78487e-16 0)
(3 -4.77341e-16 0)
(3 -1.39882e-15 0)
(3 -1.8584e-15 0)
(3 -1.70134e-15 0)
(3 -1.29232e-15 0)
(3 -9.9061e-16 0)
(3 -8.24578e-16 0)
(3 -1.31586e-15 0)
(3 -2.13315e-15 0)
(3 -2.19643e-15 0)
(3 -1.67902e-15 0)
(3 -1.39306e-15 0)
(3 -1.24671e-15 0)
(3 -1.12709e-15 0)
(3 -2.8913e-16 0)
(3 -3.05902e-16 0)
(3 -2.27164e-16 0)
(3 -1.92457e-16 0)
(3 1.61987e-15 0)
(3 1.95144e-15 0)
(3 2.17954e-15 0)
(3 2.40621e-15 0)
(3 2.47569e-15 0)
(3 1.57952e-15 0)
(3 1.31507e-15 0)
(3 1.48364e-15 0)
(3 6.1675e-16 0)
(3 1.07848e-15 0)
(3 1.86028e-15 0)
(3 1.7827e-15 0)
(3 1.81333e-15 0)
(3 1.80822e-08 0)
(2.38437 0.283806 0)
(0.919448 0.339782 0)
(0.792894 0.313114 0)
(0.780253 0.309774 0)
(0.766956 0.313682 0)
(0.754602 0.317964 0)
(0.742026 0.320895 0)
(0.729213 0.322866 0)
(0.716106 0.32453 0)
(0.702689 0.325498 0)
(0.689181 0.326693 0)
(0.676281 0.330534 0)
(0.664668 0.337096 0)
(0.652993 0.343436 0)
(0.640319 0.346672 0)
(0.627077 0.347145 0)
(0.613395 0.347941 0)
(0.599661 0.352102 0)
(0.586656 0.360062 0)
(0.573444 0.368688 0)
(0.55899 0.373971 0)
(0.544146 0.376615 0)
(0.529618 0.380849 0)
(0.515971 0.388146 0)
(0.50231 0.39662 0)
(0.487506 0.404129 0)
(0.471681 0.411269 0)
(0.455323 0.419345 0)
(0.438907 0.428557 0)
(0.422583 0.438471 0)
(0.40619 0.448806 0)
(0.389473 0.459679 0)
(0.372243 0.471208 0)
(0.354189 0.483567 0)
(0.334998 0.496716 0)
(0.314666 0.510475 0)
(0.292872 0.524568 0)
(0.269604 0.538728 0)
(0.244578 0.552512 0)
(0.217725 0.566122 0)
(0.188609 0.578961 0)
(0.157846 0.592017 0)
(0.125488 0.603858 0)
(0.0916623 0.613376 0)
(0.0560681 0.618324 0)
(0.0180743 0.621309 0)
(3 6.73863e-17 0)
(3 7.73001e-17 0)
(3 1.61084e-16 0)
(3 3.50538e-16 0)
(3 6.93877e-16 0)
(3 8.42038e-16 0)
(3 7.84347e-16 0)
(3 9.60982e-16 0)
(3 8.25073e-16 0)
(3 1.14908e-15 0)
(3 1.33491e-15 0)
(3 9.82895e-16 0)
(3 6.42214e-16 0)
(3 1.83281e-16 0)
(3 -1.4812e-16 0)
(3 -2.08789e-16 0)
(3 2.07931e-16 0)
(3 3.37048e-16 0)
(3 -7.28706e-17 0)
(3 -6.30904e-16 0)
(3 -9.6998e-16 0)
(3 -1.38224e-15 0)
(3 -1.62421e-15 0)
(3 -1.495e-15 0)
(3 -1.85758e-15 0)
(3 -1.46818e-15 0)
(3 -8.90138e-16 0)
(3 -1.71485e-16 0)
(3 1.28739e-16 0)
(3 -1.88326e-17 0)
(3 -2.90142e-16 0)
(3 -2.41003e-16 0)
(3 1.06499e-16 0)
(3 6.43254e-16 0)
(3 1.41569e-15 0)
(3 1.71673e-15 0)
(3 1.56397e-15 0)
(3 1.55321e-15 0)
(3 1.49425e-15 0)
(3 2.25978e-15 0)
(3 2.1362e-15 0)
(3 9.86659e-16 0)
(3 -1.9537e-16 0)
(3 -1.8875e-15 0)
(3 -2.63428e-15 0)
(3 -1.94231e-15 0)
(3 -7.96292e-16 0)
(3 -9.6004e-17 0)
(3 4.3691e-16 0)
(3 -7.21215e-09 0)
(3.02886 0.0178246 0)
(1.25295 0.378807 0)
(0.842478 0.322905 0)
(0.821706 0.330381 0)
(0.805855 0.336188 0)
(0.791224 0.34103 0)
(0.777353 0.344606 0)
(0.76367 0.347435 0)
(0.749904 0.35044 0)
(0.735728 0.353256 0)
(0.72121 0.355285 0)
(0.707017 0.35822 0)
(0.694192 0.363777 0)
(0.682435 0.370572 0)
(0.670202 0.375953 0)
(0.657067 0.378806 0)
(0.643283 0.380747 0)
(0.629225 0.384745 0)
(0.615783 0.392372 0)
(0.60299 0.401901 0)
(0.589521 0.409572 0)
(0.575411 0.414024 0)
(0.561369 0.418396 0)
(0.548036 0.425493 0)
(0.535328 0.434936 0)
(0.521931 0.444591 0)
(0.507291 0.453579 0)
(0.491775 0.462953 0)
(0.475897 0.473494 0)
(0.459916 0.485094 0)
(0.443892 0.497348 0)
(0.42759 0.51026 0)
(0.41097 0.524053 0)
(0.393728 0.538964 0)
(0.3757 0.555258 0)
(0.356673 0.572944 0)
(0.33644 0.591919 0)
(0.314903 0.611999 0)
(0.29187 0.632532 0)
(0.267299 0.652849 0)
(0.240891 0.67164 0)
(0.212051 0.687828 0)
(0.180805 0.703464 0)
(0.143574 0.721793 0)
(0.0972138 0.74394 0)
(0.0373106 0.763311 0)
(3 -6.21808e-17 0)
(3 -1.75828e-16 0)
(3 -2.25312e-16 0)
(3 -3.99639e-16 0)
(3 -3.80444e-16 0)
(3 -1.67927e-16 0)
(3 -4.80057e-16 0)
(3 -9.06735e-16 0)