/*--------------------------------*- C++ -*----------------------------------*\
  =========                 |
  \\      /  F ield         | OpenFOAM: The Open Source CFD Toolbox
   \\    /   O peration     | Website:  https://openfoam.org
    \\  /    A nd           | Version:  7
     \\/     M anipulation  |
\*---------------------------------------------------------------------------*/
FoamFile
{
    version     2.0;
    format      ascii;
    class       volScalarField;
    location    "7.5";
    object      p;
}
// * * * * * * * * * * * * * * * * * * * * * * * * * * * * * * * * * * * * * //

dimensions      [1 -1 -2 0 0 0 0];

internalField   nonuniform List<scalar> 
19968
(
1
1
1
1
1
1
1
1
1
1
1
1
1
1
1
1
1
1
1
1
1
1
1
1
1
1
1
1
1
1
1
1
1
1
1
1
1
1
1
1
1
1
1
1
1
1
1
1
1.54196
8.03261
10.4274
10.4678
10.531
10.5869
10.639
10.6889
10.741
10.7967
10.8551
10.914
10.9708
11.0249
11.0769
11.1274
11.1751
11.219
11.2615
11.3046
11.3482
11.3913
11.4332
11.4737
11.5134
11.553
11.5923
11.6309
11.6678
11.7024
11.7341
11.7628
11.7888
11.813
11.8365
11.8604
11.8849
11.9092
11.932
11.9523
11.9699
11.9851
11.9987
12.0112
12.0226
12.0322
12.0396
12.0452
1
1
1
1
1
1
1
1
1
1
1
1
1
1
1
1
1
1
1
1
1
1
1
1
1
1
1
1
1
1
1
1
1
1
1
1
1
1
1
1
1
1
1
1
1
1
1
1
1.51513
7.9715
10.4196
10.4649
10.5286
10.5843
10.6363
10.6863
10.7384
10.7935
10.8512
10.9095
10.9659
11.0199
11.0717
11.122
11.1694
11.2135
11.2564
11.3
11.3439
11.3873
11.4292
11.4698
11.5094
11.5488
11.5881
11.6266
11.6635
11.698
11.7297
11.7583
11.7844
11.8086
11.8321
11.8559
11.8801
11.9041
11.9267
11.9468
11.9642
11.9792
11.9925
12.0047
12.0158
12.0252
12.0322
12.0376
1
1
1
1
1
1
1
1
1
1
1
1
1
1
1
1
1
1
1
1
1
1
1
1
1
1
1
1
1
1
1
1
1
1
1
1
1
1
1
1
1
1
1
1
1
1
1
1
1.45201
7.83517
10.4122
10.4541
10.5186
10.5745
10.6277
10.6787
10.7309
10.7857
10.8428
10.9007
10.9565
11.0104
11.0619
11.1119
11.1589
11.2032
11.2464
11.2904
11.3348
11.3786
11.421
11.4618
11.5014
11.5407
11.5798
11.6182
11.655
11.6895
11.7212
11.7499
11.7761
11.8004
11.8239
11.8474
11.8712
11.8949
11.9174
11.9375
11.9549
11.9699
11.9831
11.9951
12.0059
12.0149
12.0216
12.0267
1
1
1
1
1
1
1
1
1
1
1
1
1
1
1
1
1
1
1
1
1
1
1
1
1
1
1
1
1
1
1
1
1
1
1
1
1
1
1
1
1
1
1
1
1
1
1
1
1.35962
7.6059
10.4013
10.4422
10.506
10.5624
10.617
10.669
10.7217
10.7762
10.8328
10.8902
10.9452
10.9987
11.0495
11.0988
11.1453
11.1894
11.2327
11.2768
11.3215
11.3659
11.4089
11.4501
11.4899
11.5292
11.568
11.6062
11.6428
11.6772
11.7088
11.7376
11.7638
11.7879
11.811
11.8337
11.8567
11.8797
11.9017
11.9215
11.9388
11.9537
11.9669
11.9788
11.9895
11.9984
12.005
12.01
1
1
1
1
1
1
1
1
1
1
1
1
1
1
1
1
1
1
1
1
1
1
1
1
1
1
1
1
1
1
1
1
1
1
1
1
1
1
1
1
1
1
1
1
1
1
1
1
1.2378
7.28179
10.3948
10.4316
10.4947
10.5504
10.605
10.6571
10.7096
10.764
10.8205
10.8778
10.9324
10.9856
11.0359
11.0845
11.1301
11.1737
11.2165
11.26
11.3045
11.3491
11.3928
11.4348
11.4752
11.5146
11.5534
11.5913
11.6277
11.6621
11.6939
11.723
11.7494
11.7735
11.7961
11.8183
11.8405
11.8627
11.8838
11.9029
11.9192
11.9331
11.9451
11.9558
11.9653
11.9732
11.9788
11.9832
1
1
1
1
1
1
1
1
1
1
1
1
1
1
1
1
1
1
1
1
1
1
1
1
1
1
1
1
1
1
1
1
1
1
1
1
1
1
1
1
1
1
1
1
1
1
1
1
1.03903
6.78133
10.3876
10.4248
10.4837
10.5417
10.5979
10.6512
10.7038
10.7577
10.8132
10.8692
10.9228
10.9751
11.0245
11.0721
11.1162
11.1579
11.1989
11.2404
11.2833
11.327
11.3704
11.4124
11.4528
11.4919
11.5299
11.5668
11.6025
11.6364
11.668
11.697
11.7232
11.7469
11.7691
11.7907
11.8126
11.8346
11.8557
11.8748
11.8913
11.9053
11.9173
11.9277
11.9367
11.9439
11.9488
11.9527
1
1
1
1
1
1
1
1
1
1
1
1
1
1
1
1
1
1
1
1
1
1
1
1
1
1
1
1
1
1
1
1
1
1
1
1
1
1
1
1
1
1
1
1
1
1
1
1
1.00041
6.05806
10.2996
10.3813
10.4369
10.5007
10.5588
10.6136
10.6668
10.721
10.7769
10.8332
10.8871
10.9397
10.9893
11.0371
11.0811
11.1224
11.1626
11.2028
11.2442
11.2871
11.3305
11.3732
11.4144
11.4539
11.4919
11.5285
11.5638
11.5976
11.6292
11.6582
11.6842
11.7078
11.7298
11.7513
11.7732
11.7953
11.8165
11.8357
11.8523
11.8663
11.8781
11.8881
11.8962
11.9024
11.9063
11.9096
1
1
1
1
1
1
1
1
1
1
1
1
1
1
1
1
1
1
1
1
1
1
1
1
1
1
1
1
1
1
1
1
1
1
1
1
1
1
1
1
1
1
1
1
1
1
1
1
1
5.1013
10.1543
10.3503
10.4017
10.473
10.5338
10.5906
10.645
10.6985
10.753
10.8075
10.8602
10.9119
10.9607
11.0081
11.0517
11.0918
11.1306
11.1688
11.208
11.2492
11.2919
11.3343
11.3754
11.4144
11.4516
11.4872
11.5216
11.5548
11.5859
11.6142
11.6395
11.6623
11.6837
11.7049
11.7265
11.7483
11.7692
11.7883
11.8048
11.8187
11.8303
11.8395
11.8464
11.8513
11.8538
11.8563
1
1
1
1
1
1
1
1
1
1
1
1
1
1
1
1
1
1
1
1
1
1
1
1
1
1
1
1
1
1
1
1
1
1
1
1
1
1
1
1
1
1
1
1
1
1
1
1
1
4.00051
9.86116
10.3206
10.3709
10.4457
10.5069
10.5641
10.6188
10.6714
10.724
10.7762
10.8272
10.8774
10.9251
10.9716
11.0151
11.0541
11.0909
11.1267
11.1629
11.2014
11.242
11.283
11.3228
11.3606
11.3964
11.4305
11.4638
11.4961
11.5264
11.5538
11.5781
11.5998
11.6204
11.641
11.6621
11.6835
11.7044
11.7237
11.7407
11.7551
11.7667
11.7755
11.7813
11.7849
11.786
11.7877
1
1
1
1
1
1
1
1
1
1
1
1
1
1
1
1
1
1
1
1
1
1
1
1
1
1
1
1
1
1
1
1
1
1
1
1
1
1
1
1
1
1
1
1
1
1
1
1
1
2.85303
9.31623
10.3003
10.3697
10.4402
10.4961
10.5481
10.5987
10.6484
10.6979
10.7467
10.7947
10.8422
10.8879
10.933
10.9763
11.0147
11.0499
11.0831
11.1162
11.1514
11.1893
11.2276
11.2648
11.2998
11.3325
11.3635
11.3938
11.4236
11.452
11.4779
11.5009
11.5216
11.5414
11.5613
11.5819
11.6029
11.6235
11.6427
11.6597
11.6737
11.6844
11.6918
11.6958
11.6976
11.6973
11.6977
1
1
1
1
1
1
1
1
1
1
1
1
1
1
1
1
1
1
1
1
1
1
1
1
1
1
1
1
1
1
1
1
1
1
1
1
1
1
1
1
1
1
1
1
1
1
1
1
1
1.82417
8.36842
10.3401
10.3391
10.4054
10.4567
10.5072
10.5567
10.6057
10.6537
10.7014
10.7487
10.7954
10.8411
10.8858
10.9292
10.9678
11.0023
11.0339
11.0649
11.0972
11.1325
11.1687
11.2037
11.236
11.2656
11.2929
11.3192
11.345
11.3698
11.3924
11.4121
11.4295
11.4455
11.4616
11.4784
11.4962
11.5146
11.5327
11.5494
11.5634
11.5741
11.5811
11.5846
11.5861
11.5855
11.5856
1
1
1
1
1
1
1
1
1
1
1
1
1
1
1
1
1
1
1
1
1
1
1
1
1
1
1
1
1
1
1
1
1
1
1
1
1
1
1
1
1
1
1
1
1
1
1
1
1
1.03153
6.70217
10.3587
10.3804
10.4108
10.4494
10.4903
10.5323
10.5765
10.6207
10.6643
10.7066
10.7479
10.7886
10.8291
10.8695
10.9065
10.9388
10.9673
10.9945
11.0226
11.0538
11.0868
11.1187
11.1483
11.1749
11.199
11.2214
11.2433
11.2646
11.2845
11.3019
11.317
11.3306
11.3439
11.358
11.3734
11.3898
11.4059
11.4196
11.4291
11.4339
11.4348
11.4327
11.4301
11.4273
11.4261
1
1
1
1
1
1
1
1
1
1
1
1
1
1
1
1
1
1
1
1
1
1
1
1
1
1
1
1
1
1
1
1
1
1
1
1
1
1
1
1
1
1
1
1
1
1
1
1
1
1.00006
4.62812
9.92543
10.1905
10.2589
10.3261
10.3798
10.4276
10.4726
10.5168
10.5595
10.6008
10.6408
10.6805
10.7211
10.762
10.8004
10.834
10.8626
10.8887
10.9152
10.9438
10.9745
11.0044
11.0324
11.0572
11.0787
11.0976
11.1151
11.1319
11.1476
11.1612
11.1724
11.1814
11.189
11.196
11.2033
11.2114
11.2194
11.2253
11.2282
11.2284
11.2274
11.2254
11.2248
11.2239
11.2244
1
1
1
1
1
1
1
1
1
1
1
1
1
1
1
1
1
1
1
1
1
1
1
1
1
1
1
1
1
1
1
1
1
1
1
1
1
1
1
1
1
1
1
1
1
1
1
1
1
1
2.41304
8.8092
10.1249
10.1851
10.2704
10.3286
10.376
10.4177
10.4578
10.4971
10.5353
10.5715
10.6069
10.6439
10.682
10.7185
10.7507
10.7773
10.7994
10.8208
10.8431
10.8672
10.8915
10.9145
10.9349
10.9518
10.965
10.9755
10.9841
10.9916
10.9979
11.0023
11.005
11.0061
11.0059
11.0068
11.0084
11.0099
11.0091
11.0032
10.9905
10.973
10.9496
10.9246
10.9003
10.8797
1
1
1
1
1
1
1
1
1
1
1
1
1
1
1
1
1
1
1
1
1
1
1
1
1
1
1
1
1
1
1
1
1
1
1
1
1
1
1
1
1
1
1
1
1
1
1
1
1
1
1.0608
6.43094
10.2088
10.2345
10.2575
10.2894
10.3185
10.349
10.3818
10.4167
10.4509
10.4824
10.5117
10.5416
10.5739
10.6068
10.6367
10.6613
10.6797
10.6952
10.7107
10.7271
10.7446
10.7611
10.7761
10.7887
10.7974
10.8013
10.8007
10.7981
10.7938
10.7879
10.78
10.7695
10.7567
10.7424
10.7247
10.7012
10.6685
10.6247
10.572
10.5161
10.4691
10.4304
10.4129
10.4064
1
1
1
1
1
1
1
1
1
1
1
1
1
1
1
1
1
1
1
1
1
1
1
1
1
1
1
1
1
1
1
1
1
1
1
1
1
1
1
1
1
1
1
1
1
1
1
1
1
1
1.00009
3.32823
9.27052
10.0378
10.0996
10.1536
10.1963
10.2333
10.2664
10.2986
10.3313
10.3637
10.3948
10.4249
10.4552
10.4857
10.513
10.5345
10.5494
10.5599
10.5683
10.5758
10.5832
10.5898
10.5957
10.6016
10.6058
10.6025
10.5931
10.5784
10.5593
10.5365
10.5106
10.4818
10.4502
10.4151
10.3739
10.3233
10.2617
10.1907
10.1134
10.0344
9.94468
9.86048
9.74485
9.83615
1
1
1
1
1
1
1
1
1
1
1
1
1
1
1
1
1
1
1
1
1
1
1
1
1
1
1
1
1
1
1
1
1
1
1
1
1
1
1
1
1
1
1
1
1
1
1
1
1
1
1
1.25171
7.35473
10.0761
10.0614
10.0909
10.128
10.1612
10.1906
10.2174
10.2449
10.2726
10.2995
10.3253
10.3503
10.375
10.3975
10.4148
10.4263
10.4323
10.4331
10.4324
10.4304
10.4272
10.4233
10.4202
10.4161
10.4067
10.3903
10.366
10.3331
10.2928
10.2466
10.196
10.141
10.0796
10.0063
9.91502
9.79734
9.64982
9.4554
9.20118
8.82603
8.27085
7.34432
5.46154
1
1
1
1
1
1
1
1
1
1
1
1
1
1
1
1
1
1
1
1
1
1
1
1
1
1
1
1
1
1
1
1
1
1
1
1
1
1
1
1
1
1
1
1
1
1
1
1
1
1
1
1.0022
4.64766
9.57349
9.92977
9.9809
10.0377
10.0746
10.0979
10.115
10.1366
10.1607
10.1859
10.211
10.2356
10.2592
10.2807
10.2967
10.3064
10.3094
10.3052
10.2997
10.2933
10.2849
10.2738
10.2608
10.2465
10.229
10.2057
10.1741
10.1316
10.0775
10.0131
9.94123
9.86194
9.77381
9.66777
9.53781
9.3673
9.15597
8.87388
8.51675
8.00253
7.34205
6.12848
4.51794
1
1
1
1
1
1
1
1
1
1
1
1
1
1
1
1
1
1
1
1
1
1
1
1
1
1
1
1
1
1
1
1
1
1
1
1
1
1
1
1
1
1
1
1
1
1
1
1
1
1
1
0.999995
1.93681
8.14433
9.90719
9.91554
9.97602
10.0124
10.0336
10.0451
10.0622
10.0821
10.1036
10.1248
10.1447
10.1625
10.1781
10.1904
10.1965
10.1946
10.1843
10.1712
10.1588
10.1451
10.1279
10.1059
10.0801
10.0511
10.0177
9.97652
9.92374
9.85696
9.77559
9.68365
9.57975
9.46498
9.3279
9.16335
8.95337
8.6939
8.36668
7.94643
7.41445
6.65248
5.64698
4.5391
1
1
1
1
1
1
1
1
1
1
1
1
1
1
1
1
1
1
1
1
1
1
1
1
1
1
1
1
1
1
1
1
1
1
1
1
1
1
1
1
1
1
1
1
1
1
1
1
1
1
1
0.999999
1.03297
5.36469
9.7492
9.84046
9.87491
9.90917
9.93522
9.95555
9.97757
9.99743
10.0155
10.0328
10.0484
10.0608
10.07
10.0764
10.0781
10.0722
10.0574
10.038
10.0177
9.99664
9.97283
9.94443
9.91054
9.87204
9.82796
9.77631
9.71223
9.63406
9.53902
9.43103
9.30703
9.16842
9.00629
8.81469
8.58116
8.29636
7.95098
7.51995
6.99163
6.32445
5.54798
4.71614
1
1
1
1
1
1
1
1
1
1
1
1
1
1
1
1
1
1
1
1
1
1
1
1
1
1
1
1
1
1
1
1
1
1
1
1
1
1
1
1
1
1
1
1
1
1
1
1
1
1
1
1
1.00001
2.15837
8.38612
9.84421
9.81676
9.84808
9.86877
9.88306
9.89984
9.91626
9.9306
9.94367
9.95508
9.95949
9.9599
9.95757
9.95347
9.94585
9.9319
9.91104
9.88387
9.85254
9.81873
9.78299
9.74272
9.69734
9.64413
9.58202
9.50618
9.41686
9.31098
9.19123
9.05431
8.89918
8.72047
8.5118
8.26691
7.97627
7.63627
7.22454
6.73978
6.18671
5.58475
4.92312
1
1
1
1
1
1
1
1
1
1
1
1
1
1
1
1
1
1
1
1
1
1
1
1
1
1
1
1
1
1
1
1
1
1
1
1
1
1
1
1
1
1
1
1
1
1
1
1
1
1
1
1
0.999999
1.04377
5.41945
9.68885
9.75625
9.78384
9.79741
9.81013
9.82272
9.83427
9.84355
9.85175
9.85917
9.85907
9.85185
9.84061
9.82791
9.8147
9.80072
9.78067
9.75035
9.71148
9.66796
9.62427
9.578
9.5271
9.46643
9.39448
9.30753
9.20781
9.0935
8.96581
8.82195
8.65883
8.47213
8.25628
8.00935
7.7229
7.40628
7.02116
6.59957
6.13829
5.65245
5.12122
1
1
1
1
1
1
1
1
1
1
1
1
1
1
1
1
1
1
1
1
1
1
1
1
1
1
1
1
1
1
1
1
1
1
1
1
1
1
1
1
1
1
1
1
1
1
1
1
1
1
1
1
1
1.00004
2.02949
8.20614
9.71776
9.70206
9.71921
9.72903
9.7357
9.74027
9.74347
9.74556
9.75117
9.75008
9.73689
9.71833
9.69751
9.67725
9.65987
9.6399
9.60991
9.56878
9.52013
9.47009
9.41778
9.36129
9.29417
9.21399
9.11874
9.01131
8.89125
8.75837
8.61104
8.44655
8.26053
8.04751
7.8082
7.53085
7.23544
6.88798
6.52569
6.13065
5.72305
5.27404
1
1
1
1
1
1
1
1
1
1
1
1
1
1
1
1
1
1
1
1
1
1
1
1
1
1
1
1
1
1
1
1
1
1
1
1
1
1
1
1
1
1
1
1
1
1
1
1
1
1
1
1
1
1
1.03294
4.8939
9.42251
9.60729
9.62869
9.64476
9.65888
9.66253
9.66119
9.65781
9.66155
9.65951
9.6438
9.61839
9.58962
9.5598
9.53224
9.50556
9.47154
9.42869
9.37883
9.32562
9.26873
9.2065
9.13266
9.04506
8.94367
8.83145
8.70839
8.57281
8.42377
8.25974
8.07819
7.87339
7.64717
7.38469
7.1093
6.8012
6.48509
6.13641
5.78233
5.40453
1
1
1
1
1
1
1
1
1
1
1
1
1
1
1
1
1
1
1
1
1
1
1
1
1
1
1
1
1
1
1
1
1
1
1
1
1
1
1
1
1
1
1
1
1
1
1
1
1
1
1
1
1
1
1.00002
1.53925
7.61564
9.65889
9.60925
9.59225
9.58632
9.57745
9.5658
9.55594
9.55373
9.54785
9.5313
9.50507
9.47511
9.4425
9.40686
9.3726
9.3332
9.28959
9.2402
9.18515
9.12377
9.05596
8.97661
8.88452
8.78021
8.66591
8.54253
8.40734
8.25947
8.0977
7.92342
7.72698
7.51443
7.27421
7.01976
6.74709
6.46191
6.14461
5.84004
5.51071
1
1
1
1
1
1
1
1
1
1
1
1
1
1
1
1
1
1
1
1
1
1
1
1
1
1
1
1
1
1
1
1
1
1
1
1
1
1
1
1
1
1
1
1
1
1
1
1
1
1
1
1
1
1
1
1.00857
3.90033
9.00481
9.40288
9.4423
9.47069
9.47159
9.46091
9.44546
9.43543
9.42579
9.41063
9.38987
9.36382
9.33234
9.29238
9.24994
9.20326
9.15731
9.10631
9.04894
8.98382
8.91231
8.82954
8.73586
8.63112
8.51643
8.39456
8.26185
8.11745
7.95908
7.79202
7.60108
7.40132
7.18422
6.95325
6.70652
6.44799
6.16484
5.893
5.60147
1
1
1
1
1
1
1
1
1
1
1
1
1
1
1
1
1
1
1
1
1
1
1
1
1
1
1
1
1
1
1
1
1
1
1
1
1
1
1
1
1
1
1
1
1
1
1
1
1
1
1
1
1
1
1
1
1.22122
6.28272
9.35459
9.38721
9.38373
9.37755
9.37205
9.35436
9.33667
9.3232
9.30601
9.28574
9.26143
9.2311
9.19099
9.14323
9.09006
9.04046
8.98404
8.92034
8.852
8.77779
8.69261
8.59956
8.49633
8.38246
8.26224
8.13141
7.99349
7.83825
7.67815
7.49507
7.30737
7.11054
6.89881
6.67108
6.44093
6.19299
5.93905
5.67815
1
1
1
1
1
1
1
1
1
1
1
1
1
1
1
1
1
1
1
1
1
1
1
1
1
1
1
1
1
1
1
1
1
1
1
1
1
1
1
1
1
1
1
1
1
1
1
1
1
1
1
1
1
1
1
1
1.00149
2.18705
8.01573
9.30131
9.25197
9.2687
9.26953
9.25833
9.24101
9.2256
9.2056
9.18185
9.15628
9.12585
9.08702
9.03887
8.98328
8.93061
8.86943
8.7997
8.72617
8.64942
8.56308
8.47171
8.37119
8.26126
8.14265
8.01468
7.88448
7.7312
7.57663
7.40523
7.22906
7.04701
6.84869
6.64302
6.43767
6.21358
5.97622
5.74781
1
1
1
1
1
1
1
1
1
1
1
1
1
1
1
1
1
1
1
1
1
1
1
1
1
1
1
1
1
1
1
1
1
1
1
1
1
1
1
1
1
1
1
1
1
1
1
1
1
1
1
1
1
1
1
1
1
1.04005
4.17853
8.87871
9.15984
9.17824
9.18598
9.17731
9.16365
9.14764
9.12177
9.08932
9.05766
9.02347
8.98298
8.93562
8.88042
8.82515
8.76425
8.69203
8.61577
8.5367
8.45211
8.35984
8.26122
8.15521
8.03895
7.9165
7.78467
7.63914
7.48967
7.3294
7.1637
6.99122
6.80818
6.62202
6.43023
6.22523
6.00973
5.80659
1
1
1
1
1
1
1
1
1
1
1
1
1
1
1
1
1
1
1
1
1
1
1
1
1
1
1
1
1
1
1
1
1
1
1
1
1
1
1
1
1
1
1
1
1
1
1
1
1
1
1
1
1
1
1
1
1
1.00008
1.25842
5.73236
8.99031
9.14777
9.13987
9.1269
9.10911
9.08591
9.05353
9.01317
8.97107
8.92938
8.88453
8.8356
8.78043
8.72298
8.6658
8.59473
8.5197
8.43909
8.35451
8.2617
8.16224
8.05742
7.94453
7.82342
7.69498
7.55834
7.41538
7.26463
7.10805
6.94325
6.77567
6.60213
6.42081
6.23359
6.04061
5.85107
1
1
1
1
1
1
1
1
1
1
1
1
1
1
1
1
1
1
1
1
1
1
1
1
1
1
1
1
1
1
1
1
1
1
1
1
1
1
1
1
1
1
1
1
1
1
1
1
1
1
1
1
1
1
1
1
1
1
1.0021
1.63049
7.24189
9.15626
9.10221
9.0647
9.02336
8.98703
8.95029
8.91178
8.87027
8.82747
8.78437
8.73692
8.6826
8.62498
8.56909
8.50125
8.42827
8.34948
8.26593
8.17666
8.07703
7.97252
7.86074
7.74325
7.62006
7.49017
7.35375
7.21129
7.06233
6.90512
6.74912
6.58431
6.4149
6.24139
6.06632
5.88714
1
1
1
1
1
1
1
1
1
1
1
1
1
1
1
1
1
1
1
1
1
1
1
1
1
1
1
1
1
1
1
1
1
1
1
1
1
1
1
1
1
1
1
1
1
1
1
1
1
1
1
1
1
1
1
1
1
1
1
1.01144
3.05156
8.31252
8.95096
8.88771
8.86393
8.84522
8.82571
8.79913
8.7667
8.72756
8.68578
8.64179
8.5887
8.5335
8.47858
8.41314
8.34257
8.26595
8.18421
8.09692
7.99956
7.896
7.78616
7.67233
7.55352
7.42946
7.2996
7.16417
7.02203
6.87386
6.72638
6.56963
6.41269
6.25061
6.08885
5.91855
1
1
1
1
1
1
1
1
1
1
1
1
1
1
1
1
1
1
1
1
1
1
1
1
1
1
1
1
1
1
1
1
1
1
1
1
1
1
1
1
1
1
1
1
1
1
1
1
1
1
1
1
1
1
1
1
1
1
1
1.00002
1.1104
4.37547
8.59804
8.79046
8.76587
8.76942
8.75788
8.73604
8.70547
8.66585
8.62139
8.57577
8.52117
8.4652
8.40575
8.33823
8.26612
8.18932
8.10806
8.02264
7.92728
7.82677
7.72155
7.61196
7.49725
7.37798
7.25368
7.12399
6.98796
6.84898
6.70718
6.5573
6.41153
6.26054
6.1091
5.94835
1
1
1
1
1
1
1
1
1
1
1
1
1
1
1
1
1
1
1
1
1
1
1
1
1
1
1
1
1
1
1
1
1
1
1
1
1
1
1
1
1
1
1
1
1
1
1
1
1
1
1
1
1
1
1
1
1
1
1
1
1.00052
1.29705
5.19807
8.58957
8.71755
8.71651
8.70574
8.6817
8.65039
8.6101
8.56453
8.51438
8.45744
8.3981
8.33405
8.26504
8.19208
8.11495
8.03354
7.94841
7.85692
7.75872
7.65873
7.55479
7.44513
7.33074
7.21151
7.08727
6.95729
6.82605
6.68913
6.54628
6.4106
6.27044
6.12729
5.97642
1
1
1
1
1
1
1
1
1
1
1
1
1
1
1
1
1
1
1
1
1
1
1
1
1
1
1
1
1
1
1
1
1
1
1
1
1
1
1
1
1
1
1
1
1
1
1
1
1
1
1
1
1
1
1
1
1
1
1
1
1
1.00288
1.49373
5.87968
8.58927
8.69064
8.66119
8.63102
8.5957
8.55274
8.50686
8.45686
8.40076
8.33896
8.27252
8.20198
8.12773
8.04938
7.96739
7.88256
7.79375
7.69974
7.60317
7.50348
7.399
7.28989
7.17554
7.05615
6.93185
6.80531
6.67305
6.53823
6.41154
6.28064
6.14454
6.00281
1
1
1
1
1
1
1
1
1
1
1
1
1
1
1
1
1
1
1
1
1
1
1
1
1
1
1
1
1
1
1
1
1
1
1
1
1
1
1
1
1
1
1
1
1
1
1
1
1
1
1
1
1
1
1
1
1
1
1
1
1
1
1.0073
1.7221
6.46124
8.56543
8.61122
8.58161
8.53928
8.4952
8.44746
8.39614
8.33881
8.27638
8.20969
8.13923
8.06533
7.9874
7.9059
7.82183
7.73493
7.64508
7.5521
7.45517
7.35439
7.24996
7.14002
7.02544
6.90671
6.78478
6.65958
6.53333
6.41381
6.28979
6.15913
6.02454
1
1
1
1
1
1
1
1
1
1
1
1
1
1
1
1
1
1
1
1
1
1
1
1
1
1
1
1
1
1
1
1
1
1
1
1
1
1
1
1
1
1
1
1
1
1
1
1
1
1
1
1
1
1
1
1
1
1
1
1
1
1
1.00001
1.01474
1.98453
6.89986
8.5362
8.54215
8.50235
8.45002
8.39803
8.34234
8.28107
8.21731
8.15014
8.0802
8.00774
7.9318
7.85257
7.77072
7.6865
7.59991
7.50953
7.41451
7.31583
7.21384
7.10696
6.99647
6.88421
6.76923
6.65188
6.53281
6.41732
6.29769
6.17054
6.03968
1
1
1
1
1
1
1
1
1
1
1
1
1
1
1
1
1
1
1
1
1
1
1
1
1
1
1
1
1
1
1
1
1
1
1
1
1
1
1
1
1
1
1
1
1
1
1
1
1
1
1
1
1
1
1
1
1
1
1
1
1
1
1
1.00004
1.02651
2.24526
7.2881
8.49832
8.45661
8.40608
8.3428
8.28329
8.22073
8.15638
8.08905
8.02121
7.95149
7.87859
7.80231
7.72294
7.64096
7.55618
7.46752
7.37495
7.27878
7.17991
7.07756
6.97178
6.86514
6.7556
6.64373
6.5294
6.41486
6.29834
6.17607
6.05139
1
1
1
1
1
1
1
1
1
1
1
1
1
1
1
1
1
1
1
1
1
1
1
1
1
1
1
1
1
1
1
1
1
1
1
1
1
1
1
1
1
1
1
1
1
1
1
1
1
1
1
1
1
1
1
1
1
1
1
1
1
1
1
1
1.00008
1.04176
2.64465
7.5218
8.38616
8.33173
8.28745
8.22643
8.16294
8.09945
8.03573
7.97162
7.90507
7.83472
7.76044
7.68256
7.60151
7.51744
7.4299
7.33914
7.24609
7.15074
7.05231
6.94992
6.84668
6.7406
6.63164
6.52071
6.40958
6.30117
6.18875
6.07868
1
1
1
1
1
1
1
1
1
1
1
1
1
1
1
1
1
1
1
1
1
1
1
1
1
1
1
1
1
1
1
1
1
1
1
1
1
1
1
1
1
1
1
1
1
1
1
1
1
1
1
1
1
1
1
1
1
1
1
1
1
1
1
1
1
1.00015
1.07154
2.93222
7.57137
8.27061
8.21743
8.16137
8.10715
8.0506
7.99246
7.93106
7.86604
7.79691
7.72383
7.64713
7.56722
7.48457
7.39914
7.31131
7.22077
7.12697
7.03009
6.92871
6.8261
6.72225
6.61889
6.51634
6.41388
6.33135
6.26085
6.20348
1
1
1
1
1
1
1
1
1
1
1
1
1
1
1
1
1
1
1
1
1
1
1
1
1
1
1
1
1
1
1
1
1
1
1
1
1
1
1
1
1
1
1
1
1
1
1
1
1
1
1
1
1
1
1
1
1
1
1
1
1
1
1
1
1
1
1.00034
1.09966
3.02947
7.49722
8.15951
8.10982
8.06094
8.00968
7.95553
7.89656
7.83209
7.76293
7.69041
7.61475
7.53645
7.45553
7.37132
7.28465
7.19394
7.09941
7.00168
6.90188
6.80478
6.70988
6.62097
6.55365
6.5023
6.49242
6.51411
6.5967
1
1
1
1
1
1
1
1
1
1
1
1
1
1
1
1
1
1
1
1
1
1
1
1
1
1
1
1
1
1
1
1
1
1
1
1
1
1
1
1
1
1
1
1
1
1
1
1
1
1
1
1
1
1
1
1
1
1
1
1
1
1
1
1
1
1
1
1.00057
1.11224
2.97102
7.36775
8.07427
8.03043
7.98217
7.92476
7.86382
7.79863
7.72937
7.65807
7.58384
7.50701
7.42671
7.34256
7.25456
7.1621
7.06951
6.97739
6.88738
6.81097
6.75609
6.73885
6.76037
6.83843
6.96452
7.08981
7.20528
1
1
1
1
1
1
1
1
1
1
1
1
1
1
1
1
1
1
1
1
1
1
1
1
1
1
1
1
1
1
1
1
1
1
1
1
1
1
1
1
1
1
1
1
1
1
1
1
1
1
1
1
1
1
1
1
1
1
1
1
1
1
1
1
1
1
1
1
1.00071
1.1077
2.88866
7.18947
7.9831
7.94765
7.88897
7.82836
7.76179
7.69445
7.62522
7.55282
7.47782
7.397
7.31188
7.225
7.13692
7.05169
6.98369
6.94606
6.95134
7.01275
7.15897
7.31074
7.48135
7.61531
7.6503
7.64405
1
1
1
1
1
1
1
1
1
1
1
1
1
1
1
1
1
1
1
1
1
1
1
1
1
1
1
1
1
1
1
1
1
1
1
1
1
1
1
1
1
1
1
1
1
1
1
1
1
1
1
1
1
1
1
1
1
1
1
1
1
1
1
1
1
1
1
1
1
1.00067
1.09924
2.75713
6.948
7.88408
7.8571
7.7927
7.72918
7.66076
7.59204
7.51995
7.44462
7.36394
7.28149
7.20065
7.13877
7.11851
7.14731
7.25231
7.44664
7.67468
7.86855
7.97399
8.05747
8.03442
7.93906
7.8551
1
1
1
1
1
1
1
1
1
1
1
1
1
1
1
1
1
1
1
1
1
1
1
1
1
1
1
1
1
1
1
1
1
1
1
1
1
1
1
1
1
1
1
1
1
1
1
1
1
1
1
1
1
1
1
1
1
1
1
1
1
1
1
1
1
1
1
1
1
1
1.0006
1.08603
2.56909
6.62612
7.76773
7.7619
7.69523
7.63207
7.56258
7.48849
7.41242
7.33528
7.27548
7.25787
7.306
7.46592
7.70553
8.0004
8.24098
8.34382
8.39706
8.38538
8.32033
8.19792
8.07818
7.99271
1
1
1
1
1
1
1
1
1
1
1
1
1
1
1
1
1
1
1
1
1
1
1
1
1
1
1
1
1
1
1
1
1
1
1
1
1
1
1
1
1
1
1
1
1
1
1
1
1
1
1
1
1
1
1
1
1
1
1
1
1
1
1
1
1
1
1
1
1
1
1
1.00049
1.06874
2.33942
6.18441
7.64252
7.6793
7.6009
7.53231
7.45434
7.39241
7.37651
7.44185
7.64138
7.95117
8.30347
8.58379
8.72466
8.74151
8.69318
8.63697
8.55055
8.42878
8.29265
8.19886
8.12362
1
1
1
1
1
1
1
1
1
1
1
1
1
1
1
1
1
1
1
1
1
1
1
1
1
1
1
1
1
1
1
1
1
1
1
1
1
1
1
1
1
1
1
1
1
1
1
1
1
1
1
1
1
1
1
1
1
1
1
1
1
1
1
1
1
1
1
1
1
1
1
1
1.00036
1.05051
2.07554
5.61195
7.49235
7.58723
7.49459
7.45678
7.53876
7.78051
8.16777
8.58484
8.88745
9.05727
9.10033
9.03103
8.93755
8.84771
8.75834
8.64565
8.51397
8.40772
8.34178
8.2646
1
1
1
1
1
1
1
1
1
1
1
1
1
1
1
1
1
1
1
1
1
1
1
1
1
1
1
1
1
1
1
1
1
1
1
1
1
1
1
1
1
1
1
1
1
1
1
1
1
1
1
1
1
1
1
1
1
1
1
1
1
1
1
1
1
1
1
1
1
1
1
1
1
1.00023
1.03328
1.80202
4.86821
7.25419
7.55915
7.84692
8.33068
8.87688
9.24836
9.39967
9.4342
9.37634
9.26515
9.1273
9.0231
8.93661
8.84306
8.73039
8.62067
8.55179
8.49651
8.41081
1
1
1
1
1
1
1
1
1
1
1
1
1
1
1
1
1
1
1
1
1
1
1
1
1
1
1
1
1
1
1
1
1
1
1
1
1
1
1
1
1
1
1
1
1
1
1
1
1
1
1
1
1
1
1
1
1
1
1
1
1
1
1
1
1
1
1
1
1
1
1
1
1
1
1.00013
1.01955
1.5312
4.05899
7.78015
9.1226
9.53626
9.7456
9.77048
9.68988
9.60651
9.49371
9.35676
9.21542
9.12243
9.04557
8.95407
8.8429
8.7603
8.71465
8.65187
8.5526
1
1
1
1
1
1
1
1
1
1
1
1
1
1
1
1
1
1
1
1
1
1
1
1
1
1
1
1
1
1
1
1
1
1
1
1
1
1
1
1
1
1
1
1
1
1
1
1
1
1
1
1
1
1
1
1
1
1
1
1
1
1
1
1
1
1
1
1
1
1
1
1
1
1
1
1.00006
1.01001
1.30791
6.60036
10.4906
10.2377
10.0972
9.95736
9.81045
9.6804
9.54219
9.39276
9.28184
9.20183
9.14215
9.07403
8.99641
8.94067
8.89765
8.81427
8.70794
1
1
1
1
1
1
1
1
1
1
1
1
1
1
1
1
1
1
1
1
1
1
1
1
1
1
1
1
1
1
1
1
1
1
1
1
1
1
1
1
1
1
1
1
1
1
1
1
1
1
1
1
1
1
1
1
1
1
1
1
1
1
1
1
1
1
1
1
1
1
1
1
1
1
1
1
1.00003
1.00317
4.52211
10.1404
10.119
9.99162
9.87186
9.74983
9.64842
9.55109
9.47843
9.41767
9.36306
9.31605
9.24618
9.16604
9.10424
9.04875
8.95029
8.85019
1
1
1
1
1
1
1
1
1
1
1
1
1
1
1
1
1
1
1
1
1
1
1
1
1
1
1
1
1
1
1
1
1
1
1
1
1
1
1
1
1
1
1
1
1
1
1
1
1
1
1
1
1
1
1
1
1
1
1
1
1
1
1
1
1
1
1
1
1
1
1
1
1
1
1
1
1
1
2.19705
8.66065
10.1074
9.96763
9.92702
9.86501
9.80784
9.74422
9.68364
9.61876
9.56243
9.50122
9.41904
9.33027
9.25566
9.17763
9.07549
8.98606
1
1
1
1
1
1
1
1
1
1
1
1
1
1
1
1
1
1
1
1
1
1
1
1
1
1
1
1
1
1
1
1
1
1
1
1
1
1
1
1
1
1
1
1
1
1
1
1
1
1
1
1
1
1
1
1
1
1
1
1
1
1
1
1
1
1
1
1
1
1
1
1
1
1
1
1
1
1
1.05129
6.46946
10.0454
10.053
10.0063
9.93484
9.87305
9.81307
9.7478
9.68166
9.61196
9.53943
9.46136
9.38751
9.3198
9.24682
9.17768
9.12154
1
1
1
1
1
1
1
1
1
1
1
1
1
1
1
1
1
1
1
1
1
1
1
1
1
1
1
1
1
1
1
1
1
1
1
1
1
1
1
1
1
1
1
1
1
1
1
1
1
1
1
1
1
1
1
1
1
1
1
1
1
1
1
1
1
1
1
1
1
1
1
1
1
1
1
1
1
1
1.00007
3.73954
9.38668
9.98269
9.95095
9.93246
9.89562
9.85191
9.80487
9.75704
9.70395
9.64659
9.58545
9.5249
9.46255
9.39724
9.33551
9.27078
1
1
1
1
1
1
1
1
1
1
1
1
1
1
1
1
1
1
1
1
1
1
1
1
1
1
1
1
1
1
1
1
1
1
1
1
1
1
1
1
1
1
1
1
1
1
1
1
1
1
1
1
1
1
1
1
1
1
1
1
1
1
1
1
1
1
1
1
1
1
1
1
1
1
1
1
1
1
1
1.69419
8.12323
10.1048
10.0253
9.97305
9.93784
9.90159
9.85423
9.805
9.75128
9.69938
9.64562
9.59167
9.53571
9.48189
9.42126
9.35839
1
1
1
1
1
1
1
1
1
1
1
1
1
1
1
1
1
1
1
1
1
1
1
1
1
1
1
1
1
1
1
1
1
1
1
1
1
1
1
1
1
1
1
1
1
1
1
1
1
1
1
1
1
1
1
1
1
1
1
1
1
1
1
1
1
1
1
1
1
1
1
1
1
1
1
1
1
1
1
1.01799
5.98531
10.0037
10.0666
10.0119
9.96989
9.92851
9.88633
9.84361
9.79524
9.74507
9.69363
9.6422
9.58927
9.53546
9.48225
9.42949
1
1
1
1
1
1
1
1
1
1
1
1
1
1
1
1
1
1
1
1
1
1
1
1
1
1
1
1
1
1
1
1
1
1
1
1
1
1
1
1
1
1
1
1
1
1
1
1
1
1
1
1
1
1
1
1
1
1
1
1
1
1
1
1
1
1
1
1
1
1
1
1
1
1
1
1
1
1
1
0.999994
3.55898
9.37639
10.0569
10.0098
9.98426
9.94782
9.90812
9.86607
9.82278
9.77935
9.73513
9.68932
9.64274
9.59069
9.53807
9.48427
1
1
1
1
1
1
1
1
1
1
1
1
1
1
1
1
1
1
1
1
1
1
1
1
1
1
1
1
1
1
1
1
1
1
1
1
1
1
1
1
1
1
1
1
1
1
1
1
1
1
1
1
1
1
1
1
1
1
1
1
1
1
1
1
1
1
1
1
1
1
1
1
1
1
1
1
1
1
1
0.999999
1.76108
8.23898
10.1882
10.0942
10.0431
9.9943
9.94852
9.90299
9.8573
9.81288
9.76888
9.72406
9.67936
9.63427
9.58954
9.54363
1
1
1
1
1
1
1
1
1
1
1
1
1
1
1
1
1
1
1
1
1
1
1
1
1
1
1
1
1
1
1
1
1
1
1
1
1
1
1
1
1
1
1
1
1
1
1
1
1
1
1
1
1
1
1
1
1
1
1
1
1
1
1
1
1
1
1
1
1
1
1
1
1
1
1
1
1
1
1
1
1.02371
6.42352
10.1526
10.1605
10.0925
10.0431
9.99282
9.94478
9.89718
9.85179
9.80694
9.76135
9.71541
9.669
9.62212
9.57488
1
1
1
1
1
1
1
1
1
1
1
1
1
1
1
1
1
1
1
1
1
1
1
1
1
1
1
1
1
1
1
1
1
1
1
1
1
1
1
1
1
1
1
1
1
1
1
1
1
1
1
1
1
1
1
1
1
1
1
1
1
1
1
1
1
1
1
1
1
1
1
1
1
1
1
1
1
1
1
1
1
4.36955
9.71783
10.0885
10.0494
10.0272
9.99182
9.95544
9.91711
9.87719
9.83521
9.79131
9.74623
9.6996
9.65176
9.60395
1
1
1
1
1
1
1
1
1
1
1
1
1
1
1
1
1
1
1
1
1
1
1
1
1
1
1
1
1
1
1
1
1
1
1
1
1
1
1
1
1
1
1
1
1
1
1
1
1
1
1
1
1
1
1
1
1
1
1
1
1
1
1
1
1
1
1
1
1
1
1
1
1
1
1
1
1
1
1
1
0.999999
2.58814
8.9101
10.2455
10.1661
10.1224
10.075
10.0305
9.98636
9.9411
9.89452
9.84746
9.80024
9.75217
9.70321
9.65445
1
1
1
1
1
1
1
1
1
1
1
1
1
1
1
1
1
1
1
1
1
1
1
1
1
1
1
1
1
1
1
1
1
1
1
1
1
1
1
1
1
1
1
1
1
1
1
1
1
1
1
1
1
1
1
1
1
1
1
1
1
1
1
1
1
1
1
1
1
1
1
1
1
1
1
1
1
1
1
1
1
1.36418
7.68016
10.3058
10.1984
10.138
10.094
10.0521
10.0103
9.96799
9.92358
9.87786
9.83168
9.78464
9.73654
9.68844
1
1
1
1
1
1
1
1
1
1
1
1
1
1
1
1
1
1
1
1
1
1
1
1
1
1
1
1
1
1
1
1
1
1
1
1
1
1
1
1
1
1
1
1
1
1
1
1
1
1
1
1
1
1
1
1
1
1
1
1
1
1
1
1
1
1
1
1
1
1
1
1
1
1
1
1
1
1
1
1
1
1.00562
6.20534
10.2077
10.2229
10.1668
10.126
10.0805
10.0362
9.99275
9.94853
9.90334
9.85795
9.81196
9.76496
9.71777
1
1
1
1
1
1
1
1
1
1
1
1
1
1
1
1
1
1
1
1
1
1
1
1
1
1
1
1
1
1
1
1
1
1
1
1
1
1
1
1
1
1
1
1
1
1
1
1
1
1
1
1
1
1
1
1
1
1
1
1
1
1
1
1
1
1
1
1
1
1
1
1
1
1
1
1
1
1
1
1
1
1
4.63391
9.89403
10.2141
10.1666
10.1376
10.0997
10.0603
10.019
9.9762
9.93209
9.88783
9.84291
9.7969
9.75035
1
1
1
1
1
1
1
1
1
1
1
1
1
1
1
1
1
1
1
1
1
1
1
1
1
1
1
1
1
1
1
1
1
1
1
1
1
1
1
1
1
1
1
1
1
1
1
1
1
1
1
1
1
1
1
1
1
1
1
1
1
1
1
1
1
1
1
1
1
1
1
1
1
1
1
1
1
1
1
1
1
1
3.24327
9.37999
10.2664
10.2013
10.1682
10.1256
10.0822
10.0379
9.99382
9.94981
9.90579
9.86121
9.81608
9.77013
1
1
1
1
1
1
1
1
1
1
1
1
1
1
1
1
1
1
1
1
1
1
1
1
1
1
1
1
1
1
1
1
1
1
1
1
1
1
1
1
1
1
1
1
1
1
1
1
1
1
1
1
1
1
1
1
1
1
1
1
1
1
1
1
1
1
1
1
1
1
1
1
1
1
1
1
1
1
1
1
1
1
2.12615
8.70157
10.3295
10.2478
10.2084
10.1645
10.1211
10.0775
10.0334
9.98924
9.94529
9.90073
9.85596
9.81046
1
1
1
1
1
1
1
1
1
1
1
1
1
1
1
1
1
1
1
1
1
1
1
1
1
1
1
1
1
1
1
1
1
1
1
1
1
1
1
1
1
1
1
1
1
1
1
1
1
1
1
1
1
1
1
1
1
1
1
1
1
1
1
1
1
1
1
1
1
1
1
1
1
1
1
1
1
1
1
1
1
1
1.37584
7.69893
10.3816
10.2844
10.2274
10.1795
10.1355
10.0923
10.0491
10.0059
9.96273
9.9189
9.87507
9.83048
1
1
1
1
1
1
1
1
1
1
1
1
1
1
1
1
1
1
1
1
1
1
1
1
1
1
1
1
1
1
1
1
1
1
1
1
1
1
1
1
1
1
1
1
1
1
1
1
1
1
1
1
1
1
1
1
1
1
1
1
1
1
1
1
1
1
1
1
1
1
1
1
1
1
1
1
1
1
1
1
1
1
1.00842
6.65656
10.3233
10.3097
10.2454
10.2019
10.1574
10.1136
10.0697
10.026
9.98237
9.9385
9.89479
9.85061
1
1
1
1
1
1
1
1
1
1
1
1
1
1
1
1
1
1
1
1
1
1
1
1
1
1
1
1
1
1
1
1
1
1
1
1
1
1
1
1
1
1
1
1
1
1
1
1
1
1
1
1
1
1
1
1
1
1
1
1
1
1
1
1
1
1
1
1
1
1
1
1
1
1
1
1
1
1
1
1
1
1
1.00001
5.60846
10.1677
10.2931
10.2379
10.2048
10.1644
10.1246
10.0835
10.0419
9.99961
9.95653
9.9134
9.86983
1
1
1
1
1
1
1
1
1
1
1
1
1
1
1
1
1
1
1
1
1
1
1
1
1
1
1
1
1
1
1
1
1
1
1
1
1
1
1
1
1
1
1
1
1
1
1
1
1
1
1
1
1
1
1
1
1
1
1
1
1
1
1
1
1
1
1
1
1
1
1
1
1
1
1
1
1
1
1
1
1
1
1
4.60019
9.96861
10.3115
10.2538
10.2229
10.1835
10.1444
10.1037
10.0625
10.0204
9.97749
9.93406
9.8901
1
1
1
1
1
1
1
1
1
1
1
1
1
1
1
1
1
1
1
1
1
1
1
1
1
1
1
1
1
1
1
1
1
1
1
1
1
1
1
1
1
1
1
1
1
1
1
1
1
1
1
1
1
1
1
1
1
1
1
1
1
1
1
1
1
1
1
1
1
1
1
1
1
1
1
1
1
1
1
1
1
1
1
3.72751
9.69856
10.3408
10.27
10.2378
10.199
10.1606
10.1208
10.0799
10.0378
9.99476
9.95081
9.90633
1
1
1
1
1
1
1
1
1
1
1
1
1
1
1
1
1
1
1
1
1
1
1
1
1
1
1
1
1
1
1
1
1
1
1
1
1
1
1
1
1
1
1
1
1
1
1
1
1
1
1
1
1
1
1
1
1
1
1
1
1
1
1
1
1
1
1
1
1
1
1
1
1
1
1
1
1
1
1
1
1
1
1
2.98874
9.4169
10.3707
10.2883
10.2527
10.2116
10.1717
10.1311
10.0898
10.0477
10.005
9.96202
9.91904
1
1
1
1
1
1
1
1
1
1
1
1
1
1
1
1
1
1
1
1
1
1
1
1
1
1
1
1
1
1
1
1
1
1
1
1
1
1
1
1
1
1
1
1
1
1
1
1
1
1
1
1
1
1
1
1
1
1
1
1
1
1
1
1
1
1
1
1
1
1
1
1
1
1
1
1
1
1
1
1
1
1
1
2.41353
9.07812
10.3898
10.3035
10.2655
10.2233
10.1825
10.1413
10.0997
10.0578
10.0155
9.9731
9.93074
1
1
1
1
1
1
1
1
1
1
1
1
1
1
1
1
1
1
1
1
1
1
1
1
1
1
1
1
1
1
1
1
1
1
1
1
1
1
1
1
1
1
1
1
1
1
1
1
1
1
1
1
1
1
1
1
1
1
1
1
1
1
1
1
1
1
1
1
1
1
1
1
1
1
1
1
1
1
1
1
1
1
1
2.01092
8.71066
10.4004
10.3161
10.2765
10.2338
10.1923
10.1508
10.1091
10.0677
10.026
9.98398
9.94177
1
1
1
1
1
1
1
1
1
1
1
1
1
1
1
1
1
1
1
1
1
1
1
1
1
1
1
1
1
1
1
1
1
1
1
1
1
1
1
1
1
1
1
1
1
1
1
1
1
1
1
1
1
1
1
1
1
1
1
1
1
1
1
1
1
1
1
1
1
1
1
1
1
1
1
1
1
1
1
1
1
1
1
1.73939
8.35734
10.396
10.3214
10.2826
10.2403
10.199
10.1576
10.1161
10.0751
10.0338
9.99198
9.94981
1
1
1
1
1
1
1
1
1
1
1
1
1
1
1
1
1
1
1
1
1
1
1
1
1
1
1
1
1
1
1
1
1
1
1
1
1
1
1
1
1
1
1
1
1
1
1
1
1
1
1
1
1
1
1
1
1
1
1
1
1
1
1
1
1
1
1
1
1
1
1
1
1
1
1
1
1
1
1
1
1
1
1
1.55317
8.04319
10.3868
10.3234
10.2844
10.2433
10.2031
10.1629
10.1221
10.0815
10.0401
9.99808
9.95548
1
1
1
1
1
1
1
1
1
1
1
1
1
1
1
1
1
1
1
1
1
1
1
1
1
1
1
1
1
1
1
1
1
1
1
1
1
1
1
1
1
1
1
1
1
1
1
1
1
1
1
1
1
1
1
1
1
1
1
1
1
1
1
1
1
1
1
1
1
1
1
1
1
1
1
1
1
1
1
1
1
1
1
1.42791
7.78901
10.3768
10.323
10.2825
10.2417
10.2018
10.1623
10.1221
10.0817
10.0405
9.99894
9.95761
1
1
1
1
1
1
1
1
1
1
1
1
1
1
1
1
1
1
1
1
1
1
1
1
1
1
1
1
1
1
1
1
1
1
1
1
1
1
1
1
1
1
1
1
1
1
1
1
1
1
1
1
1
1
1
1
1
1
1
1
1
1
1
1
1
1
1
1
1
1
1
1
1
1
1
1
1
1
1
1
1
1
1
1.34972
7.60675
10.3658
10.3199
10.2781
10.2374
10.1964
10.1561
10.1162
10.0779
10.0397
10.0002
9.95913
1
1
1
1
1
1
1
1
1
1
1
1
1
1
1
1
1
1
1
1
1
1
1
1
1
1
1
1
1
1
1
1
1
1
1
1
1
1
1
1
1
1
1
1
1
1
1
1
1
1
1
1
1
1
1
1
1
1
1
1
1
1
1
1
1
1
1
1
1
1
1
1
1
1
1
1
1
1
1
1
1
1
1
1.30691
7.497
10.3536
10.3148
10.2741
10.2359
10.1959
10.1547
10.1119
10.0705
10.032
9.99476
9.95695
1
1
1
1
1
1
1
1
1
1
1
1
1
1
1
1
1
1
1
1
1
1
1
1
1
1
1
1
1
1
1
1
1
1
1
1
1