/*--------------------------------*- C++ -*----------------------------------*\
  =========                 |
  \\      /  F ield         | OpenFOAM: The Open Source CFD Toolbox
   \\    /   O peration     | Website:  https://openfoam.org
    \\  /    A nd           | Version:  7
     \\/     M anipulation  |
\*---------------------------------------------------------------------------*/
FoamFile
{
    version     2.0;
    format      ascii;
    class       volScalarField;
    location    "7.5";
    object      rho;
}
// * * * * * * * * * * * * * * * * * * * * * * * * * * * * * * * * * * * * * //

dimensions      [1 -3 0 0 0 0 0];

internalField   nonuniform List<scalar> 
19968
(
1.40001
1.40001
1.40001
1.40001
1.40001
1.40001
1.40001
1.40001
1.40001
1.40001
1.40001
1.40001
1.40001
1.40001
1.40001
1.40001
1.40001
1.40001
1.40001
1.40001
1.40001
1.40001
1.40001
1.40001
1.40001
1.40001
1.40001
1.40001
1.40001
1.40001
1.40001
1.40001
1.40001
1.40001
1.40001
1.40001
1.40001
1.40001
1.40001
1.40001
1.40001
1.40001
1.40001
1.40001
1.40001
1.40001
1.40001
1.40001
1.70426
4.58522
5.43647
5.4423
5.46155
5.48068
5.49955
5.51848
5.53897
5.56135
5.58493
5.60826
5.62979
5.64892
5.66611
5.68249
5.69861
5.71477
5.73146
5.74862
5.7654
5.78101
5.79542
5.80927
5.82327
5.83767
5.85218
5.86623
5.87942
5.89166
5.90301
5.91346
5.92301
5.9318
5.94023
5.94869
5.95736
5.96601
5.97418
5.98144
5.98769
5.99312
5.99798
6.00246
6.00655
6.01
6.01262
6.01462
1.40001
1.40001
1.40001
1.40001
1.40001
1.40001
1.40001
1.40001
1.40001
1.40001
1.40001
1.40001
1.40001
1.40001
1.40001
1.40001
1.40001
1.40001
1.40001
1.40001
1.40001
1.40001
1.40001
1.40001
1.40001
1.40001
1.40001
1.40001
1.40001
1.40001
1.40001
1.40001
1.40001
1.40001
1.40001
1.40001
1.40001
1.40001
1.40001
1.40001
1.40001
1.40001
1.40001
1.40001
1.40001
1.40001
1.40001
1.40001
1.68918
4.56006
5.43221
5.44103
5.46088
5.4799
5.49868
5.51765
5.53816
5.56038
5.58365
5.6067
5.62794
5.64698
5.66413
5.68047
5.69658
5.71285
5.72971
5.74701
5.76389
5.77955
5.79399
5.80784
5.82181
5.83619
5.85067
5.8647
5.87787
5.89009
5.90141
5.91186
5.92142
5.93024
5.93866
5.94707
5.95564
5.96419
5.97226
5.97946
5.98565
5.99101
5.99578
6.00016
6.00414
6.00748
6.01001
6.01193
1.40001
1.40001
1.40001
1.40001
1.40001
1.40001
1.40001
1.40001
1.40001
1.40001
1.40001
1.40001
1.40001
1.40001
1.40001
1.40001
1.40001
1.40001
1.40001
1.40001
1.40001
1.40001
1.40001
1.40001
1.40001
1.40001
1.40001
1.40001
1.40001
1.40001
1.40001
1.40001
1.40001
1.40001
1.40001
1.40001
1.40001
1.40001
1.40001
1.40001
1.40001
1.40001
1.40001
1.40001
1.40001
1.40001
1.40001
1.40001
1.65487
4.50855
5.42773
5.43709
5.45768
5.47677
5.49593
5.51529
5.53598
5.55806
5.58091
5.60348
5.62421
5.6431
5.66024
5.67669
5.69292
5.70937
5.72636
5.74373
5.76064
5.77639
5.79095
5.80491
5.81894
5.8333
5.84772
5.86168
5.87481
5.88701
5.89835
5.90883
5.91844
5.92729
5.93569
5.94401
5.95246
5.96091
5.96894
5.97615
5.98237
5.98773
5.99245
5.99674
6.0006
6.00383
6.00623
6.00805
1.40001
1.40001
1.40001
1.40001
1.40001
1.40001
1.40001
1.40001
1.40001
1.40001
1.40001
1.40001
1.40001
1.40001
1.40001
1.40001
1.40001
1.40001
1.40001
1.40001
1.40001
1.40001
1.40001
1.40001
1.40001
1.40001
1.40001
1.40001
1.40001
1.40001
1.40001
1.40001
1.40001
1.40001
1.40001
1.40001
1.40001
1.40001
1.40001
1.40001
1.40001
1.40001
1.40001
1.40001
1.40001
1.40001
1.40001
1.40001
1.60393
4.42203
5.42147
5.43282
5.45397
5.47325
5.49279
5.51252
5.53341
5.55527
5.57746
5.59923
5.61926
5.63798
5.65516
5.67179
5.68816
5.70472
5.72169
5.73892
5.75573
5.77154
5.7863
5.80051
5.8147
5.82909
5.84344
5.85729
5.87033
5.88249
5.89384
5.90435
5.91397
5.92276
5.93101
5.93908
5.94725
5.95545
5.9633
5.97041
5.9766
5.98194
5.98666
5.99094
5.99479
5.99799
6.00033
6.00213
1.40001
1.40001
1.40001
1.40001
1.40001
1.40001
1.40001
1.40001
1.40001
1.40001
1.40001
1.40001
1.40001
1.40001
1.40001
1.40001
1.40001
1.40001
1.40001
1.40001
1.40001
1.40001
1.40001
1.40001
1.40001
1.40001
1.40001
1.40001
1.40001
1.40001
1.40001
1.40001
1.40001
1.40001
1.40001
1.40001
1.40001
1.40001
1.40001
1.40001
1.40001
1.40001
1.40001
1.40001
1.40001
1.40001
1.40001
1.40001
1.53652
4.30153
5.41676
5.42858
5.45049
5.46995
5.4896
5.50921
5.52964
5.5509
5.57241
5.59356
5.61314
5.63186
5.64927
5.66627
5.68281
5.69933
5.71596
5.73268
5.74911
5.7649
5.77999
5.79464
5.80918
5.82372
5.83802
5.85176
5.86473
5.87691
5.88834
5.89896
5.90865
5.91743
5.92556
5.93343
5.94134
5.94927
5.95686
5.9637
5.96957
5.97455
5.97888
5.98275
5.98617
5.98899
5.991
5.99258
1.40001
1.40001
1.40001
1.40001
1.40001
1.40001
1.40001
1.40001
1.40001
1.40001
1.40001
1.40001
1.40001
1.40001
1.40001
1.40001
1.40001
1.40001
1.40001
1.40001
1.40001
1.40001
1.40001
1.40001
1.40001
1.40001
1.40001
1.40001
1.40001
1.40001
1.40001
1.40001
1.40001
1.40001
1.40001
1.40001
1.40001
1.40001
1.40001
1.40001
1.40001
1.40001
1.40001
1.40001
1.40001
1.40001
1.40001
1.40001
1.424
4.11454
5.41151
5.42479
5.44651
5.46794
5.48867
5.50845
5.52796
5.54789
5.56825
5.58852
5.60754
5.62604
5.64374
5.66125
5.67789
5.69392
5.7096
5.7251
5.74056
5.75591
5.77108
5.78603
5.80078
5.81529
5.82934
5.84274
5.85543
5.86745
5.87881
5.88939
5.89902
5.9077
5.91569
5.92342
5.93122
5.9391
5.94669
5.95358
5.95953
5.96457
5.96893
5.97273
5.97597
5.97856
5.98031
5.98172
1.40001
1.40001
1.40001
1.40001
1.40001
1.40001
1.40001
1.40001
1.40001
1.40001
1.40001
1.40001
1.40001
1.40001
1.40001
1.40001
1.40001
1.40001
1.40001
1.40001
1.40001
1.40001
1.40001
1.40001
1.40001
1.40001
1.40001
1.40001
1.40001
1.40001
1.40001
1.40001
1.40001
1.40001
1.40001
1.40001
1.40001
1.40001
1.40001
1.40001
1.40001
1.40001
1.40001
1.40001
1.40001
1.40001
1.40001
1.40001
1.4003
3.82052
5.37426
5.40715
5.42921
5.45398
5.47612
5.49642
5.51559
5.53476
5.55453
5.57432
5.59323
5.61199
5.63031
5.64863
5.66575
5.68163
5.69666
5.71114
5.72566
5.7406
5.75596
5.77142
5.78666
5.8014
5.81544
5.82871
5.8413
5.8533
5.86467
5.87522
5.88479
5.89341
5.90137
5.90913
5.91698
5.9249
5.93254
5.93949
5.94549
5.95058
5.9549
5.95855
5.9615
5.96376
5.96514
5.96635
1.40001
1.40001
1.40001
1.40001
1.40001
1.40001
1.40001
1.40001
1.40001
1.40001
1.40001
1.40001
1.40001
1.40001
1.40001
1.40001
1.40001
1.40001
1.40001
1.40001
1.40001
1.40001
1.40001
1.40001
1.40001
1.40001
1.40001
1.40001
1.40001
1.40001
1.40001
1.40001
1.40001
1.40001
1.40001
1.40001
1.40001
1.40001
1.40001
1.40001
1.40001
1.40001
1.40001
1.40001
1.40001
1.40001
1.40001
1.40001
1.40001
3.418
5.32221
5.39668
5.41761
5.44556
5.46902
5.4904
5.51025
5.52907
5.54785
5.56646
5.58461
5.60305
5.62124
5.63951
5.6565
5.67179
5.68588
5.69918
5.71256
5.72681
5.74195
5.75743
5.77263
5.78715
5.8008
5.81367
5.82596
5.83776
5.84892
5.85919
5.86843
5.87677
5.88457
5.89224
5.90005
5.9079
5.91547
5.92238
5.92839
5.93348
5.93772
5.94113
5.94366
5.94545
5.94637
5.94729
1.40001
1.40001
1.40001
1.40001
1.40001
1.40001
1.40001
1.40001
1.40001
1.40001
1.40001
1.40001
1.40001
1.40001
1.40001
1.40001
1.40001
1.40001
1.40001
1.40001
1.40001
1.40001
1.40001
1.40001
1.40001
1.40001
1.40001
1.40001
1.40001
1.40001
1.40001
1.40001
1.40001
1.40001
1.40001
1.40001
1.40001
1.40001
1.40001
1.40001
1.40001
1.40001
1.40001
1.40001
1.40001
1.40001
1.40001
1.40001
1.40001
2.93509
5.23325
5.39365
5.41185
5.43996
5.46329
5.48492
5.50515
5.52384
5.54183
5.55925
5.57633
5.5938
5.61121
5.62884
5.64546
5.66005
5.67315
5.68527
5.6974
5.71053
5.72484
5.73965
5.75424
5.7681
5.7811
5.79337
5.80522
5.81667
5.82747
5.83731
5.8461
5.85404
5.86156
5.86905
5.87673
5.8845
5.89206
5.89906
5.90529
5.91057
5.91488
5.91815
5.92032
5.92167
5.92211
5.92273
1.40001
1.40001
1.40001
1.40001
1.40001
1.40001
1.40001
1.40001
1.40001
1.40001
1.40001
1.40001
1.40001
1.40001
1.40001
1.40001
1.40001
1.40001
1.40001
1.40001
1.40001
1.40001
1.40001
1.40001
1.40001
1.40001
1.40001
1.40001
1.40001
1.40001
1.40001
1.40001
1.40001
1.40001
1.40001
1.40001
1.40001
1.40001
1.40001
1.40001
1.40001
1.40001
1.40001
1.40001
1.40001
1.40001
1.40001
1.40001
1.40001
2.39064
5.05927
5.39932
5.42021
5.44485
5.4655
5.4851
5.50401
5.52196
5.53891
5.55488
5.57031
5.58596
5.60185
5.61827
5.63433
5.64843
5.66078
5.67194
5.68291
5.69476
5.70784
5.72136
5.73461
5.74711
5.75877
5.76978
5.78048
5.79097
5.80095
5.81006
5.81823
5.82572
5.83292
5.8402
5.8477
5.85533
5.86282
5.86981
5.87603
5.88121
5.88524
5.88805
5.88961
5.89034
5.89023
5.8904
1.40001
1.40001
1.40001
1.40001
1.40001
1.40001
1.40001
1.40001
1.40001
1.40001
1.40001
1.40001
1.40001
1.40001
1.40001
1.40001
1.40001
1.40001
1.40001
1.40001
1.40001
1.40001
1.40001
1.40001
1.40001
1.40001
1.40001
1.40001
1.40001
1.40001
1.40001
1.40001
1.40001
1.40001
1.40001
1.40001
1.40001
1.40001
1.40001
1.40001
1.40001
1.40001
1.40001
1.40001
1.40001
1.40001
1.40001
1.40001
1.40001
1.86811
4.73561
5.42151
5.4145
5.43575
5.45441
5.47367
5.49253
5.51071
5.52764
5.54352
5.55868
5.57376
5.58908
5.6048
5.62051
5.6345
5.64664
5.6574
5.66766
5.67839
5.69027
5.7026
5.71459
5.72573
5.73596
5.74547
5.75459
5.76349
5.77196
5.77963
5.78641
5.7925
5.7983
5.80415
5.81029
5.81676
5.82343
5.83002
5.83615
5.84138
5.84544
5.84817
5.84954
5.85013
5.8499
5.84991
1.40001
1.40001
1.40001
1.40001
1.40001
1.40001
1.40001
1.40001
1.40001
1.40001
1.40001
1.40001
1.40001
1.40001
1.40001
1.40001
1.40001
1.40001
1.40001
1.40001
1.40001
1.40001
1.40001
1.40001
1.40001
1.40001
1.40001
1.40001
1.40001
1.40001
1.40001
1.40001
1.40001
1.40001
1.40001
1.40001
1.40001
1.40001
1.40001
1.40001
1.40001
1.40001
1.40001
1.40001
1.40001
1.40001
1.40001
1.40001
1.40001
1.42322
4.08888
5.41337
5.42407
5.43686
5.45219
5.46808
5.48426
5.50091
5.51708
5.53233
5.54654
5.56018
5.57384
5.58788
5.60229
5.61565
5.62709
5.6369
5.64595
5.65516
5.66536
5.67615
5.68662
5.69636
5.70522
5.71331
5.72086
5.72814
5.73511
5.74151
5.74717
5.75221
5.75695
5.76172
5.76679
5.77232
5.77824
5.78407
5.78912
5.79273
5.79476
5.79527
5.79462
5.79374
5.79272
5.79228
1.40001
1.40001
1.40001
1.40001
1.40001
1.40001
1.40001
1.40001
1.40001
1.40001
1.40001
1.40001
1.40001
1.40001
1.40001
1.40001
1.40001
1.40001
1.40001
1.40001
1.40001
1.40001
1.40001
1.40001
1.40001
1.40001
1.40001
1.40001
1.40001
1.40001
1.40001
1.40001
1.40001
1.40001
1.40001
1.40001
1.40001
1.40001
1.40001
1.40001
1.40001
1.40001
1.40001
1.40001
1.40001
1.40001
1.40001
1.40001
1.40001
1.40005
3.21091
5.24858
5.35989
5.38749
5.41244
5.43169
5.44883
5.46506
5.48089
5.49606
5.51047
5.52426
5.53802
5.55231
5.56689
5.58063
5.59258
5.60252
5.61128
5.61995
5.62914
5.63899
5.6485
5.65739
5.66533
5.67228
5.67834
5.68381
5.68886
5.69343
5.69735
5.70065
5.70342
5.70593
5.70827
5.71077
5.71358
5.7164
5.71861
5.71981
5.72008
5.71986
5.71937
5.71949
5.7196
5.72003
1.40001
1.40001
1.40001
1.40001
1.40001
1.40001
1.40001
1.40001
1.40001
1.40001
1.40001
1.40001
1.40001
1.40001
1.40001
1.40001
1.40001
1.40001
1.40001
1.40001
1.40001
1.40001
1.40001
1.40001
1.40001
1.40001
1.40001
1.40001
1.40001
1.40001
1.40001
1.40001
1.40001
1.40001
1.40001
1.40001
1.40001
1.40001
1.40001
1.40001
1.40001
1.40001
1.40001
1.40001
1.40001
1.40001
1.40001
1.40001
1.40001
1.4
2.18255
4.89788
5.3567
5.37392
5.40256
5.42201
5.43756
5.45095
5.46388
5.47688
5.48993
5.50261
5.51517
5.52829
5.54176
5.5546
5.5658
5.57485
5.58217
5.58902
5.596
5.60353
5.61101
5.61805
5.6243
5.62938
5.63314
5.63576
5.63757
5.63891
5.63982
5.64026
5.64035
5.64018
5.63972
5.63963
5.63984
5.64016
5.63978
5.63758
5.63294
5.62669
5.61877
5.61117
5.6044
5.59836
1.40001
1.40001
1.40001
1.40001
1.40001
1.40001
1.40001
1.40001
1.40001
1.40001
1.40001
1.40001
1.40001
1.40001
1.40001
1.40001
1.40001
1.40001
1.40001
1.40001
1.40001
1.40001
1.40001
1.40001
1.40001
1.40001
1.40001
1.40001
1.40001
1.40001
1.40001
1.40001
1.40001
1.40001
1.40001
1.40001
1.40001
1.40001
1.40001
1.40001
1.40001
1.40001
1.40001
1.40001
1.40001
1.40001
1.40001
1.40001
1.40001
1.40001
1.44422
3.99155
5.38049
5.39571
5.40555
5.41684
5.42523
5.43313
5.44185
5.4523
5.46369
5.47487
5.48541
5.49592
5.50697
5.51803
5.52796
5.53597
5.54176
5.54643
5.55102
5.55581
5.56094
5.56569
5.57001
5.57341
5.57528
5.57533
5.57369
5.57104
5.56778
5.56418
5.56016
5.55525
5.54965
5.5436
5.53645
5.52732
5.51496
5.49865
5.47909
5.45851
5.44171
5.42917
5.42518
5.42423
1.40001
1.40001
1.40001
1.40001
1.40001
1.40001
1.40001
1.40001
1.40001
1.40001
1.40001
1.40001
1.40001
1.40001
1.40001
1.40001
1.40001
1.40001
1.40001
1.40001
1.40001
1.40001
1.40001
1.40001
1.40001
1.40001
1.40001
1.40001
1.40001
1.40001
1.40001
1.40001
1.40001
1.40001
1.40001
1.40001
1.40001
1.40001
1.40001
1.40001
1.40001
1.40001
1.40001
1.40001
1.40001
1.40001
1.40001
1.40001
1.40001
1.40001
1.40006
2.63679
5.06581
5.33758
5.35849
5.37722
5.39011
5.3996
5.40761
5.41647
5.42704
5.43857
5.44972
5.46003
5.46983
5.47928
5.48755
5.49388
5.49806
5.50064
5.5025
5.50396
5.50536
5.50654
5.50753
5.50833
5.50844
5.50616
5.50112
5.49378
5.4849
5.47486
5.46376
5.4516
5.4385
5.42427
5.40793
5.38831
5.36472
5.33786
5.30905
5.27973
5.24396
5.20447
5.14946
5.16972
1.40001
1.40001
1.40001
1.40001
1.40001
1.40001
1.40001
1.40001
1.40001
1.40001
1.40001
1.40001
1.40001
1.40001
1.40001
1.40001
1.40001
1.40001
1.40001
1.40001
1.40001
1.40001
1.40001
1.40001
1.40001
1.40001
1.40001
1.40001
1.40001
1.40001
1.40001
1.40001
1.40001
1.40001
1.40001
1.40001
1.40001
1.40001
1.40001
1.40001
1.40001
1.40001
1.40001
1.40001
1.40001
1.40001
1.40001
1.40001
1.40001
1.40001
1.40001
1.56428
4.38598
5.36259
5.35633
5.36628
5.37704
5.38475
5.39087
5.39695
5.40475
5.41376
5.42276
5.43094
5.4381
5.44468
5.4505
5.45469
5.45707
5.45758
5.45645
5.45465
5.45228
5.44972
5.44708
5.4446
5.44177
5.43709
5.4293
5.41832
5.40429
5.38752
5.36854
5.34786
5.32559
5.30102
5.27211
5.23655
5.19113
5.13459
5.06044
4.96325
4.81635
4.5891
4.18126
3.2824
1.40001
1.40001
1.40001
1.40001
1.40001
1.40001
1.40001
1.40001
1.40001
1.40001
1.40001
1.40001
1.40001
1.40001
1.40001
1.40001
1.40001
1.40001
1.40001
1.40001
1.40001
1.40001
1.40001
1.40001
1.40001
1.40001
1.40001
1.40001
1.40001
1.40001
1.40001
1.40001
1.40001
1.40001
1.40001
1.40001
1.40001
1.40001
1.40001
1.40001
1.40001
1.40001
1.40001
1.40001
1.40001
1.40001
1.40001
1.40001
1.40001
1.40001
1.4
1.40146
3.23113
5.16314
5.3202
5.33802
5.35607
5.36482
5.36831
5.37026
5.37502
5.38196
5.38969
5.39697
5.40333
5.4088
5.41352
5.41665
5.41778
5.41672
5.41334
5.40928
5.4049
5.40008
5.39453
5.38846
5.38184
5.37377
5.36329
5.34957
5.33187
5.30979
5.28376
5.25486
5.22313
5.18806
5.14617
5.09517
5.02864
4.94638
4.8365
4.69661
4.49113
4.21754
3.68688
2.92264
1.40001
1.40001
1.40001
1.40001
1.40001
1.40001
1.40001
1.40001
1.40001
1.40001
1.40001
1.40001
1.40001
1.40001
1.40001
1.40001
1.40001
1.40001
1.40001
1.40001
1.40001
1.40001
1.40001
1.40001
1.40001
1.40001
1.40001
1.40001
1.40001
1.40001
1.40001
1.40001
1.40001
1.40001
1.40001
1.40001
1.40001
1.40001
1.40001
1.40001
1.40001
1.40001
1.40001
1.40001
1.40001
1.40001
1.40001
1.40001
1.40001
1.40001
1.40001
1.4
1.95525
4.70854
5.33798
5.33137
5.3486
5.35621
5.35758
5.3567
5.35947
5.3647
5.37076
5.37608
5.37989
5.38228
5.3839
5.38481
5.38403
5.38063
5.37421
5.36666
5.35951
5.35213
5.34376
5.33402
5.32283
5.31022
5.29574
5.27836
5.25662
5.22957
5.19695
5.16025
5.1189
5.07326
5.01887
4.95372
4.87073
4.76813
4.63818
4.46989
4.25302
3.93394
3.49415
2.97756
1.40001
1.40001
1.40001
1.40001
1.40001
1.40001
1.40001
1.40001
1.40001
1.40001
1.40001
1.40001
1.40001
1.40001
1.40001
1.40001
1.40001
1.40001
1.40001
1.40001
1.40001
1.40001
1.40001
1.40001
1.40001
1.40001
1.40001
1.40001
1.40001
1.40001
1.40001
1.40001
1.40001
1.40001
1.40001
1.40001
1.40001
1.40001
1.40001
1.40001
1.40001
1.40001
1.40001
1.40001
1.40001
1.40001
1.40001
1.40001
1.40001
1.40001
1.40001
1.4
1.42468
3.5543
5.25721
5.30769
5.32156
5.32934
5.33198
5.33433
5.3396
5.34547
5.35061
5.35436
5.35599
5.35552
5.35392
5.35181
5.34864
5.34318
5.33445
5.32386
5.3131
5.3021
5.29046
5.27762
5.26289
5.24635
5.22761
5.20601
5.17967
5.14797
5.10986
5.06681
5.01749
4.96229
4.89763
4.82112
4.72769
4.61341
4.47394
4.29816
4.07911
3.79635
3.45717
3.07514
1.40001
1.40001
1.40001
1.40001
1.40001
1.40001
1.40001
1.40001
1.40001
1.40001
1.40001
1.40001
1.40001
1.40001
1.40001
1.40001
1.40001
1.40001
1.40001
1.40001
1.40001
1.40001
1.40001
1.40001
1.40001
1.40001
1.40001
1.40001
1.40001
1.40001
1.40001
1.40001
1.40001
1.40001
1.40001
1.40001
1.40001
1.40001
1.40001
1.40001
1.40001
1.40001
1.40001
1.40001
1.40001
1.40001
1.40001
1.40001
1.40001
1.40001
1.40001
1.40001
1.4
2.08083
4.82062
5.33038
5.30791
5.31193
5.31371
5.31577
5.32076
5.32658
5.33116
5.33369
5.33363
5.32992
5.32417
5.3179
5.31197
5.3055
5.29682
5.28532
5.27118
5.25535
5.23895
5.22237
5.20441
5.18468
5.16205
5.13602
5.10471
5.06824
5.02551
4.97754
4.92288
4.86089
4.78925
4.70529
4.6063
4.48823
4.34903
4.17879
3.97533
3.73863
3.47449
3.17514
1.40001
1.40001
1.40001
1.40001
1.40001
1.40001
1.40001
1.40001
1.40001
1.40001
1.40001
1.40001
1.40001
1.40001
1.40001
1.40001
1.40001
1.40001
1.40001
1.40001
1.40001
1.40001
1.40001
1.40001
1.40001
1.40001
1.40001
1.40001
1.40001
1.40001
1.40001
1.40001
1.40001
1.40001
1.40001
1.40001
1.40001
1.40001
1.40001
1.40001
1.40001
1.40001
1.40001
1.40001
1.40001
1.40001
1.40001
1.40001
1.40001
1.40001
1.40001
1.40001
1.4
1.43281
3.58912
5.25008
5.28035
5.28965
5.29217
5.29546
5.30024
5.30522
5.30865
5.31003
5.30918
5.3039
5.29478
5.2845
5.27515
5.26671
5.25815
5.24688
5.23103
5.21148
5.19036
5.16961
5.14831
5.12569
5.09959
5.06922
5.03299
4.99181
4.94512
4.89343
4.83551
4.76992
4.69463
4.6072
4.50655
4.38905
4.25799
4.0971
3.91854
3.71982
3.50626
3.26697
1.40001
1.40001
1.40001
1.40001
1.40001
1.40001
1.40001
1.40001
1.40001
1.40001
1.40001
1.40001
1.40001
1.40001
1.40001
1.40001
1.40001
1.40001
1.40001
1.40001
1.40001
1.40001
1.40001
1.40001
1.40001
1.40001
1.40001
1.40001
1.40001
1.40001
1.40001
1.40001
1.40001
1.40001
1.40001
1.40001
1.40001
1.40001
1.40001
1.40001
1.40001
1.40001
1.40001
1.40001
1.40001
1.40001
1.40001
1.40001
1.40001
1.40001
1.40001
1.40001
1.40001
1.40002
2.01663
4.76547
5.2855
5.26859
5.26939
5.27076
5.27394
5.27674
5.27825
5.27809
5.27749
5.27236
5.26101
5.24779
5.23575
5.22517
5.21582
5.20487
5.18905
5.16821
5.14428
5.11998
5.09529
5.06964
5.04037
5.00618
4.96598
4.92094
4.87108
4.81643
4.75633
4.68949
4.61387
4.52698
4.42874
4.31411
4.19085
4.04454
3.89006
3.71948
3.54009
3.33827
1.40001
1.40001
1.40001
1.40001
1.40001
1.40001
1.40001
1.40001
1.40001
1.40001
1.40001
1.40001
1.40001
1.40001
1.40001
1.40001
1.40001
1.40001
1.40001
1.40001
1.40001
1.40001
1.40001
1.40001
1.40001
1.40001
1.40001
1.40001
1.40001
1.40001
1.40001
1.40001
1.40001
1.40001
1.40001
1.40001
1.40001
1.40001
1.40001
1.40001
1.40001
1.40001
1.40001
1.40001
1.40001
1.40001
1.40001
1.40001
1.40001
1.40001
1.40001
1.40001
1.40001
1.40001
1.42468
3.36393
5.15705
5.23628
5.24117
5.24575
5.25152
5.25389
5.25337
5.25113
5.25015
5.24499
5.23318
5.21809
5.20331
5.18957
5.17719
5.16445
5.14759
5.12613
5.10129
5.07502
5.04772
5.0191
4.9866
4.94891
4.9056
4.85781
4.80572
4.74886
4.68696
4.61931
4.54465
4.46037
4.36681
4.25758
4.14193
4.01136
3.87583
3.72465
3.56889
3.39961
1.40001
1.40001
1.40001
1.40001
1.40001
1.40001
1.40001
1.40001
1.40001
1.40001
1.40001
1.40001
1.40001
1.40001
1.40001
1.40001
1.40001
1.40001
1.40001
1.40001
1.40001
1.40001
1.40001
1.40001
1.40001
1.40001
1.40001
1.40001
1.40001
1.40001
1.40001
1.40001
1.40001
1.40001
1.40001
1.40001
1.40001
1.40001
1.40001
1.40001
1.40001
1.40001
1.40001
1.40001
1.40001
1.40001
1.40001
1.40001
1.40001
1.40001
1.40001
1.40001
1.40001
1.40001
1.40002
1.74134
4.54231
5.2739
5.25074
5.23976
5.23523
5.23066
5.22476
5.21891
5.21491
5.20788
5.19604
5.18159
5.16663
5.15224
5.13747
5.12277
5.10467
5.08338
5.05883
5.03163
5.00216
4.97089
4.93577
4.89589
4.85095
4.80166
4.74848
4.6906
4.62786
4.55988
4.48707
4.40529
4.31657
4.21583
4.10829
3.99206
3.86922
3.73123
3.59704
3.44988
1.40001
1.40001
1.40001
1.40001
1.40001
1.40001
1.40001
1.40001
1.40001
1.40001
1.40001
1.40001
1.40001
1.40001
1.40001
1.40001
1.40001
1.40001
1.40001
1.40001
1.40001
1.40001
1.40001
1.40001
1.40001
1.40001
1.40001
1.40001
1.40001
1.40001
1.40001
1.40001
1.40001
1.40001
1.40001
1.40001
1.40001
1.40001
1.40001
1.40001
1.40001
1.40001
1.40001
1.40001
1.40001
1.40001
1.40001
1.40001
1.40001
1.40001
1.40001
1.40001
1.40001
1.40001
1.40001
1.40633
2.93889
5.02983
5.18374
5.19468
5.2031
5.20095
5.19434
5.18489
5.17654
5.16721
5.15577
5.14375
5.13055
5.11661
5.10047
5.08326
5.06307
5.04152
5.01682
4.98895
4.95803
4.92515
4.88847
4.84782
4.8026
4.75287
4.69969
4.64183
4.57926
4.51133
4.44022
4.35956
4.27517
4.18323
4.08485
3.97896
3.86726
3.74355
3.62354
3.49332
1.40001
1.40001
1.40001
1.40001
1.40001
1.40001
1.40001
1.40001
1.40001
1.40001
1.40001
1.40001
1.40001
1.40001
1.40001
1.40001
1.40001
1.40001
1.40001
1.40001
1.40001
1.40001
1.40001
1.40001
1.40001
1.40001
1.40001
1.40001
1.40001
1.40001
1.40001
1.40001
1.40001
1.40001
1.40001
1.40001
1.40001
1.40001
1.40001
1.40001
1.40001
1.40001
1.40001
1.40001
1.40001
1.40001
1.40001
1.40001
1.40001
1.40001
1.40001
1.40001
1.40001
1.40001
1.40001
1.40001
1.55279
3.98229
5.16942
5.18263
5.18078
5.1771
5.17253
5.16149
5.14882
5.13675
5.12376
5.11146
5.09869
5.08475
5.06829
5.04903
5.02655
5.00399
4.97761
4.94761
4.91565
4.88179
4.84419
4.80393
4.75955
4.71032
4.65771
4.60011
4.53931
4.47154
4.40208
4.32347
4.24305
4.15868
4.06761
3.96911
3.86886
3.7601
3.64761
3.53083
1.40001
1.40001
1.40001
1.40001
1.40001
1.40001
1.40001
1.40001
1.40001
1.40001
1.40001
1.40001
1.40001
1.40001
1.40001
1.40001
1.40001
1.40001
1.40001
1.40001
1.40001
1.40001
1.40001
1.40001
1.40001
1.40001
1.40001
1.40001
1.40001
1.40001
1.40001
1.40001
1.40001
1.40001
1.40001
1.40001
1.40001
1.40001
1.40001
1.40001
1.40001
1.40001
1.40001
1.40001
1.40001
1.40001
1.40001
1.40001
1.40001
1.40001
1.40001
1.40001
1.40001
1.40001
1.40001
1.40001
1.40114
2.11245
4.75139
5.18093
5.15349
5.1556
5.15047
5.13983
5.1254
5.11091
5.09576
5.08142
5.06761
5.05291
5.03618
5.01614
4.99235
4.96847
4.94024
4.90797
4.87409
4.83932
4.80138
4.76203
4.71915
4.672
4.6204
4.56404
4.50608
4.43842
4.37034
4.29556
4.21898
4.13992
4.05371
3.96391
3.87358
3.77445
3.66882
3.56607
1.40001
1.40001
1.40001
1.40001
1.40001
1.40001
1.40001
1.40001
1.40001
1.40001
1.40001
1.40001
1.40001
1.40001
1.40001
1.40001
1.40001
1.40001
1.40001
1.40001
1.40001
1.40001
1.40001
1.40001
1.40001
1.40001
1.40001
1.40001
1.40001
1.40001
1.40001
1.40001
1.40001
1.40001
1.40001
1.40001
1.40001
1.40001
1.40001
1.40001
1.40001
1.40001
1.40001
1.40001
1.40001
1.40001
1.40001
1.40001
1.40001
1.40001
1.40001
1.40001
1.40001
1.40001
1.40001
1.40001
1.40001
1.43029
3.09315
5.03815
5.13443
5.13368
5.13118
5.12202
5.10917
5.09417
5.07645
5.05824
5.04127
5.02444
5.0061
4.98529
4.96077
4.9352
4.90659
4.87299
4.83781
4.80201
4.76474
4.72512
4.68332
4.63826
4.58822
4.53459
4.47618
4.41157
4.34515
4.27436
4.20146
4.12574
4.04538
3.96329
3.87815
3.78665
3.6902
3.59818
1.40001
1.40001
1.40001
1.40001
1.40001
1.40001
1.40001
1.40001
1.40001
1.40001
1.40001
1.40001
1.40001
1.40001
1.40001
1.40001
1.40001
1.40001
1.40001
1.40001
1.40001
1.40001
1.40001
1.40001
1.40001
1.40001
1.40001
1.40001
1.40001
1.40001
1.40001
1.40001
1.40001
1.40001
1.40001
1.40001
1.40001
1.40001
1.40001
1.40001
1.40001
1.40001
1.40001
1.40001
1.40001
1.40001
1.40001
1.40001
1.40001
1.40001
1.40001
1.40001
1.40001
1.40001
1.40001
1.40001
1.40001
1.40007
1.57693
3.78366
5.08416
5.13056
5.12401
5.11407
5.10093
5.08447
5.0651
5.04322
5.02162
5.00129
4.9803
4.95769
4.93204
4.90461
4.87662
4.84273
4.80747
4.77061
4.73305
4.69302
4.65087
4.60655
4.55836
4.50583
4.44926
4.38852
4.32477
4.25769
4.18825
4.11539
4.04122
3.96418
3.88325
3.79908
3.71174
3.62554
1.40001
1.40001
1.40001
1.40001
1.40001
1.40001
1.40001
1.40001
1.40001
1.40001
1.40001
1.40001
1.40001
1.40001
1.40001
1.40001
1.40001
1.40001
1.40001
1.40001
1.40001
1.40001
1.40001
1.40001
1.40001
1.40001
1.40001
1.40001
1.40001
1.40001
1.40001
1.40001
1.40001
1.40001
1.40001
1.40001
1.40001
1.40001
1.40001
1.40001
1.40001
1.40001
1.40001
1.40001
1.40001
1.40001
1.40001
1.40001
1.40001
1.40001
1.40001
1.40001
1.40001
1.40001
1.40001
1.40001
1.40001
1.40001
1.40164
1.80105
4.47841
5.16866
5.13676
5.11203
5.08684
5.06427
5.0425
5.02082
4.99856
4.97677
4.9554
4.9322
4.9057
4.87712
4.84867
4.81516
4.77993
4.74316
4.7055
4.66646
4.62389
4.57955
4.53192
4.48116
4.4271
4.36945
4.30856
4.24493
4.17857
4.10877
4.03944
3.96605
3.89021
3.81196
3.73225
3.65004
1.40001
1.40001
1.40001
1.40001
1.40001
1.40001
1.40001
1.40001
1.40001
1.40001
1.40001
1.40001
1.40001
1.40001
1.40001
1.40001
1.40001
1.40001
1.40001
1.40001
1.40001
1.40001
1.40001
1.40001
1.40001
1.40001
1.40001
1.40001
1.40001
1.40001
1.40001
1.40001
1.40001
1.40001
1.40001
1.40001
1.40001
1.40001
1.40001
1.40001
1.40001
1.40001
1.40001
1.40001
1.40001
1.40001
1.40001
1.40001
1.40001
1.40001
1.40001
1.40001
1.40001
1.40001
1.40001
1.40001
1.40001
1.40001
1.40001
1.40877
2.57801
4.89809
5.09775
5.06647
5.04832
5.03198
5.01589
4.99773
4.97801
4.95637
4.93396
4.9106
4.88309
4.85422
4.82508
4.79157
4.75648
4.71981
4.68216
4.64325
4.60097
4.55651
4.50932
4.45992
4.40769
4.35253
4.2944
4.23368
4.17011
4.10407
4.03836
3.96853
3.89828
3.82524
3.75163
3.67339
1.40001
1.40001
1.40001
1.40001
1.40001
1.40001
1.40001
1.40001
1.40001
1.40001
1.40001
1.40001
1.40001
1.40001
1.40001
1.40001
1.40001
1.40001
1.40001
1.40001
1.40001
1.40001
1.40001
1.40001
1.40001
1.40001
1.40001
1.40001
1.40001
1.40001
1.40001
1.40001
1.40001
1.40001
1.40001
1.40001
1.40001
1.40001
1.40001
1.40001
1.40001
1.40001
1.40001
1.40001
1.40001
1.40001
1.40001
1.40001
1.40001
1.40001
1.40001
1.40001
1.40001
1.40001
1.40001
1.40001
1.40001
1.40001
1.40001
1.40002
1.48108
3.20999
4.97878
5.03339
5.0206
5.01875
5.00937
4.99475
4.97618
4.95393
4.92934
4.90387
4.87427
4.84375
4.81154
4.77614
4.73952
4.70192
4.66356
4.62449
4.5821
4.53805
4.49203
4.4438
4.39282
4.33931
4.28324
4.22468
4.16345
4.10112
4.03776
3.97098
3.90581
3.83796
3.76931
3.69574
1.40001
1.40001
1.40001
1.40001
1.40001
1.40001
1.40001
1.40001
1.40001
1.40001
1.40001
1.40001
1.40001
1.40001
1.40001
1.40001
1.40001
1.40001
1.40001
1.40001
1.40001
1.40001
1.40001
1.40001
1.40001
1.40001
1.40001
1.40001
1.40001
1.40001
1.40001
1.40001
1.40001
1.40001
1.40001
1.40001
1.40001
1.40001
1.40001
1.40001
1.40001
1.40001
1.40001
1.40001
1.40001
1.40001
1.40001
1.40001
1.40001
1.40001
1.40001
1.40001
1.40001
1.40001
1.40001
1.40001
1.40001
1.40001
1.40001
1.40001
1.40044
1.60275
3.59368
4.98344
5.01079
5.00662
4.99968
4.98678
4.97007
4.9488
4.92446
4.89742
4.86682
4.83461
4.80016
4.76379
4.72634
4.68794
4.64862
4.60864
4.56674
4.52251
4.4776
4.43074
4.381
4.32878
4.27418
4.21733
4.15813
4.09869
4.03715
3.97329
3.91256
3.84967
3.78505
3.71638
1.40001
1.40001
1.40001
1.40001
1.40001
1.40001
1.40001
1.40001
1.40001
1.40001
1.40001
1.40001
1.40001
1.40001
1.40001
1.40001
1.40001
1.40001
1.40001
1.40001
1.40001
1.40001
1.40001
1.40001
1.40001
1.40001
1.40001
1.40001
1.40001
1.40001
1.40001
1.40001
1.40001
1.40001
1.40001
1.40001
1.40001
1.40001
1.40001
1.40001
1.40001
1.40001
1.40001
1.40001
1.40001
1.40001
1.40001
1.40001
1.40001
1.40001
1.40001
1.40001
1.40001
1.40001
1.40001
1.40001
1.40001
1.40001
1.40001
1.40001
1.40001
1.40229
1.72497
3.91356
5.01133
5.00993
4.9947
4.97843
4.96003
4.93816
4.91451
4.88845
4.85917
4.82692
4.79238
4.75608
4.71844
4.67948
4.63951
4.59892
4.55719
4.5136
4.46892
4.42265
4.37395
4.32289
4.26937
4.2137
4.15614
4.09805
4.0379
3.97702
3.91997
3.86113
3.79979
3.73553
1.40001
1.40001
1.40001
1.40001
1.40001
1.40001
1.40001
1.40001
1.40001
1.40001
1.40001
1.40001
1.40001
1.40001
1.40001
1.40001
1.40001
1.40001
1.40001
1.40001
1.40001
1.40001
1.40001
1.40001
1.40001
1.40001
1.40001
1.40001
1.40001
1.40001
1.40001
1.40001
1.40001
1.40001
1.40001
1.40001
1.40001
1.40001
1.40001
1.40001
1.40001
1.40001
1.40001
1.40001
1.40001
1.40001
1.40001
1.40001
1.40001
1.40001
1.40001
1.40001
1.40001
1.40001
1.40001
1.40001
1.40001
1.40001
1.40001
1.40001
1.40001
1.40001
1.40575
1.86165
4.19473
5.01819
5.00234
4.97976
4.95517
4.93022
4.90418
4.877
4.84742
4.81562
4.782
4.74676
4.71013
4.67191
4.63237
4.59198
4.55061
4.50806
4.46401
4.41792
4.36972
4.31958
4.2669
4.21232
4.15627
4.09921
4.04123
3.98338
3.92897
3.87282
3.81373
3.75263
1.40001
1.40001
1.40001
1.40001
1.40001
1.40001
1.40001
1.40001
1.40001
1.40001
1.40001
1.40001
1.40001
1.40001
1.40001
1.40001
1.40001
1.40001
1.40001
1.40001
1.40001
1.40001
1.40001
1.40001
1.40001
1.40001
1.40001
1.40001
1.40001
1.40001
1.40001
1.40001
1.40001
1.40001
1.40001
1.40001
1.40001
1.40001
1.40001
1.40001
1.40001
1.40001
1.40001
1.40001
1.40001
1.40001
1.40001
1.40001
1.40001
1.40001
1.40001
1.40001
1.40001
1.40001
1.40001
1.40001
1.40001
1.40001
1.40001
1.40001
1.40001
1.40001
1.40002
1.41152
2.01569
4.39989
5.02895
5.00249
4.97126
4.93837
4.90701
4.87531
4.84188
4.80817
4.77368
4.73851
4.70261
4.66548
4.62715
4.58784
4.54758
4.50621
4.46294
4.41724
4.36945
4.31978
4.26769
4.21396
4.15966
4.10466
4.04928
3.99383
3.94048
3.88563
3.82758
3.76773
1.40001
1.40001
1.40001
1.40001
1.40001
1.40001
1.40001
1.40001
1.40001
1.40001
1.40001
1.40001
1.40001
1.40001
1.40001
1.40001
1.40001
1.40001
1.40001
1.40001
1.40001
1.40001
1.40001
1.40001
1.40001
1.40001
1.40001
1.40001
1.40001
1.40001
1.40001
1.40001
1.40001
1.40001
1.40001
1.40001
1.40001
1.40001
1.40001
1.40001
1.40001
1.40001
1.40001
1.40001
1.40001
1.40001
1.40001
1.40001
1.40001
1.40001
1.40001
1.40001
1.40001
1.40001
1.40001
1.40001
1.40001
1.40001
1.40001
1.40001
1.40001
1.40001
1.40001
1.40004
1.42052
2.16444
4.58253
5.02591
4.99447
4.95904
4.9189
4.88129
4.84448
4.80773
4.77061
4.73424
4.69791
4.66092
4.62306
4.5843
4.54466
4.50382
4.4611
4.4163
4.3695
4.32102
4.27067
4.21869
4.16645
4.1133
4.05966
4.0055
3.95174
3.89746
3.841
3.78337
1.40001
1.40001
1.40001
1.40001
1.40001
1.40001
1.40001
1.40001
1.40001
1.40001
1.40001
1.40001
1.40001
1.40001
1.40001
1.40001
1.40001
1.40001
1.40001
1.40001
1.40001
1.40001
1.40001
1.40001
1.40001
1.40001
1.40001
1.40001
1.40001
1.40001
1.40001
1.40001
1.40001
1.40001
1.40001
1.40001
1.40001
1.40001