/*--------------------------------*- C++ -*----------------------------------*\
  =========                 |
  \\      /  F ield         | OpenFOAM: The Open Source CFD Toolbox
   \\    /   O peration     | Website:  https://openfoam.org
    \\  /    A nd           | Version:  7
     \\/     M anipulation  |
\*---------------------------------------------------------------------------*/
FoamFile
{
    version     2.0;
    format      ascii;
    class       volScalarField;
    location    "7.5";
    object      T;
}
// * * * * * * * * * * * * * * * * * * * * * * * * * * * * * * * * * * * * * //

dimensions      [0 0 0 1 0 0 0];

internalField   nonuniform List<scalar> 
19968
(
1
1
1
1
1
1
1
1
1
1
1
1
1
1
1
1
1
1
1
1
1
1
1
1
1
1
1
1
1
1
1
1
1
1
1
1
1
1
1
1
1
1
1
1
1
1
1
1
1.26668
2.4526
2.68527
2.69278
2.69949
2.70434
2.70833
2.71172
2.71486
2.71795
2.72111
2.72449
2.7282
2.73237
2.73692
2.74149
2.74544
2.74844
2.75081
2.7531
2.75568
2.75867
2.76192
2.76511
2.76801
2.77066
2.7732
2.77577
2.77834
2.78078
2.78296
2.78483
2.78649
2.78806
2.78966
2.79131
2.793
2.79465
2.79618
2.79755
2.79872
2.79974
2.80065
2.80147
2.80222
2.80286
2.80335
2.80372
1
1
1
1
1
1
1
1
1
1
1
1
1
1
1
1
1
1
1
1
1
1
1
1
1
1
1
1
1
1
1
1
1
1
1
1
1
1
1
1
1
1
1
1
1
1
1
1
1.25575
2.44737
2.68537
2.69267
2.69922
2.70408
2.70808
2.71147
2.71458
2.71762
2.72076
2.72414
2.72786
2.73206
2.73661
2.74113
2.74502
2.748
2.7504
2.75273
2.75536
2.75838
2.76165
2.76484
2.76773
2.77037
2.77291
2.77547
2.77805
2.78049
2.78266
2.78453
2.78619
2.78776
2.78936
2.791
2.79267
2.7943
2.79582
2.79717
2.79834
2.79934
2.80023
2.80103
2.80177
2.80238
2.80285
2.80321
1
1
1
1
1
1
1
1
1
1
1
1
1
1
1
1
1
1
1
1
1
1
1
1
1
1
1
1
1
1
1
1
1
1
1
1
1
1
1
1
1
1
1
1
1
1
1
1
1.22839
2.433
2.68568
2.69186
2.69822
2.70311
2.70725
2.71068
2.71377
2.71679
2.71998
2.7235
2.72733
2.73158
2.73606
2.74045
2.74421
2.74715
2.74957
2.75198
2.75469
2.75781
2.76112
2.76431
2.76719
2.7698
2.77233
2.7749
2.77747
2.77991
2.78208
2.78396
2.78563
2.78721
2.78881
2.79043
2.79208
2.79369
2.7952
2.79655
2.79772
2.79872
2.7996
2.80038
2.80109
2.80169
2.80214
2.80247
1
1
1
1
1
1
1
1
1
1
1
1
1
1
1
1
1
1
1
1
1
1
1
1
1
1
1
1
1
1
1
1
1
1
1
1
1
1
1
1
1
1
1
1
1
1
1
1
1.18676
2.40801
2.68597
2.69089
2.69683
2.70176
2.70606
2.70958
2.71268
2.71576
2.71916
2.72295
2.72693
2.73115
2.73545
2.7396
2.74315
2.74601
2.74846
2.75097
2.75381
2.75703
2.76039
2.76358
2.76643
2.76902
2.77154
2.7741
2.77667
2.77911
2.78128
2.78315
2.78482
2.7864
2.78796
2.78954
2.79112
2.79268
2.79415
2.79548
2.79664
2.79763
2.79851
2.79929
2.79999
2.80059
2.80102
2.80136
1
1
1
1
1
1
1
1
1
1
1
1
1
1
1
1
1
1
1
1
1
1
1
1
1
1
1
1
1
1
1
1
1
1
1
1
1
1
1
1
1
1
1
1
1
1
1
1
1.12782
2.36998
2.68661
2.69027
2.69565
2.70033
2.70459
2.7082
2.71147
2.71482
2.71854
2.7226
2.72671
2.73088
2.73492
2.73873
2.74199
2.74474
2.74724
2.74987
2.75284
2.75614
2.75952
2.76269
2.76551
2.76809
2.7706
2.77315
2.77571
2.77815
2.78034
2.78224
2.78392
2.78549
2.78702
2.78854
2.79007
2.79157
2.79299
2.79426
2.79534
2.79626
2.79704
2.79774
2.79836
2.79888
2.79926
2.79955
1
1
1
1
1
1
1
1
1
1
1
1
1
1
1
1
1
1
1
1
1
1
1
1
1
1
1
1
1
1
1
1
1
1
1
1
1
1
1
1
1
1
1
1
1
1
1
1
1.02152
2.3074
2.68735
2.69038
2.69479
2.69908
2.70321
2.70706
2.71082
2.71469
2.71872
2.72291
2.72703
2.73108
2.73477
2.73809
2.74093
2.74348
2.74599
2.74871
2.75176
2.75506
2.75835
2.76139
2.76412
2.76663
2.76908
2.77158
2.77409
2.7765
2.77867
2.78057
2.78224
2.78378
2.78527
2.78675
2.78824
2.78972
2.79113
2.7924
2.79349
2.7944
2.79518
2.79586
2.79644
2.79692
2.79724
2.7975
1
1
1
1
1
1
1
1
1
1
1
1
1
1
1
1
1
1
1
1
1
1
1
1
1
1
1
1
1
1
1
1
1
1
1
1
1
1
1
1
1
1
1
1
1
1
1
1
1.0002
2.21994
2.68308
2.6879
2.69131
2.69546
2.69943
2.70341
2.70753
2.71185
2.7163
2.72079
2.72507
2.72909
2.73254
2.73554
2.73815
2.74065
2.7433
2.74621
2.74938
2.75267
2.75589
2.75886
2.76156
2.76408
2.76656
2.76905
2.77154
2.77394
2.77612
2.77803
2.77971
2.78123
2.7827
2.78416
2.78564
2.78713
2.78854
2.78981
2.7909
2.7918
2.79256
2.7932
2.79372
2.79413
2.79438
2.7946
1
1
1
1
1
1
1
1
1
1
1
1
1
1
1
1
1
1
1
1
1
1
1
1
1
1
1
1
1
1
1
1
1
1
1
1
1
1
1
1
1
1
1
1
1
1
1
1
1
2.08949
2.67108
2.68507
2.68798
2.69253
2.69653
2.70052
2.70462
2.70894
2.71354
2.71818
2.72254
2.72651
2.72983
2.73275
2.73534
2.73787
2.74062
2.74362
2.7468
2.75005
2.75319
2.75612
2.75881
2.76134
2.7638
2.76625
2.7687
2.77106
2.77322
2.77513
2.77678
2.77827
2.77968
2.7811
2.78255
2.78401
2.7854
2.78666
2.78774
2.78863
2.78936
2.78994
2.79037
2.79067
2.79083
2.791
1
1
1
1
1
1
1
1
1
1
1
1
1
1
1
1
1
1
1
1
1
1
1
1
1
1
1
1
1
1
1
1
1
1
1
1
1
1
1
1
1
1
1
1
1
1
1
1
1
1.9082
2.63807
2.67886
2.68288
2.68826
2.69246
2.69643
2.70044
2.70463
2.70916
2.71382
2.7183
2.72238
2.72582
2.72886
2.7316
2.73422
2.73699
2.73996
2.74304
2.74616
2.74923
2.75212
2.75484
2.7574
2.75985
2.76226
2.76465
2.76697
2.76913
2.77104
2.77268
2.77412
2.77548
2.77684
2.77825
2.77968
2.78107
2.78235
2.78346
2.78437
2.78509
2.78563
2.78597
2.78619
2.78625
2.78636
1
1
1
1
1
1
1
1
1
1
1
1
1
1
1
1
1
1
1
1
1
1
1
1
1
1
1
1
1
1
1
1
1
1
1
1
1
1
1
1
1
1
1
1
1
1
1
1
1
1.67078
2.578
2.6708
2.67842
2.68444
2.68861
2.69226
2.69589
2.69974
2.70397
2.70851
2.71308
2.71736
2.72108
2.72436
2.72735
2.73009
2.73282
2.73563
2.73852
2.74148
2.74448
2.74738
2.75011
2.75265
2.75502
2.75729
2.75952
2.76173
2.76384
2.76574
2.76739
2.76882
2.77014
2.77146
2.77283
2.77424
2.77562
2.7769
2.77801
2.77889
2.77954
2.77997
2.78018
2.78028
2.78024
2.78026
1
1
1
1
1
1
1
1
1
1
1
1
1
1
1
1
1
1
1
1
1
1
1
1
1
1
1
1
1
1
1
1
1
1
1
1
1
1
1
1
1
1
1
1
1
1
1
1
1
1.36708
2.47399
2.67014
2.67334
2.67996
2.68396
2.68744
2.69082
2.6944
2.69831
2.70263
2.70716
2.71157
2.71557
2.71912
2.72233
2.72518
2.72786
2.73051
2.73321
2.73602
2.73898
2.74194
2.74476
2.74733
2.74965
2.75176
2.75379
2.75581
2.75778
2.75959
2.76113
2.76242
2.76354
2.76461
2.76574
2.76695
2.7682
2.76942
2.77052
2.77141
2.77204
2.77243
2.77261
2.7727
2.77266
2.77267
1
1
1
1
1
1
1
1
1
1
1
1
1
1
1
1
1
1
1
1
1
1
1
1
1
1
1
1
1
1
1
1
1
1
1
1
1
1
1
1
1
1
1
1
1
1
1
1
1
1.01471
2.29478
2.67896
2.67928
2.68079
2.68319
2.68584
2.68866
2.69175
2.69509
2.69869
2.70247
2.70624
2.70983
2.71315
2.71626
2.71905
2.72153
2.72388
2.72626
2.72879
2.73159
2.73451
2.73734
2.73994
2.74222
2.74423
2.74609
2.74795
2.74982
2.75159
2.75313
2.7544
2.75544
2.7564
2.75739
2.75847
2.75962
2.76074
2.76165
2.76222
2.76242
2.76239
2.7622
2.76198
2.76178
2.76171
1
1
1
1
1
1
1
1
1
1
1
1
1
1
1
1
1
1
1
1
1
1
1
1
1
1
1
1
1
1
1
1
1
1
1
1
1
1
1
1
1
1
1
1
1
1
1
1
1
1.00003
2.01793
2.64751
2.66175
2.6659
2.671
2.67536
2.67922
2.68282
2.68634
2.68982
2.69327
2.69667
2.70001
2.70332
2.70653
2.70948
2.7121
2.71444
2.71671
2.71913
2.72179
2.72466
2.72749
2.73012
2.73242
2.73439
2.73614
2.73782
2.73952
2.74117
2.74263
2.74379
2.74466
2.74533
2.74591
2.74651
2.74714
2.74774
2.74814
2.74827
2.74819
2.74803
2.74779
2.74757
2.74731
2.74722
1
1
1
1
1
1
1
1
1
1
1
1
1
1
1
1
1
1
1
1
1
1
1
1
1
1
1
1
1
1
1
1
1
1
1
1
1
1
1
1
1
1
1
1
1
1
1
1
1
1
1.54785
2.51801
2.6462
2.6534
2.66143
2.66694
2.6715
2.67564
2.67959
2.68328
2.68663
2.68965
2.69252
2.6955
2.69858
2.70155
2.7042
2.70648
2.70849
2.71052
2.71271
2.7151
2.71754
2.71986
2.72193
2.72367
2.72514
2.72647
2.72773
2.72896
2.73007
2.73094
2.73158
2.73194
2.7321
2.73237
2.73267
2.73288
2.73287
2.73248
2.73156
2.73024
2.72827
2.72572
2.72294
2.72073
1
1
1
1
1
1
1
1
1
1
1
1
1
1
1
1
1
1
1
1
1
1
1
1
1
1
1
1
1
1
1
1
1
1
1
1
1
1
1
1
1
1
1
1
1
1
1
1
1
1
1.02832
2.2556
2.65633
2.6555
2.65662
2.65934
2.66273
2.66671
2.67088
2.67474
2.67793
2.68051
2.68284
2.68532
2.68814
2.6911
2.69385
2.69616
2.698
2.69963
2.70132
2.70312
2.70503
2.70686
2.70855
2.71004
2.71132
2.71228
2.71294
2.71357
2.71407
2.71434
2.71433
2.71408
2.71359
2.71294
2.71197
2.71049
2.70826
2.70515
2.70132
2.69718
2.69341
2.68967
2.68713
2.6859
1
1
1
1
1
1
1
1
1
1
1
1
1
1
1
1
1
1
1
1
1
1
1
1
1
1
1
1
1
1
1
1
1
1
1
1
1
1
1
1
1
1
1
1
1
1
1
1
1
1
1.00005
1.76713
2.56203
2.63283
2.63872
2.64359
2.64834
2.65328
2.65792
2.66191
2.66514
2.66784
2.67036
2.67304
2.67602
2.67919
2.68212
2.68449
2.68627
2.68767
2.68891
2.6901
2.69128
2.69239
2.69341
2.69452
2.69552
2.69581
2.69588
2.69574
2.69523
2.69435
2.69319
2.69179
2.69014
2.68814
2.68558
2.68223
2.67795
2.67279
2.66691
2.66078
2.65498
2.65247
2.64937
2.66371
1
1
1
1
1
1
1
1
1
1
1
1
1
1
1
1
1
1
1
1
1
1
1
1
1
1
1
1
1
1
1
1
1
1
1
1
1
1
1
1
1
1
1
1
1
1
1
1
1
1
1
1.12026
2.34763
2.63056
2.62978
2.63262
2.63699
2.64186
2.6465
2.65046
2.65377
2.65652
2.65904
2.6617
2.66462
2.66774
2.6707
2.67306
2.67485
2.67616
2.67691
2.67762
2.67825
2.6787
2.679
2.67941
2.67975
2.67963
2.67925
2.67839
2.67685
2.6747
2.67211
2.66919
2.6659
2.66203
2.65716
2.65081
2.64226
2.63114
2.6159
2.59542
2.56553
2.5232
2.45909
2.32945
1
1
1
1
1
1
1
1
1
1
1
1
1
1
1
1
1
1
1
1
1
1
1
1
1
1
1
1
1
1
1
1
1
1
1
1
1
1
1
1
1
1
1
1
1
1
1
1
1
1
1
1.00116
2.01377
2.59589
2.61301
2.6177
2.62373
2.62906
2.63343
2.63695
2.64023
2.64311
2.64586
2.6488
2.65205
2.65547
2.65871
2.66132
2.66326
2.66456
2.66514
2.66572
2.66623
2.66643
2.66628
2.66591
2.66548
2.66491
2.66405
2.66259
2.66028
2.65707
2.6531
2.64855
2.64339
2.63748
2.6301
2.62071
2.60792
2.59147
2.56869
2.53875
2.4946
2.43718
2.32714
2.16419
1
1
1
1
1
1
1
1
1
1
1
1
1
1
1
1
1
1
1
1
1
1
1
1
1
1
1
1
1
1
1
1
1
1
1
1
1
1
1
1
1
1
1
1
1
1
1
1
1
1
1
0.999999
1.3868
2.42158
2.59838
2.6038
2.61124
2.61703
2.6219
2.62534
2.62846
2.63109
2.63372
2.63664
2.63994
2.64342
2.64668
2.64941
2.65138
2.65257
2.65305
2.65337
2.65367
2.65374
2.65339
2.65247
2.65125
2.64992
2.64831
2.64612
2.64301
2.6388
2.63345
2.62723
2.62003
2.61193
2.602
2.58971
2.57349
2.55268
2.52543
2.48889
2.44068
2.36747
2.26258
2.13422
1
1
1
1
1
1
1
1
1
1
1
1
1
1
1
1
1
1
1
1
1
1
1
1
1
1
1
1
1
1
1
1
1
1
1
1
1
1
1
1
1
1
1
1
1
1
1
1
1
1
1
1
1.01507
2.1131
2.59623
2.59561
2.59791
2.60312
2.60866
2.61285
2.61605
2.61838
2.6206
2.62327
2.62655
2.63003
2.63322
2.63593
2.63793
2.6391
2.63953
2.63966
2.63967
2.63959
2.63909
2.63798
2.63635
2.63439
2.63202
2.62906
2.6251
2.62001
2.61351
2.60588
2.5969
2.58667
2.57448
2.5597
2.54113
2.51765
2.48806
2.44941
2.39962
2.33231
2.24669
2.1471
1
1
1
1
1
1
1
1
1
1
1
1
1
1
1
1
1
1
1
1
1
1
1
1
1
1
1
1
1
1
1
1
1
1
1
1
1
1
1
1
1
1
1
1
1
1
1
1
1
1
1
1
1.00001
1.45218
2.4355
2.58554
2.58925
2.59555
2.60013
2.60288
2.60486
2.60633
2.60786
2.61005
2.61307
2.61605
2.61898
2.62146
2.6233
2.62449
2.62511
2.62529
2.62512
2.62468
2.62386
2.62261
2.62083
2.61855
2.6156
2.61192
2.60714
2.60123
2.59385
2.58517
2.57493
2.56309
2.54919
2.53259
2.51258
2.48802
2.4582
2.42041
2.37357
2.31674
2.25031
2.17073
1
1
1
1
1
1
1
1
1
1
1
1
1
1
1
1
1
1
1
1
1
1
1
1
1
1
1
1
1
1
1
1
1
1
1
1
1
1
1
1
1
1
1
1
1
1
1
1
1
1
1
1
1
1.01987
2.11396
2.58367
2.58672
2.58948
2.59183
2.59358
2.59458
2.59519
2.59596
2.59744
2.59982
2.60237
2.60495
2.60704
2.60829
2.60896
2.60948
2.60974
2.60953
2.60888
2.60776
2.60639
2.60459
2.60219
2.59885
2.59454
2.58904
2.58243
2.57445
2.56511
2.55418
2.54143
2.52651
2.50887
2.48818
2.46343
2.43514
2.39918
2.35787
2.31023
2.25696
2.19461
1
1
1
1
1
1
1
1
1
1
1
1
1
1
1
1
1
1
1
1
1
1
1
1
1
1
1
1
1
1
1
1
1
1
1
1
1
1
1
1
1
1
1
1
1
1
1
1
1
1
1
1
1
1.00002
1.40893
2.41081
2.57401
2.5781
2.58226
2.5842
2.58441
2.58425
2.58436
2.585
2.58678
2.589
2.59108
2.59265
2.59305
2.59287
2.59286
2.59294
2.59275
2.59206
2.59089
2.5895
2.58767
2.58516
2.58153
2.57674
2.57075
2.56371
2.55545
2.54582
2.53463
2.52164
2.50653
2.48876
2.46832
2.44389
2.41709
2.38426
2.34855
2.30756
2.26331
2.21183
1
1
1
1
1
1
1
1
1
1
1
1
1
1
1
1
1
1
1
1
1
1
1
1
1
1
1
1
1
1
1
1
1
1
1
1
1
1
1
1
1
1
1
1
1
1
1
1
1
1
1
1
1
1
1.01505
2.03675
2.55797
2.56867
2.57198
2.57403
2.57497
2.57478
2.57467
2.57487
2.57635
2.57834
2.57995
2.5806
2.58019
2.57897
2.57769
2.57682
2.576
2.57508
2.57394
2.57258
2.57072
2.56802
2.56403
2.55877
2.55243
2.54519
2.53694
2.52734
2.5162
2.50333
2.48853
2.47127
2.4517
2.42828
2.403
2.37369
2.34251
2.30653
2.2683
2.22566
1
1
1
1
1
1
1
1
1
1
1
1
1
1
1
1
1
1
1
1
1
1
1
1
1
1
1
1
1
1
1
1
1
1
1
1
1
1
1
1
1
1
1
1
1
1
1
1
1
1
1
1
1
1
1.00001
1.23753
2.34725
2.56404
2.56211
2.56294
2.56358
2.56344
2.56321
2.56344
2.56481
2.5667
2.56808
2.56816
2.56748
2.56579
2.56345
2.56144
2.55972
2.55843
2.55718
2.55568
2.55356
2.55053
2.54617
2.54058
2.53401
2.52669
2.51861
2.50935
2.49863
2.48621
2.47217
2.45564
2.43718
2.41564
2.39216
2.36619
2.33812
2.30554
2.273
2.23632
1
1
1
1
1
1
1
1
1
1
1
1
1
1
1
1
1
1
1
1
1
1
1
1
1
1
1
1
1
1
1
1
1
1
1
1
1
1
1
1
1
1
1
1
1
1
1
1
1
1
1
1
1
1
1
1.00404
1.85801
2.50641
2.5395
2.54477
2.54829
2.54959
2.54995
2.55043
2.55183
2.55383
2.55538
2.5557
2.55516
2.55351
2.55062
2.54757
2.54483
2.54294
2.54123
2.53932
2.53677
2.53338
2.52869
2.52283
2.51606
2.5086
2.50068
2.49183
2.48173
2.46995
2.45683
2.44097
2.42373
2.40435
2.3831
2.3597
2.33427
2.30551
2.27685
2.24488
1
1
1
1
1
1
1
1
1
1
1
1
1
1
1
1
1
1
1
1
1
1
1
1
1
1
1
1
1
1
1
1
1
1
1
1
1
1
1
1
1
1
1
1
1
1
1
1
1
1
1
1
1
1
1
1
1.10106
2.20874
2.53345
2.53581
2.53577
2.5359
2.53665
2.53728
2.53871
2.54101
2.54275
2.54332
2.54301
2.54164
2.53881
2.53525
2.53178
2.52932
2.52686
2.52415
2.5211
2.51731
2.51223
2.50616
2.49917
2.49144
2.48345
2.47473
2.46533
2.4541
2.4419
2.42702
2.41108
2.39374
2.37446
2.35305
2.33075
2.30584
2.2795
2.25144
1
1
1
1
1
1
1
1
1
1
1
1
1
1
1
1
1
1
1
1
1
1
1
1
1
1
1
1
1
1
1
1
1
1
1
1
1
1
1
1
1
1
1
1
1
1
1
1
1
1
1
1
1
1
1
1
1.00068
1.44945
2.36185
2.51343
2.5134
2.51692
2.51965
2.52182
2.52418
2.52712
2.52914
2.52974
2.52956
2.52849
2.52609
2.52275
2.51918
2.51645
2.51349
2.51012
2.50645
2.50226
2.49686
2.49062
2.48344
2.47556
2.46726
2.45848
2.44965
2.43864
2.42711
2.41351
2.39885
2.38311
2.36529
2.34624
2.32673
2.30472
2.2805
2.25653
1
1
1
1
1
1
1
1
1
1
1
1
1
1
1
1
1
1
1
1
1
1
1
1
1
1
1
1
1
1
1
1
1
1
1
1
1
1
1
1
1
1
1
1
1
1
1
1
1
1
1
1
1
1
1
1
1
1.01803
1.89126
2.46722
2.49762
2.503
2.50633
2.50844
2.51101
2.514
2.51564
2.51572
2.51539
2.51429
2.51218
2.50936
2.50619
2.50349
2.50072
2.49721
2.4933
2.48884
2.48345
2.47693
2.46957
2.46155
2.45292
2.44413
2.43479
2.42427
2.41317
2.40064
2.38708
2.37236
2.35614
2.33918
2.3213
2.3016
2.28
2.25927
1
1
1
1
1
1
1
1
1
1
1
1
1
1
1
1
1
1
1
1
1
1
1
1
1
1
1
1
1
1
1
1
1
1
1
1
1
1
1
1
1
1
1
1
1
1
1
1
1
1
1
1
1
1
1
1
1
1.00003
1.11723
2.12105
2.47563
2.4962
2.49724
2.49854
2.50009
2.5018
2.50241
2.50207
2.50109
2.49959
2.49752
2.49509
2.49241
2.48994
2.48782
2.48469
2.48106
2.47657
2.47121
2.4646
2.457
2.44878
2.43999
2.43081
2.42131
2.41123
2.40049
2.38874
2.37601
2.36201
2.3473
2.33164
2.31486
2.29715
2.27842
2.25939
1
1
1
1
1
1
1
1
1
1
1
1
1
1
1
1
1
1
1
1
1
1
1
1
1
1
1
1
1
1
1
1
1
1
1
1
1
1
1
1
1
1
1
1
1
1
1
1
1
1
1
1
1
1
1
1
1
1
1.00093
1.26742
2.2639
2.4801
2.48078
2.4825
2.48342
2.48444
2.48497
2.48496
2.4844
2.48324
2.48177
2.47998
2.47787
2.47585
2.47424
2.47174
2.46857
2.46446
2.45933
2.45311
2.44554
2.43726
2.42835
2.41915
2.40973
2.39991
2.3895
2.37833
2.36619
2.35282
2.33914
2.32425
2.30859
2.29225
2.27554
2.25806
1
1
1
1
1
1
1
1
1
1
1
1
1
1
1
1
1
1
1
1
1
1
1
1
1
1
1
1
1
1
1
1
1
1
1
1
1
1
1
1
1
1
1
1
1
1
1
1
1
1
1
1
1
1
1
1
1
1
1
1.00515
1.65717
2.37594
2.45822
2.45592
2.45815
2.46093
2.46338
2.46488
2.46553
2.46524
2.46458
2.46376
2.46242
2.46115
2.46007
2.45816
2.45552
2.45187
2.44715
2.44134
2.43414
2.42607
2.41736
2.4084
2.39921
2.38971
2.37972
2.36907
2.35746
2.34485
2.33188
2.31761
2.30302
2.28767
2.27219
2.25568
1
1
1
1
1
1
1
1
1
1
1
1
1
1
1
1
1
1
1
1
1
1
1
1
1
1
1
1
1
1
1
1
1
1
1
1
1
1
1
1
1
1
1
1
1
1
1
1
1
1
1
1
1
1
1
1
1
1
1
1.00001
1.04962
1.90831
2.41772
2.44501
2.44438
2.44627
2.44763
2.44867
2.44921
2.44901
2.44861
2.44829
2.44748
2.44673
2.44581
2.44414
2.44173
2.43838
2.43405
2.42875
2.42208
2.41459
2.40653
2.39813
2.3894
2.38038
2.37091
2.3608
2.34978
2.33804
2.32556
2.31184
2.29816
2.28371
2.26906
2.25333
1
1
1
1
1
1
1
1
1
1
1
1
1
1
1
1
1
1
1
1
1
1
1
1
1
1
1
1
1
1
1
1
1
1
1
1
1
1
1
1
1
1
1
1
1
1
1
1
1
1
1
1
1
1
1
1
1
1
1
1
1.00021
1.13297
2.02503
2.41308
2.43567
2.4374
2.43777
2.43733
2.43671
2.43578
2.43486
2.43397
2.43289
2.43192
2.4307
2.42897
2.4266
2.42345
2.41942
2.41456
2.40866
2.40182
2.39465
2.38713
2.37919
2.37089
2.36213
2.35272
2.34246
2.3316
2.31966
2.30661
2.29386
2.28036
2.26635
2.25139
1
1
1
1
1
1
1
1
1
1
1
1
1
1
1
1
1
1
1
1
1
1
1
1
1
1
1
1
1
1
1
1
1
1
1
1
1
1
1
1
1
1
1
1
1
1
1
1
1
1
1
1
1
1
1
1
1
1
1
1
1
1.00124
1.21233
2.10335
2.39956
2.42857
2.42772
2.42716
2.4262
2.42476
2.42336
2.42196
2.42039
2.41864
2.41667
2.41435
2.41157
2.40821
2.40421
2.39961
2.3943
2.38827
2.38189
2.37525
2.36826
2.36089
2.35299
2.34441
2.33501
2.32488
2.31365
2.30161
2.28986
2.2773
2.26391
2.24974
1
1
1
1
1
1
1
1
1
1
1
1
1
1
1
1
1
1
1
1
1
1
1
1
1
1
1
1
1
1
1
1
1
1
1
1
1
1
1
1
1
1
1
1
1
1
1
1
1
1
1
1
1
1
1
1
1
1
1
1
1
1
1.00318
1.29506
2.15646
2.38964
2.41002
2.41262
2.41264
2.41233
2.41151
2.41022
2.40837
2.40612
2.40352
2.40057
2.39728
2.39354
2.38934
2.38472
2.37967
2.37423
2.36849
2.36249
2.35626
2.34976
2.3427
2.33497
2.32647
2.31721
2.30708
2.29621
2.28543
2.27373
2.261
2.24759
1
1
1
1
1
1
1
1
1
1
1
1
1
1
1
1
1
1
1
1
1
1
1
1
1
1
1
1
1
1
1
1
1
1
1
1
1
1
1
1
1
1
1
1
1
1
1
1
1
1
1
1
1
1
1
1
1
1
1
1
1
1
1
1.00646
1.37836
2.19547
2.37638
2.39062
2.39443
2.39554
2.39602
2.39561
2.39443
2.39265
2.39024
2.38732
2.38397
2.38015
2.3759
2.37128
2.36634
2.36117
2.35571
2.34996
2.34405
2.33795
2.33142
2.32444
2.317
2.30883
2.29983
2.29002
2.28
2.26908
2.25698
2.24421
1
1
1
1
1
1
1
1
1
1
1
1
1
1
1
1
1
1
1
1
1
1
1
1
1
1
1
1
1
1
1
1
1
1
1
1
1
1
1
1
1
1
1
1
1
1
1
1
1
1
1
1
1
1
1
1
1
1
1
1
1
1
1
1.00001
1.01168
1.45229
2.22658
2.36727
2.37048
2.37315
2.37451
2.37574
2.3757
2.37513
2.37385
2.37202
2.36959
2.3665
2.36278
2.35852
2.35384
2.34883
2.3435
2.33792
2.33215
2.32628
2.32016
2.31364
2.30682
2.29934
2.29114
2.28216
2.27263
2.26242
2.25112
2.23927
1
1
1
1
1
1
1
1
1
1
1
1
1
1
1
1
1
1
1
1
1
1
1
1
1
1
1
1
1
1
1
1
1
1
1
1
1
1
1
1
1
1
1
1
1
1
1
1
1
1
1
1
1
1
1
1
1
1
1
1
1
1
1
1
1.00003
1.01849
1.55186
2.25308
2.35411
2.3526
2.35368
2.35392
2.35427
2.35466
2.35462
2.35424
2.35321
2.35138
2.34871
2.34527
2.34118
2.33658
2.33157
2.32627
2.32084
2.31523
2.30931
2.30292
2.29626
2.28905
2.2812
2.27274
2.26363
2.25448
2.24456
2.23464
1
1
1
1
1
1
1
1
1
1
1
1
1
1
1
1
1
1
1
1
1
1
1
1
1
1
1
1
1
1
1
1
1
1
1
1
1
1
1
1
1
1
1
1
1
1
1
1
1
1
1
1
1
1
1
1
1
1
1
1
1
1
1
1
1
1.00005
1.03182
1.61674
2.26301
2.34092
2.33815
2.33644
2.33571
2.33542
2.33547
2.3354
2.33504
2.33416
2.3326
2.33029
2.32725
2.32358
2.31939
2.3148
2.30984
2.30447
2.29865
2.29222
2.28545
2.27828
2.27069
2.26298
2.25475
2.24846
2.24379
2.24064
1
1
1
1
1
1
1
1
1
1
1
1
1
1
1
1
1
1
1
1
1
1
1
1
1
1
1
1
1
1
1
1
1
1
1
1
1
1
1
1
1
1
1
1
1
1
1
1
1
1
1
1
1
1
1
1
1
1
1
1
1
1
1
1
1
1
1.00012
1.04432
1.63695
2.25571
2.32837
2.32545
2.32342
2.32177
2.32043
2.3192
2.31795
2.31662
2.31515
2.31338
2.31118
2.30849
2.30522
2.30145
2.29706
2.29205
2.28645
2.28029
2.27386
2.26748
2.26121
2.25684
2.25549
2.257
2.26065
2.27089
1
1
1
1
1
1
1
1
1
1
1
1
1
1
1
1
1
1
1
1
1
1
1
1
1
1
1
1
1
1
1
1
1
1
1
1
1
1
1
1
1
1
1
1
1
1
1
1
1
1
1
1
1
1
1
1
1
1
1
1
1
1
1
1
1
1
1
1.00022
1.04975
1.62307
2.23818
2.31729
2.31503
2.31284
2.31016
2.30743
2.30465
2.30191
2.29941
2.29699
2.29458
2.29197
2.28901
2.28561
2.28162
2.27727
2.27244
2.26763
2.26334
2.26161
2.26403
2.26834
2.27824
2.29283
2.30701
2.31897
1
1
1
1
1
1
1
1
1
1
1
1
1
1
1
1
1
1
1
1
1
1
1
1
1
1
1
1
1
1
1
1
1
1
1
1
1
1
1
1
1
1
1
1
1
1
1
1
1
1
1
1
1
1
1
1
1
1
1
1
1
1
1
1
1
1
1
1
1.00027
1.04756
1.60385
2.2166
2.30534
2.30393
2.30102
2.29791
2.29433
2.29079
2.28724
2.2837
2.28029
2.27671
2.27307
2.2693
2.26542
2.26188
2.25918
2.26066
2.26545
2.27501
2.29211
2.30904
2.32739
2.34178
2.34861
2.35091
1
1
1
1
1
1
1
1
1
1
1
1
1
1
1
1
1
1
1
1
1
1
1
1
1
1
1
1
1
1
1
1
1
1
1
1
1
1
1
1
1
1
1
1
1
1
1
1
1
1
1
1
1
1
1
1
1
1
1
1
1
1
1
1
1
1
1
1
1
1.00025
1.04372
1.57324
2.18839
2.29231
2.29177
2.28865
2.28529
2.28139
2.27745
2.27326
2.26893
2.26422
2.2596
2.25523
2.25287
2.25569
2.26241
2.27644
2.29745
2.32102
2.34172
2.35442
2.36666
2.36654
2.36129
2.35693
1
1
1
1
1
1
1
1
1
1
1
1
1
1
1
1
1
1
1
1
1
1
1
1
1
1
1
1
1
1
1
1
1
1
1
1
1
1
1
1
1
1
1
1
1
1
1
1
1
1
1
1
1
1
1
1
1
1
1
1
1
1
1
1
1
1
1
1
1
1
1.00022
1.03774
1.52816
2.15195
2.275
2.27913
2.27587
2.27256
2.26858
2.26408
2.25917
2.25412
2.25038
2.25237
2.25957
2.2769
2.30031
2.32831
2.35188
2.36359
2.37332
2.37494
2.37233
2.36525
2.35833
2.35425
1
1
1
1
1
1
1
1
1
1
1
1
1
1
1
1
1
1
1
1
1
1
1
1
1
1
1
1
1
1
1
1
1
1
1
1
1
1
1
1
1
1
1
1
1
1
1
1
1
1
1
1
1
1
1
1
1
1
1
1
1
1
1
1
1
1
1
1
1
1
1
1.00018
1.02996
1.47041
2.09955
2.25335
2.26776
2.26315
2.25939
2.2546
2.25028
2.2519
2.25972
2.2792
2.30748
2.33872
2.36413
2.37723
2.38344
2.38115
2.37898
2.37465
2.368
2.35996
2.35506
2.35163
1
1
1
1
1
1
1
1
1
1
1
1
1
1
1
1
1
1
1
1
1
1
1
1
1
1
1
1
1
1
1
1
1
1
1
1
1
1
1
1
1
1
1
1
1
1
1
1
1
1
1
1
1
1
1
1
1
1
1
1
1
1
1
1
1
1
1
1
1
1
1
1
1.00013
1.02185
1.39818
2.02498
2.22665
2.25511
2.24779
2.24813
2.25717
2.28011
2.31454
2.35042
2.37655
2.39059
2.39893
2.39467
2.3892
2.3839
2.37881
2.37225
2.36399
2.3579
2.355
2.35118
1
1
1
1
1
1
1
1
1
1
1
1
1
1
1
1
1
1
1
1
1
1
1
1
1
1
1
1
1
1
1
1
1
1
1
1
1
1
1
1
1
1
1
1
1
1
1
1
1
1
1
1
1
1
1
1
1
1
1
1
1
1
1
1
1
1
1
1
1
1
1
1
1
1.00008
1.01427
1.31441
1.91366
2.1992
2.2369
2.26747
2.31024
2.35511
2.38575
2.39948
2.40708
2.40382
2.39739
2.38958
2.38444
2.38058
2.37591
2.36934
2.36289
2.35944
2.35709
2.35248
1
1
1
1
1
1
1
1
1
1
1
1
1
1
1
1
1
1
1
1
1
1
1
1
1
1
1
1
1
1
1
1
1
1
1
1
1
1
1
1
1
1
1
1
1
1
1
1
1
1
1
1
1
1
1
1
1
1
1
1
1
1
1
1
1
1
1
1
1
1
1
1
1
1
1.00004
1.00828
1.21788
1.7877
2.22079
2.34482
2.38207
2.3994
2.40696
2.40334
2.40105
2.39689
2.39054
2.38343
2.37977
2.37711
2.37311
2.36723
2.3632
2.36177
2.35903
2.3533
1
1
1
1
1
1
1
1
1
1
1
1
1
1
1
1
1
1
1
1
1
1
1
1
1
1
1
1
1
1
1
1
1
1
1
1
1
1
1
1
1
1
1
1
1
1
1
1
1
1
1
1
1
1
1
1
1
1
1
1
1
1
1
1
1
1
1
1
1
1
1
1
1
1
1
1.00002
1.00409
1.12924
2.14818
2.49178
2.46832
2.45076
2.43577
2.42117
2.4096
2.39927
2.38911
2.38226
2.37783
2.37507
2.37206
2.36826
2.36598
2.36474
2.36051
2.35426
1
1
1
1
1
1
1
1
1
1
1
1
1
1
1
1
1
1
1
1
1
1
1
1
1
1
1
1
1
1
1
1
1
1
1
1
1
1
1
1
1
1
1
1
1
1
1
1
1
1
1
1
1
1
1
1
1
1
1
1
1
1
1
1
1
1
1
1
1
1
1
1
1
1
1
1
1.00001
1.00133
1.97202
2.57631
2.54829
2.51447
2.48513
2.45967
2.43955
2.42268
2.41078
2.40154
2.3943
2.38869
2.38227
2.37612
2.37193
2.36841
2.36182
2.35546
1
1
1
1
1
1
1
1
1
1
1
1
1
1
1
1
1
1
1
1
1
1
1
1
1
1
1
1
1
1
1
1
1
1
1
1
1
1
1
1
1
1
1
1
1
1
1
1
1
1
1
1
1
1
1
1
1
1
1
1
1
1
1
1
1
1
1
1
1
1
1
1
1
1
1
1
1
1
1.48406
2.49392
2.6039
2.58573
2.56588
2.5416
2.51759
2.49458
2.47408
2.45644
2.44195
2.42857
2.4151
2.40286
2.39296
2.38357
2.37333
2.36519
1
1
1
1
1
1
1
1
1
1
1
1
1
1
1
1
1
1
1
1
1
1
1
1
1
1
1
1
1
1
1
1
1
1
1
1
1
1
1
1
1
1
1
1
1
1
1
1
1
1
1
1
1
1
1
1
1
1
1
1
1
1
1
1
1
1
1
1
1
1
1
1
1
1
1
1
1
1
1.02379
2.27502
2.64382
2.6362
2.6237
2.60665
2.58815
2.56806
2.5463
2.52451
2.50348
2.48379
2.46509
2.44817
2.43292
2.4185
2.4062
2.39583
1
1
1
1
1
1
1
1
1
1
1
1
1
1
1
1
1
1
1
1
1
1
1
1
1
1
1
1
1
1
1
1
1
1
1
1
1
1
1
1
1
1
1
1
1
1
1
1
1
1
1
1
1
1
1
1
1
1
1
1
1
1
1
1
1
1
1
1
1
1
1
1
1
1
1
1
1
1
1.00004
1.8577
2.58847
2.63288
2.62933
2.62576
2.61947
2.61067
2.59927
2.58576
2.57033
2.55348
2.53576
2.51794
2.50017
2.4828
2.46657
2.45076
1
1
1
1
1
1
1
1
1
1
1
1
1
1
1
1
1
1
1
1
1
1
1
1
1
1
1
1
1
1
1
1
1
1
1
1
1
1
1
1
1
1
1
1
1
1
1
1
1
1
1
1
1
1
1
1
1
1
1
1
1
1
1
1
1
1
1
1
1
1
1
1
1
1
1
1
1
1
1
1.306
2.42741
2.63548
2.63215
2.63016
2.62815
2.62502
2.62022
2.61414
2.60625
2.59683
2.58577
2.5734
2.55986
2.54558
2.53012
2.51411
1
1
1
1
1
1
1
1
1
1
1
1
1
1
1
1
1
1
1
1
1
1
1
1
1
1
1
1
1
1
1
1
1
1
1
1
1
1
1
1
1
1
1
1
1
1
1
1
1
1
1
1
1
1
1
1
1
1
1
1
1
1
1
1
1
1
1
1
1
1
1
1
1
1
1
1
1
1
1
1.00847
2.20563
2.64154
2.63964
2.63433
2.63118
2.62838
2.62547
2.62222
2.61804
2.61333
2.60793
2.60163
2.59415
2.58538
2.57553
2.56483
1
1
1
1
1
1
1
1
1
1
1
1
1
1
1
1
1
1
1
1
1
1
1
1
1
1
1
1
1
1
1
1
1
1
1
1
1
1
1
1
1
1
1
1
1
1
1
1
1
1
1
1
1
1
1
1
1
1
1
1
1
1
1
1
1
1
1
1
1
1
1
1
1
1
1
1
1
1
1
1
1.82138
2.58483
2.63712
2.63306
2.631
2.62849
2.62594
2.62325
2.62058
2.61782
2.61477
2.61119
2.607
2.60182
2.59622
2.5902
1
1
1
1
1
1
1
1
1
1
1
1
1
1
1
1
1
1
1
1
1
1
1
1
1
1
1
1
1
1
1
1
1
1
1
1
1
1
1
1
1
1
1
1
1
1
1
1
1
1
1
1
1
1
1
1
1
1
1
1
1
1
1
1
1
1
1
1
1
1
1
1
1
1
1
1
1
1
1
1
1.33333
2.4424
2.64275
2.6378
2.6353
2.63202
2.62858
2.62516
2.62187
2.61874
2.61567
2.61255
2.60946
2.6064
2.60329
2.59996
1
1
1
1
1
1
1
1
1
1
1
1
1
1
1
1
1
1
1
1
1
1
1
1
1
1
1
1
1
1
1
1
1
1
1
1
1
1
1
1
1
1
1
1
1
1
1
1
1
1
1
1
1
1
1
1
1
1
1
1
1
1
1
1
1
1
1
1
1
1
1
1
1
1
1
1
1
1
1
1
1.01104
2.25936
2.6542
2.65154
2.64433
2.63903
2.63398
2.62936
2.62502
2.62111
2.61745
2.61399
2.6107
2.60752
2.60437
2.60127
1
1
1
1
1
1
1
1
1
1
1
1
1
1
1
1
1
1
1
1
1
1
1
1
1
1
1
1
1
1
1
1
1
1
1
1
1
1
1
1
1
1
1
1
1
1
1
1
1
1
1
1
1
1
1
1
1
1
1
1
1
1
1
1
1
1
1
1
1
1
1
1
1
1
1
1
1
1
1
1
1.00001
1.97613
2.62834
2.64814
2.64409
2.64106
2.63718
2.63338
2.62941
2.62529
2.62109
2.61694
2.61298
2.60917
2.60549
2.60202
1
1
1
1
1
1
1
1
1
1
1
1
1
1
1
1
1
1
1
1
1
1
1
1
1
1
1
1
1
1
1
1
1
1
1
1
1
1
1
1
1
1
1
1
1
1
1
1
1
1
1
1
1
1
1
1
1
1
1
1
1
1
1
1
1
1
1
1
1
1
1
1
1
1
1
1
1
1
1
1
1
1.59824
2.53372
2.65703
2.65117
2.64823
2.64482
2.64136
2.63759
2.6334
2.62888
2.62424
2.61961
2.61504
2.61057
2.60633
1
1
1
1
1
1
1
1
1
1
1
1
1
1
1
1
1
1
1
1
1
1
1
1
1
1
1
1
1
1
1
1
1
1
1
1
1
1
1
1
1
1
1
1
1
1
1
1
1
1
1
1
1
1
1
1
1
1
1
1
1
1
1
1
1
1
1
1
1
1
1
1
1
1
1
1
1
1
1
1
1
1.17705
2.38832
2.65763
2.65128
2.64849
2.64632
2.64391
2.64126
2.63828
2.6348
2.63087
2.62662
2.62211
2.61742
2.61272
1
1
1
1
1
1
1
1
1
1
1
1
1
1
1
1
1
1
1
1
1
1
1
1
1
1
1
1
1
1
1
1
1
1
1
1
1
1
1
1
1
1
1
1
1
1
1
1
1
1
1
1
1
1
1
1
1
1
1
1
1
1
1
1
1
1
1
1
1
1
1
1
1
1
1
1
1
1
1
1
1
1.00281
2.23532
2.6635
2.66125
2.65559
2.65224
2.64892
2.6459
2.64295
2.63982
2.63638
2.63266
2.62861
2.62423
2.61963
1
1
1
1
1
1
1
1
1
1
1
1
1
1
1
1
1
1
1
1
1
1
1
1
1
1
1
1
1
1
1
1
1
1
1
1
1
1
1
1
1
1
1
1
1
1
1
1
1
1
1
1
1
1
1
1
1
1
1
1
1
1
1
1
1
1
1
1
1
1
1
1
1
1
1
1
1
1
1
1
1
1
2.01899
2.64725
2.66641
2.6619
2.65853
2.65468
2.65103
2.64756
2.64417
2.64075
2.63724
2.63354
2.62955
2.62532
1
1
1
1
1
1
1
1
1
1
1
1
1
1
1
1
1
1
1
1
1
1
1
1
1
1
1
1
1
1
1
1
1
1
1
1
1
1
1
1
1
1
1
1
1
1
1
1
1
1
1
1
1
1
1
1
1
1
1
1
1
1
1
1
1
1
1
1
1
1
1
1
1
1
1
1
1
1
1
1
1
1
1.76107
2.59409
2.67019
2.6648
2.66156
2.65767
2.65381
2.65002
2.64635
2.64276
2.6392
2.6356
2.63193
2.62813
1
1
1
1
1
1
1
1
1
1
1
1
1
1
1
1
1
1
1
1
1
1
1
1
1
1
1
1
1
1
1
1
1
1
1
1
1
1
1
1
1
1
1
1
1
1
1
1
1
1
1
1
1
1
1
1
1
1
1
1
1
1
1
1
1
1
1
1
1
1
1
1
1
1
1
1
1
1
1
1
1
1
1.46918
2.51187
2.66872
2.66336
2.66132
2.65873
2.65589
2.65277
2.64942
2.64596
2.64247
2.63894
2.63542
2.63185
1
1
1
1
1
1
1
1
1
1
1
1
1
1
1
1
1
1
1
1
1
1
1
1
1
1
1
1
1
1
1
1
1
1
1
1
1
1
1
1
1
1
1
1
1
1
1
1
1
1
1
1
1
1
1
1
1
1
1
1
1
1
1
1
1
1
1
1
1
1
1
1
1
1
1
1
1
1
1
1
1
1
1.18841
2.40239
2.67217
2.6659
2.6626
2.65979
2.65703
2.65414
2.65108
2.64787
2.64456
2.64114
2.63767
2.63415
1
1
1
1
1
1
1
1
1
1
1
1
1
1
1
1
1
1
1
1
1
1
1
1
1
1
1
1
1
1
1
1
1
1
1
1
1
1
1
1
1
1
1
1
1
1
1
1
1
1
1
1
1
1
1
1
1
1
1
1
1
1
1
1
1
1
1
1
1
1
1
1
1
1
1
1
1
1
1
1
1
1
1.00414
2.29045
2.67629
2.67452
2.66881
2.66506
2.66148
2.65812
2.65478
2.65142
2.64801
2.64452
2.64098
2.63739
1
1
1
1
1
1
1
1
1
1
1
1
1
1
1
1
1
1
1
1
1
1
1
1
1
1
1
1
1
1
1
1
1
1
1
1
1
1
1
1
1
1
1
1
1
1
1
1
1
1
1
1
1
1
1
1
1
1
1
1
1
1
1
1
1
1
1
1
1
1
1
1
1
1
1
1
1
1
1
1
1
1
1
2.15972
2.66986
2.67698
2.67265
2.66965
2.66612
2.6627
2.65924
2.65579
2.65225
2.64862
2.64499
2.64136
1
1
1
1
1
1
1
1
1
1
1
1
1
1
1
1
1
1
1
1
1
1
1
1
1
1
1
1
1
1
1
1
1
1
1
1
1
1
1
1
1
1
1
1
1
1
1
1
1
1
1
1
1
1
1
1
1
1
1
1
1
1
1
1
1
1
1
1
1
1
1
1
1
1
1
1
1
1
1
1
1
1
1
2.01069
2.65124
2.67976
2.6754
2.67287
2.66962
2.66632
2.66288
2.65939
2.65579
2.65211
2.64844
2.6448
1
1
1
1
1
1
1
1
1
1
1
1
1
1
1
1
1
1
1
1
1
1
1
1
1
1
1
1
1
1
1
1
1
1
1
1
1
1
1
1
1
1
1
1
1
1
1
1
1
1
1
1
1
1
1
1
1
1
1
1
1
1
1
1
1
1
1
1
1
1
1
1
1
1
1
1
1
1
1
1
1
1
1
1.85963
2.62452
2.68147
2.67617
2.67361
2.67051
2.66737
2.66409
2.66071
2.65722
2.65367
2.65011
2.64657
1
1
1
1
1
1
1
1
1
1
1
1
1
1
1
1
1
1
1
1
1
1
1
1
1
1
1
1
1
1
1
1
1
1
1
1
1
1
1
1
1
1
1
1
1
1
1
1
1
1
1
1
1
1
1
1
1
1
1
1
1
1
1
1
1
1
1
1
1
1
1
1
1
1
1
1
1
1
1
1
1
1
1
1.70666
2.59704
2.6827
2.67656
2.67376
2.67052
2.66732
2.66405
2.66073
2.65739
2.65405
2.65072
2.64744
1
1
1
1
1
1
1
1
1
1
1
1
1
1
1
1
1
1
1
1
1
1
1
1
1
1
1
1
1
1
1
1
1
1
1
1
1
1
1
1
1
1
1
1
1
1
1
1
1
1
1
1
1
1
1
1
1
1
1
1
1
1
1
1
1
1
1
1
1
1
1
1
1
1
1
1
1
1
1
1
1
1
1
1.5612
2.56312
2.6839
2.67744
2.67442
2.67108
2.66784
2.66458
2.66131
2.65806
2.65482
2.6516
2.64839
1
1
1
1
1
1
1
1
1
1
1
1
1
1
1
1
1
1
1
1
1
1
1
1
1
1
1
1
1
1
1
1
1
1
1
1
1
1
1
1
1
1
1
1
1
1
1
1
1
1
1
1
1
1
1
1
1
1
1
1
1
1
1
1
1
1
1
1
1
1
1
1
1
1
1
1
1
1
1
1
1
1
1
1.43998
2.52675
2.68539
2.67904
2.67586
2.67244
2.66912
2.66583
2.66256
2.65934
2.65612
2.65288
2.64963
1
1
1
1
1
1
1
1
1
1
1
1
1
1
1
1
1
1
1
1
1
1
1
1
1
1
1
1
1
1
1
1
1
1
1
1
1
1
1
1
1
1
1
1
1
1
1
1
1
1
1
1
1
1
1
1
1
1
1
1
1
1
1
1
1
1
1
1
1
1
1
1
1
1
1
1
1
1
1
1
1
1
1
1.34521
2.49066
2.68582
2.68012
2.67691
2.67348
2.67016
2.66687
2.66361
2.66041
2.65719
2.65394
2.65065
1
1
1
1
1
1
1
1
1
1
1
1
1
1
1
1
1
1
1
1
1
1
1
1
1
1
1
1
1
1
1
1
1
1
1
1
1
1
1
1
1
1
1
1
1
1
1
1
1
1
1
1
1
1
1
1
1
1
1
1
1
1
1
1
1
1
1
1
1
1
1
1
1
1
1
1
1
1
1
1
1
1
1
1.27191
2.45637
2.68523
2.68031
2.67707
2.67373
2.67052
2.66735
2.66415
2.66097
2.65774
2.65449
2.65122
1
1
1
1
1
1
1
1
1
1
1
1
1
1
1
1
1
1
1
1
1
1
1
1
1
1
1
1
1
1
1
1
1
1
1
1
1
1
1
1
1
1
1
1
1
1
1
1
1
1
1
1
1
1
1
1
1
1
1
1
1
1
1
1
1
1
1
1
1
1
1
1
1
1
1
1
1
1
1
1
1
1
1
1.21813
2.42735
2.68388
2.67972
2.67645
2.67322
2.67014
2.66708
2.66396
2.6608
2.6576
2.65445
2.65137
1
1
1
1
1
1
1
1
1
1
1
1
1
1
1
1
1
1
1
1
1
1
1
1
1
1
1
1
1
1
1
1
1
1
1
1
1
1
1
1
1
1
1
1
1
1
1
1
1
1
1
1
1
1
1
1
1
1
1
1
1
1
1
1
1
1
1
1
1
1
1
1
1
1
1
1
1
1
1
1
1
1
1
1.18251
2.40599
2.68231
2.67879
2.67567
2.67269
2.66963
2.66647
2.66325
2.66019
2.65729
2.65443
2.65149
1
1
1
1
1
1
1
1
1
1
1
1
1
1
1
1
1
1
1
1
1
1
1
1
1
1
1
1
1
1
1
1
1
1
1
1
1
1
1
1
1
1
1
1
1
1
1
1
1
1
1
1
1
1
1
1
1
1
1
1
1
1
1
1
1
1
1
1
1
1
1
1
1
1
1
1
1
1
1
1
1
1
1
1.16226
2.39301
2.68102
2.67814
2.67543
2.67299
2.67005
2.66653
2.66273
2.6593
2.65646
2.65394
2.65138
1
1
1
1
1
1
1
1
1
1
1
1
1
1
1
1
1
1
1
1
1
1
1
1
1
1
1
1
1
1
1
1
1
1
1
1
1
1
1
1
1
1
1
1
1
1
1
1
1
1
1
1
1
1
1
1
1
1
1
1
1
1
1
1
1