/*--------------------------------*- C++ -*----------------------------------*\
  =========                 |
  \\      /  F ield         | OpenFOAM: The Open Source CFD Toolbox
   \\    /   O peration     | Website:  https://openfoam.org
    \\  /    A nd           | Version:  7
     \\/     M anipulation  |
\*---------------------------------------------------------------------------*/
FoamFile
{
    version     2.0;
    format      ascii;
    class       surfaceScalarField;
    location    "0.002";
    object      phi;
}
// * * * * * * * * * * * * * * * * * * * * * * * * * * * * * * * * * * * * * //

dimensions      [1 0 -1 0 0 0 0];

internalField   nonuniform List<scalar> 
99
(
-7.95097e-12
-1.00187e-12
1.49925e-12
6.53699e-13
-1.03739e-12
-2.34479e-12
1.24345e-12
1.49214e-12
-4.90274e-13
-7.10543e-13
2.13163e-14
-1.42109e-14
7.10543e-15
-6.11067e-13
-6.6791e-13
6.89226e-13
4.90274e-13
6.53699e-13
0
-6.96332e-13
3.12639e-13
2.78533e-12
2.34337e-11
1.81593e-10
1.36895e-09
9.79004e-09
6.7559e-08
4.42403e-07
2.78693e-06
1.65956e-05
9.44452e-05
0.000505532
0.00256466
0.0121566
0.0540232
0.2222
0.843972
2.92195
9.11781
25.1228
57.9515
110.555
179.993
256.21
327.61
385.508
432.555
464.777
477.671
492.248
505.651
506.662
496.868
453.03
391.365
341.539
315.849
303.849
297.948
290.871
256.783
81.7256
18.1119
2.5464
0.323426
0.0397758
0.00482518
0.00058106
6.97325e-05
8.35999e-06
1.00105e-06
1.19333e-07
1.4103e-08
1.64346e-09
1.88116e-10
2.0973e-11
2.16716e-12
3.59712e-13
1.62981e-13
-1.6076e-13
-1.35003e-13
-8.08242e-14
2.26485e-13
1.59872e-13
-1.6076e-13
-1.35003e-13
-7.9492e-14
2.25597e-13
3.15303e-13
5.973e-13
3.41061e-13
-4.52527e-13
-2.8999e-13
-5.15143e-14
3.61045e-13
2.9976e-13
-4.43201e-13
-4.76064e-13
-1.7053e-13
)
;

boundaryField
{
    sides
    {
        type            calculated;
        value           nonuniform List<scalar> 2(-1.20053e-13 8.27713e-12);
    }
    empty
    {
        type            empty;
        value           nonuniform 0();
    }
}


// ************************************************************************* //
