/*--------------------------------*- C++ -*----------------------------------*\
  =========                 |
  \\      /  F ield         | OpenFOAM: The Open Source CFD Toolbox
   \\    /   O peration     | Website:  https://openfoam.org
    \\  /    A nd           | Version:  7
     \\/     M anipulation  |
\*---------------------------------------------------------------------------*/
FoamFile
{
    version     2.0;
    format      ascii;
    class       volVectorField;
    location    "0.002";
    object      U;
}
// * * * * * * * * * * * * * * * * * * * * * * * * * * * * * * * * * * * * * //

dimensions      [0 1 -1 0 0 0 0];

internalField   nonuniform List<vector> 
100
(
(-2.10057e-12 0 0)
(-1.42518e-12 0 0)
(8.0376e-13 0 0)
(2.83976e-27 0 0)
(2.88829e-13 0 0)
(-8.51898e-13 0 0)
(-2.47984e-13 0 0)
(8.11054e-13 0 0)
(2.64293e-27 0 0)
(-2.91746e-13 0 0)
(0 0 0)
(-5.11713e-32 0 0)
(0 0 0)
(-3.0042e-28 0 0)
(-2.91746e-13 0 0)
(0 0 0)
(2.91746e-13 0 0)
(2.4113e-28 0 0)
(2.91746e-13 0 0)
(-2.91746e-13 0 0)
(0 0 0)
(2.12975e-13 0 0)
(1.52875e-12 0 0)
(1.3397e-11 0 0)
(1.00984e-10 0 0)
(7.55815e-10 0 0)
(5.31734e-09 0 0)
(3.63298e-08 0 0)
(2.33881e-07 0 0)
(1.45663e-06 0 0)
(8.51071e-06 0 0)
(4.77772e-05 0 0)
(0.000250304 0 0)
(0.00124865 0 0)
(0.00577367 0 0)
(0.0251111 0 0)
(0.100244 0 0)
(0.369655 0 0)
(1.22916 0 0)
(3.6459 0 0)
(9.20356 0 0)
(19.678 0 0)
(36.2921 0 0)
(59.0059 0 0)
(86.4544 0 0)
(115.83 0 0)
(146.203 0 0)
(175.68 0 0)
(203.44 0 0)
(228.528 0 0)
(250.187 0 0)
(268.83 0 0)
(284.944 0 0)
(295.611 0 0)
(297.918 0 0)
(295.821 0 0)
(292.462 0 0)
(286.674 0 0)
(279.342 0 0)
(270.41 0 0)
(251.892 0 0)
(188.418 0 0)
(68.7621 0 0)
(10.6677 0 0)
(1.43966 0 0)
(0.179226 0 0)
(0.021838 0 0)
(0.00263534 0 0)
(0.000316512 0 0)
(3.79556e-05 0 0)
(4.54766e-06 0 0)
(5.42888e-07 0 0)
(6.4342e-08 0 0)
(7.52798e-09 0 0)
(8.66496e-10 0 0)
(9.74841e-11 0 0)
(1.03614e-11 0 0)
(9.35047e-13 0 0)
(8.89827e-13 0 0)
(-2.85911e-13 0 0)
(-2.90288e-13 0 0)
(-2.91746e-13 0 0)
(0 0 0)
(8.72322e-13 0 0)
(-2.90288e-13 0 0)
(-2.90288e-13 0 0)
(-2.91746e-13 0 0)
(0 0 0)
(8.72322e-13 0 0)
(4.34702e-13 0 0)
(1.79424e-12 0 0)
(-2.91746e-13 0 0)
(-1.44998e-12 0 0)
(1.37121e-13 0 0)
(-3.18004e-13 0 0)
(1.67462e-12 0 0)
(-3.18004e-13 0 0)
(-1.6294e-12 0 0)
(-3.69059e-13 0 0)
(-2.45067e-13 0 0)
)
;

boundaryField
{
    sides
    {
        type            zeroGradient;
    }
    empty
    {
        type            empty;
    }
}


// ************************************************************************* //
