/*--------------------------------*- C++ -*----------------------------------*\
  =========                 |
  \\      /  F ield         | OpenFOAM: The Open Source CFD Toolbox
   \\    /   O peration     | Website:  https://openfoam.org
    \\  /    A nd           | Version:  7
     \\/     M anipulation  |
\*---------------------------------------------------------------------------*/
FoamFile
{
    version     2.0;
    format      ascii;
    class       volScalarField;
    location    "1.52";
    object      T;
}
// * * * * * * * * * * * * * * * * * * * * * * * * * * * * * * * * * * * * * //

dimensions      [0 0 0 1 0 0 0];

internalField   nonuniform List<scalar> 
1000
(
1.7156e-188
2.13343e-188
3.698e-188
8.40067e-188
2.17871e-187
5.92939e-187
1.63862e-186
4.54893e-186
1.26429e-185
3.51434e-185
9.76708e-185
2.71374e-184
7.53773e-184
2.09305e-183
5.81007e-183
1.6123e-182
4.47275e-182
1.24041e-181
3.43887e-181
9.53078e-181
2.6406e-180
7.31367e-180
2.02502e-179
5.60507e-179
1.55093e-178
4.29005e-178
1.18629e-177
3.27926e-177
9.06187e-177
2.50332e-176
6.91307e-176
1.90845e-175
5.26679e-175
1.453e-174
4.00718e-174
1.10476e-173
3.04471e-173
8.38841e-173
2.31028e-172
6.36064e-172
1.75061e-171
4.81644e-171
1.32469e-170
3.6421e-170
1.00101e-169
2.75026e-169
7.55364e-169
2.0739e-168
5.69199e-168
1.56167e-167
4.28309e-167
1.17428e-166
3.21834e-166
8.8173e-166
2.41481e-165
6.6111e-165
1.80929e-164
4.94974e-164
1.35363e-163
3.70047e-163
1.01124e-162
2.76244e-162
7.54343e-162
2.05913e-161
5.61873e-161
1.5326e-160
4.17885e-160
1.13899e-159
3.10328e-159
8.45194e-159
2.30105e-158
6.26224e-158
1.7036e-157
4.63272e-157
1.25932e-156
3.42193e-156
9.29469e-156
2.52365e-155
6.84941e-155
1.85826e-154
5.0395e-154
1.36614e-153
3.70197e-153
1.00276e-152
2.71509e-152
7.34849e-152
1.98809e-151
5.37648e-151
1.45339e-150
3.92727e-150
1.06077e-149
2.86399e-149
7.72935e-149
2.08514e-148
5.6227e-148
1.51556e-147
4.08338e-147
1.09972e-146
2.96049e-146
7.96636e-146
2.14275e-145
5.76097e-145
1.54823e-144
4.15897e-144
1.11673e-143
2.99726e-143
8.04099e-143
2.15628e-142
5.77975e-142
1.54854e-141
4.14708e-141
1.11012e-140
2.97032e-140
7.94406e-140
2.12367e-139
5.67458e-139
1.5156e-138
4.0461e-138
1.07967e-137
2.87969e-137
7.67715e-137
2.04576e-136
5.44886e-136
1.45062e-135
3.86012e-135
1.0267e-134
2.72948e-134
7.25287e-134
1.92634e-133
5.11388e-133
1.35693e-132
3.5988e-132
9.53995e-132
2.52769e-131
6.69406e-131
1.77191e-130
4.68794e-130
1.23967e-129
3.27654e-129
8.65583e-129
2.28552e-128
6.03173e-128
1.59104e-127
4.19468e-127
1.10534e-126
2.9112e-126
7.66346e-126
2.0163e-125
5.30223e-125
1.3936e-124
3.66091e-124
9.61199e-124
2.52237e-123
6.61568e-123
1.73424e-122
4.54374e-122
1.18983e-121
3.11403e-121
8.14564e-121
2.12957e-120
5.56446e-120
1.45317e-119
3.79288e-119
9.89425e-119
2.57962e-118
6.72181e-118
1.75055e-117
4.55635e-117
1.18527e-116
3.08154e-116
8.00703e-116
2.07935e-115
5.39676e-115
1.39987e-114
3.62903e-114
9.40244e-114
2.43464e-113
6.30051e-113
1.62952e-112
4.21195e-112
1.08805e-111
2.80902e-111
7.24769e-111
1.86888e-110
4.81614e-110
1.24037e-109
3.19255e-109
8.21214e-109
2.11108e-108
5.42357e-108
1.39249e-107
3.57296e-107
9.16196e-107
2.34787e-106
6.01288e-106
1.53891e-105
3.93609e-105
1.00609e-104
2.56995e-104
6.56039e-104
1.67359e-103
4.26662e-103
1.087e-102
2.7675e-102
7.04132e-102
1.79031e-101
4.54895e-101
1.15504e-100
2.93082e-100
7.43158e-100
1.88311e-99
4.76835e-99
1.20659e-98
3.05102e-98
7.70952e-98
1.94671e-97
4.91211e-97
1.23858e-96
3.12083e-96
7.85781e-96
1.97705e-95
4.97071e-95
1.24882e-94
3.13519e-94
7.86513e-94
1.97163e-93
4.93876e-93
1.23619e-92
3.0919e-92
7.72743e-92
1.9298e-91
4.81568e-91
1.20079e-90
2.99185e-90
7.44859e-90
1.85297e-89
4.60595e-89
1.144e-88
2.83915e-88
7.04046e-88
1.74447e-87
4.31893e-87
1.0684e-86
2.64081e-86
6.52203e-86
1.60942e-85
3.96819e-85
9.77583e-85
2.4063e-84
5.91803e-84
1.45424e-83
3.57045e-83
8.75862e-83
2.14671e-82
5.25693e-82
1.28621e-81
3.14419e-81
7.6793e-81
1.8739e-80
4.56862e-80
1.11284e-79
2.70822e-79
6.58477e-79
1.59956e-78
3.88203e-78
9.41274e-78
2.28017e-77
5.51839e-77
1.33428e-76
3.22307e-76
7.77817e-76
1.87529e-75
4.5169e-75
1.0869e-74
2.61285e-74
6.27499e-74
1.5055e-73
3.60843e-73
8.6401e-73
2.06673e-72
4.93863e-72
1.17893e-71
2.8114e-71
6.69744e-71
1.59384e-70
3.78901e-70
8.99811e-70
2.1346e-69
5.05847e-69
1.19745e-68
2.83156e-68
6.68844e-68
1.57815e-67
3.71959e-67
8.75712e-67
2.05942e-66
4.83772e-66
1.13514e-65
2.6605e-65
6.22846e-65
1.45647e-64
3.40187e-64
7.93649e-64
1.8494e-63
4.30448e-63
1.00068e-62
2.32354e-62
5.3887e-62
1.24822e-61
2.88781e-61
6.67286e-61
1.54e-60
3.54967e-60
8.17168e-60
1.87883e-59
4.31432e-59
9.89424e-59
2.26617e-58
5.18372e-58
1.1842e-57
2.70169e-57
6.15563e-57
1.40066e-56
3.18279e-56
7.22268e-56
1.63681e-55
3.70427e-55
8.37162e-55
1.88935e-54
4.25803e-54
9.5828e-54
2.15358e-53
4.83291e-53
1.08301e-52
2.4234e-52
5.41483e-52
1.20811e-51
2.69144e-51
5.98707e-51
1.32982e-50
2.94926e-50
6.53089e-50
1.44399e-49
3.18775e-49
7.02631e-49
1.54628e-48
3.39753e-48
7.45324e-48
1.63242e-47
3.56955e-47
7.79271e-47
1.69844e-46
3.69568e-46
8.02813e-46
1.74103e-45
3.7693e-45
8.14659e-45
1.7577e-44
3.78584e-44
8.13995e-44
1.7471e-43
3.74321e-43
8.00562e-43
1.70909e-42
3.64206e-42
7.74704e-42
1.64484e-41
3.48584e-41
7.37356e-41
1.55679e-40
3.28061e-40
6.9e-40
1.44846e-39
3.0347e-39
6.34564e-39
1.32427e-38
2.75811e-38
5.7329e-38
1.18921e-37
2.46181e-37
5.0858e-37
1.04848e-36
2.15704e-36
4.4283e-36
9.07183e-36
1.85448e-35
3.78279e-35
7.69939e-35
1.56368e-34
3.16868e-34
6.4068e-34
1.29249e-33
2.60153e-33
5.22442e-33
1.04676e-32
2.09241e-32
4.17284e-32
8.30213e-32
1.64784e-31
3.26286e-31
6.44511e-31
1.27e-30
2.49638e-30
4.89485e-30
9.57379e-30
1.86782e-29
3.63481e-29
7.05533e-29
1.36594e-28
2.63764e-28
5.07998e-28
9.75795e-28
1.86938e-27
3.57166e-27
6.80559e-27
1.29323e-26
2.4507e-26
4.63127e-26
8.72761e-26
1.64008e-25
3.07329e-25
5.74244e-25
1.06988e-24
1.98753e-24
3.68144e-24
6.7989e-24
1.25189e-23
2.29822e-23
4.20634e-23
7.67528e-23
1.39621e-22
2.53201e-22
4.57749e-22
8.24948e-22
1.48201e-21
2.65397e-21
4.73747e-21
8.42934e-21
1.49495e-20
2.64265e-20
4.65606e-20
8.17627e-20
1.431e-19
2.49609e-19
4.33919e-19
7.51754e-19
1.29793e-18
2.23319e-18
3.82903e-18
6.54232e-18
1.1139e-17
1.88982e-17
3.19482e-17
5.38165e-17
9.03271e-17
1.51059e-16
2.51704e-16
4.17871e-16
6.91182e-16
1.13903e-15
1.87007e-15
3.05884e-15
4.98451e-15
8.09184e-15
1.30865e-14
2.10836e-14
3.38378e-14
5.40991e-14
8.61592e-14
1.36688e-13
2.16008e-13
3.40029e-13
5.33162e-13
8.32716e-13
1.29546e-12
2.00739e-12
3.09828e-12
4.76301e-12
7.29312e-12
1.11227e-11
1.68955e-11
2.55617e-11
3.8518e-11
5.78084e-11
8.64109e-11
1.28645e-10
1.90751e-10
2.81698e-10
4.14328e-10
6.06942e-10
8.85508e-10
1.28671e-09
1.86212e-09
2.68397e-09
3.85292e-09
5.50866e-09
7.84416e-09
1.11248e-08
1.5714e-08
2.21072e-08
3.09764e-08
4.32299e-08
6.00891e-08
8.31897e-08
1.14712e-07
1.5755e-07
2.15527e-07
2.93672e-07
3.98573e-07
5.38817e-07
7.25551e-07
9.73183e-07
1.30025e-06
1.73049e-06
2.2942e-06
3.02983e-06
3.98598e-06
5.22386e-06
6.82015e-06
8.87053e-06
1.14939e-05
1.48372e-05
1.90817e-05
2.44494e-05
3.12113e-05
3.96973e-05
5.03062e-05
6.35189e-05
7.99127e-05
0.000100177
0.000125133
0.000155752
0.000193182
0.000238769
0.000294089
0.000360977
0.000441561
0.000538298
0.000654014
0.000791942
0.000955769
0.00114968
0.0013784
0.00164725
0.0019622
0.00232989
0.0027577
0.0032538
0.00382717
0.00448765
0.00524599
0.00611384
0.00710379
0.00822941
0.0095052
0.0109466
0.01257
0.0143927
0.0164327
0.018709
0.0212412
0.0240495
0.0271547
0.0305778
0.0343403
0.0384636
0.0429691
0.047878
0.0532111
0.0589884
0.0652292
0.0719519
0.0791733
0.0869091
0.0951731
0.103977
0.113332
0.123244
0.13372
0.144762
0.15637
0.168542
0.181272
0.194551
0.208368
0.222709
0.237556
0.252889
0.268685
0.284919
0.301561
0.318582
0.335949
0.353626
0.371577
0.389763
0.408146
0.426685
0.445338
0.464064
0.482822
0.501569
0.520264
0.538867
0.557337
0.575637
0.593729
0.611578
0.62915
0.646413
0.663337
0.679894
0.696061
0.711814
0.727132
0.741998
0.756398
0.770317
0.783745
0.796676
0.809102
0.821022
0.832433
0.843337
0.853736
0.863636
0.873041
0.88196
0.890401
0.898376
0.905894
0.912969
0.919611
0.925836
0.931655
0.937083
0.942134
0.94682
0.951155
0.955153
0.958825
0.962183
0.965238
0.968
0.970478
0.97268
0.974613
0.976281
0.977691
0.978843
0.979739
0.980379
0.980762
0.980884
0.98074
0.980324
0.979628
0.978644
0.97736
0.975764
0.973844
0.971586
0.968974
0.965993
0.962626
0.958856
0.954665
0.950036
0.944953
0.939397
0.933353
0.926804
0.919737
0.912137
0.903993
0.895295
0.886033
0.876202
0.865799
0.85482
0.843267
0.831143
0.818456
0.805213
0.791428
0.777115
0.762293
0.74698
0.731202
0.714985
0.698356
0.681347
0.66399
0.646322
0.628379
0.610199
0.591821
0.573287
0.554638
0.535916
0.517161
0.498417
0.479724
0.461123
0.442654
0.424355
0.406264
0.388416
0.370845
0.353583
0.33666
0.320102
0.303935
0.288183
0.272864
0.257997
0.243597
0.229677
0.216247
0.203315
0.190886
0.178963
0.167547
0.156638
0.146232
0.136325
0.126909
0.117977
0.109518
0.101524
0.0939803
0.0868754
0.0801953
0.0739254
0.0680507
0.0625558
0.0574248
0.0526419
0.0481907
0.0440553
0.0402196
0.0366677
0.0333839
0.030353
0.02756
0.0249903
0.0226297
0.0204648
0.0184823
0.0166697
0.015015
0.0135068
0.0121342
0.0108868
0.009755
0.00872954
0.00780182
0.00696376
0.00620779
0.00552685
0.00491439
0.0043643
0.00387093
0.00342906
0.00303385
0.00268089
0.00236607
0.00208567
0.00183627
0.00161473
0.00141821
0.00124411
0.00109008
0.000953993
0.000833907
0.00072808
0.000634941
0.000553072
0.000481203
0.00041819
0.000363013
0.000314757
0.000272607
0.000235835
0.000203794
0.00017591
0.000151673
0.00013063
0.000112384
9.65804e-05
8.2909e-05
7.10959e-05
6.09004e-05
5.21112e-05
4.4543e-05
3.80336e-05
3.24413e-05
2.76423e-05
2.35287e-05
2.00064e-05
1.69939e-05
1.44202e-05
1.22239e-05
1.03515e-05
8.75706e-06
7.40078e-06
6.24831e-06
5.27007e-06
4.44059e-06
3.73798e-06
3.14347e-06
2.64093e-06
2.21659e-06
1.85864e-06
1.557e-06
1.30307e-06
1.08952e-06
9.10111e-07
7.5953e-07
6.33271e-07
5.27511e-07
4.39007e-07
3.65016e-07
3.03219e-07
2.51655e-07
2.0867e-07
1.72872e-07
1.43087e-07
1.18329e-07
9.77674e-08
8.07076e-08
6.65663e-08
5.48548e-08
4.51646e-08
3.7154e-08
3.0538e-08
2.50786e-08
2.05777e-08
1.68703e-08
1.38192e-08
1.13104e-08
9.2494e-09
7.55765e-09
6.17024e-09
5.03339e-09
4.10264e-09
3.34129e-09
2.71902e-09
2.21086e-09
1.79623e-09
1.4582e-09
1.18285e-09
9.58729e-10
7.76466e-10
6.28361e-10
5.08111e-10
4.10556e-10
3.31475e-10
2.67422e-10
2.15582e-10
1.73659e-10
1.39783e-10
1.12431e-10
9.03633e-11
7.2573e-11
5.8242e-11
4.67065e-11
3.74283e-11
2.99713e-11
2.39826e-11
1.91766e-11
1.53227e-11
1.22345e-11
9.7618e-12
7.78332e-12
6.20144e-12
4.9376e-12
3.92857e-12
3.12357e-12
2.4818e-12
1.97053e-12
1.56351e-12
1.23972e-12
9.82311e-13
7.77823e-13
6.15489e-13
4.86708e-13
3.84616e-13
3.03736e-13
2.39706e-13
1.89049e-13
1.49e-13
1.17359e-13
9.23766e-14
7.26654e-14
5.71234e-14
4.48768e-14
3.52333e-14
2.76445e-14
2.16765e-14
1.69862e-14
1.33025e-14
1.04111e-14
8.14313e-15
6.36529e-15
4.97253e-15
3.88214e-15
3.029e-15
2.36192e-15
1.84063e-15
1.43353e-15
1.11581e-15
8.67981e-16
6.74798e-16
5.24301e-16
4.07129e-16
3.15958e-16
2.4506e-16
1.8996e-16
1.47164e-16
1.13944e-16
8.81721e-17
6.81904e-17
5.2707e-17
4.07162e-17
3.14356e-17
2.42567e-17
1.87068e-17
1.44186e-17
1.11073e-17
8.55172e-18
6.58051e-18
5.06091e-18
3.89009e-18
2.98852e-18
2.29465e-18
1.76094e-18
1.35064e-18
1.03538e-18
7.93291e-19
6.07483e-19
4.6495e-19
3.55673e-19
2.71937e-19
2.07807e-19
1.58718e-19
1.21162e-19
9.24453e-20
7.04986e-20
5.37346e-20
4.09362e-20
3.11703e-20
2.37222e-20
1.80448e-20
1.37192e-20
1.04254e-20
7.91845e-21
6.01136e-21
4.56133e-21
3.45937e-21
2.62235e-21
1.98689e-21
1.50469e-21
1.13896e-21
8.61712e-22
6.51641e-22
4.92546e-22
3.72117e-22
2.81e-22
2.12094e-22
1.6001e-22
1.2066e-22
9.09444e-23
6.85152e-23
5.15939e-23
3.88337e-23
2.9216e-23
2.19702e-23
1.65139e-23
1.2407e-23
9.31728e-24
6.99385e-24
5.24745e-24
3.93538e-24
2.95006e-24
2.21047e-24
1.65556e-24
1.23941e-24
9.27455e-25
6.93718e-25
5.18661e-25
3.87611e-25
2.8955e-25
2.16207e-25
1.61381e-25
1.20434e-25
8.99184e-26
6.73479e-26
5.11447e-26
4.09819e-26
)
;

boundaryField
{
    sides
    {
        type            zeroGradient;
    }
    empty
    {
        type            empty;
    }
}


// ************************************************************************* //
