/*--------------------------------*- C++ -*----------------------------------*\
  =========                 |
  \\      /  F ield         | OpenFOAM: The Open Source CFD Toolbox
   \\    /   O peration     | Website:  https://openfoam.org
    \\  /    A nd           | Version:  7
     \\/     M anipulation  |
\*---------------------------------------------------------------------------*/
FoamFile
{
    version     2.0;
    format      ascii;
    class       volVectorField;
    location    "0.004";
    object      U;
}
// * * * * * * * * * * * * * * * * * * * * * * * * * * * * * * * * * * * * * //

dimensions      [0 1 -1 0 0 0 0];

internalField   nonuniform List<vector> 
100
(
(-1.14656e-12 0 0)
(-1.15969e-12 0 0)
(-1.41497e-12 0 0)
(-3.22379e-12 0 0)
(-2.73658e-12 0 0)
(-2.29458e-12 0 0)
(-1.84383e-12 0 0)
(-9.51092e-13 0 0)
(-7.5854e-14 0 0)
(-4.27408e-13 0 0)
(1.97512e-12 0 0)
(1.15415e-11 0 0)
(5.82471e-11 0 0)
(3.06362e-10 0 0)
(1.57125e-09 0 0)
(7.78487e-09 0 0)
(3.73353e-08 0 0)
(1.7331e-07 0 0)
(7.77034e-07 0 0)
(3.36276e-06 0 0)
(1.40136e-05 0 0)
(5.61796e-05 0 0)
(0.000216084 0 0)
(0.000796216 0 0)
(0.00280198 0 0)
(0.00939602 0 0)
(0.0299109 0 0)
(0.0900766 0 0)
(0.255308 0 0)
(0.677169 0 0)
(1.66749 0 0)
(3.77892 0 0)
(7.7461 0 0)
(14.0993 0 0)
(23.0039 0 0)
(34.3697 0 0)
(47.8071 0 0)
(62.7455 0 0)
(78.6621 0 0)
(95.1193 0 0)
(111.907 0 0)
(128.7 0 0)
(145.588 0 0)
(162.134 0 0)
(178.413 0 0)
(194.323 0 0)
(209.615 0 0)
(224.208 0 0)
(237.838 0 0)
(250.341 0 0)
(261.596 0 0)
(271.62 0 0)
(279.75 0 0)
(285.696 0 0)
(290.182 0 0)
(292.914 0 0)
(294.158 0 0)
(295.108 0 0)
(296.051 0 0)
(296.318 0 0)
(295.22 0 0)
(293.099 0 0)
(290.96 0 0)
(289.319 0 0)
(288.466 0 0)
(288.5 0 0)
(288.95 0 0)
(288.765 0 0)
(287.207 0 0)
(283.761 0 0)
(276.201 0 0)
(257.165 0 0)
(197 0 0)
(81.3903 0 0)
(15.7922 0 0)
(2.58252 0 0)
(0.392284 0 0)
(0.0582483 0 0)
(0.00853316 0 0)
(0.00123488 0 0)
(0.000176486 0 0)
(2.49008e-05 0 0)
(3.46694e-06 0 0)
(4.76256e-07 0 0)
(6.45478e-08 0 0)
(8.63361e-09 0 0)
(1.14003e-09 0 0)
(1.48859e-10 0 0)
(1.94712e-11 0 0)
(2.81827e-12 0 0)
(2.52215e-12 0 0)
(1.15532e-12 0 0)
(-8.11055e-13 0 0)
(5.89328e-13 0 0)
(-1.01382e-12 0 0)
(-4.69712e-13 0 0)
(1.73589e-13 0 0)
(-1.10134e-12 0 0)
(-1.30411e-12 0 0)
(-5.77658e-13 0 0)
)
;

boundaryField
{
    sides
    {
        type            zeroGradient;
    }
    empty
    {
        type            empty;
    }
}


// ************************************************************************* //
