/*--------------------------------*- C++ -*----------------------------------*\
  =========                 |
  \\      /  F ield         | OpenFOAM: The Open Source CFD Toolbox
   \\    /   O peration     | Website:  https://openfoam.org
    \\  /    A nd           | Version:  7
     \\/     M anipulation  |
\*---------------------------------------------------------------------------*/
FoamFile
{
    version     2.0;
    format      ascii;
    class       volScalarField;
    location    "3.67";
    object      T;
}
// * * * * * * * * * * * * * * * * * * * * * * * * * * * * * * * * * * * * * //

dimensions      [0 0 0 1 0 0 0];

internalField   nonuniform List<scalar> 
1000
(
0
0
0
0
0
0
0
0
0
0
0
0
0
0
0
0
0
0
0
0
0
0
0
0
0
0
0
0
0
0
0
0
0
0
0
0
0
0
0
0
0
0
0
0
0
0
0
0
0
0
0
0
0
0
0
0
0
0
0
0
0
0
0
0
0
0
0
0
0
0
0
0
0
0
0
0
0
0
0
0
0
0
0
0
0
0
0
9.88131e-324
-2.16302e-320
4.99115e-318
3.36681e-316
-5.7679e-313
2.2143e-310
-5.75081e-308
1.18333e-305
-2.05341e-303
3.10752e-301
-4.18897e-299
5.10422e-297
-5.68333e-295
5.83154e-293
-5.5514e-291
4.93026e-289
-4.104e-287
3.2147e-285
-2.37772e-283
1.66562e-281
-1.10799e-279
7.01569e-278
-4.23738e-276
2.44596e-274
-1.3517e-272
7.16273e-271
-3.6448e-269
1.78338e-267
-8.40089e-266
3.81428e-264
-1.67096e-262
7.06989e-261
-2.89169e-259
1.14435e-257
-4.38513e-256
1.62837e-254
-5.86378e-253
2.04904e-251
-6.95261e-250
2.29207e-248
-7.34579e-247
2.28988e-245
-6.94659e-244
2.05176e-242
-5.90306e-241
1.65506e-239
-4.52397e-238
1.20605e-236
-3.13701e-235
7.964e-234
-1.97406e-232
4.77909e-231
-1.13038e-229
2.61295e-228
-5.9046e-227
1.30473e-225
-2.81995e-224
5.96294e-223
-1.23391e-221
2.49927e-220
-4.95616e-219
9.62444e-218
-1.83059e-216
3.41099e-215
-6.22763e-214
1.11429e-212
-1.95426e-211
3.36007e-210
-5.66452e-209
9.36473e-208
-1.51847e-206
2.41523e-205
-3.76885e-204
5.77049e-203
-8.67008e-202
1.27847e-200
-1.85038e-199
2.62894e-198
-3.66686e-197
5.02158e-196
-6.7524e-195
8.91629e-194
-1.15625e-192
1.47263e-191
-1.84221e-190
2.26369e-189
-2.73244e-188
3.24014e-187
-3.77466e-186
4.32028e-185
-4.85829e-184
5.36793e-183
-5.82767e-182
6.21668e-181
-6.51636e-180
6.71183e-179
-6.79314e-178
6.75608e-177
-6.60257e-176
6.34048e-175
-5.98296e-174
5.54736e-173
-5.05385e-172
4.52388e-171
-3.97864e-170
3.43774e-169
-2.91814e-168
2.43336e-167
-1.99317e-166
1.60356e-165
-1.26706e-164
9.83188e-164
-7.49131e-163
5.60418e-162
-4.11571e-161
2.96685e-160
-2.09893e-159
1.45708e-158
-9.92358e-158
6.62934e-157
-4.34305e-156
2.78957e-155
-1.75625e-154
1.08347e-153
-6.54771e-153
3.87488e-152
-2.24468e-151
1.27232e-150
-7.05298e-150
3.82171e-149
-2.02299e-148
1.04541e-147
-5.26993e-147
2.58922e-146
-1.23861e-145
5.76222e-145
-2.60328e-144
1.14023e-143
-4.83178e-143
1.97576e-142
-7.77007e-142
2.92583e-141
-1.04839e-140
3.54233e-140
-1.11232e-139
3.16223e-139
-7.69137e-139
1.34152e-138
5.63567e-140
-1.46994e-137
8.76222e-137
-3.64959e-136
1.22432e-135
-3.31225e-135
6.38254e-135
-2.34323e-135
-5.14913e-134
3.08339e-133
-1.17262e-132
3.28793e-132
-6.05654e-132
-3.80183e-134
5.87281e-131
-3.02621e-130
9.84273e-130
-2.10278e-129
1.24886e-129
1.34192e-128
-7.68733e-128
2.46922e-127
-4.74949e-127
2.24548e-129
4.25011e-126
-1.95489e-125
5.12132e-125
-5.83287e-125
-1.87475e-124
1.32708e-123
-4.1434e-123
6.43659e-123
7.83115e-123
-8.6931e-122
2.94365e-121
-4.8309e-121
-4.71505e-121
5.83596e-120
-1.92194e-119
2.79386e-119
4.62208e-119
-3.98593e-118
1.13666e-117
-1.10358e-117
-4.80276e-117
2.6017e-116
-5.65569e-116
2.02214e-117
4.22326e-115
-1.47998e-114
1.9075e-114
4.55738e-114
-2.93545e-113
6.3559e-113
6.66688e-114
-4.82443e-112
1.49005e-111
-1.2393e-111
-6.74271e-111
2.94837e-110
-4.2168e-110
-7.92712e-110
5.27222e-109
-9.96442e-109
-7.3023e-109
8.86399e-108
-2.00475e-107
-3.75715e-108
1.44199e-106
-3.66466e-106
3.11001e-107
2.31986e-105
-6.26356e-105
1.13483e-105
3.74194e-104
-1.01316e-103
1.34834e-104
6.07223e-103
-1.55241e-102
-8.79108e-104
9.84138e-102
-2.23196e-101
-9.18907e-102
1.56841e-100
-2.94278e-100
-2.97041e-100
2.40731e-99
-3.38766e-99
-7.0915e-99
3.47075e-98
-2.98235e-98
-1.41434e-97
4.54954e-97
-8.28673e-98
-2.43948e-96
5.13907e-96
4.09114e-96
-3.64756e-95
4.39574e-95
1.23261e-94
-4.61931e-94
1.3223e-94
2.29425e-93
-4.61647e-93
-4.66244e-93
3.24686e-92
-2.77764e-92
-1.28034e-91
3.47896e-91
1.34131e-91
-2.02075e-90
2.32958e-90
7.00404e-90
-2.21129e-89
-4.26754e-90
1.18312e-88
-1.41393e-88
-4.03087e-88
1.24292e-87
3.78792e-88
-6.63122e-87
6.50171e-87
2.43788e-86
-6.12755e-86
-4.48161e-86
3.47411e-85
-1.84757e-85
-1.44603e-84
2.47393e-84
4.13147e-84
-1.59847e-83
-2.61936e-84
7.6805e-83
-6.46341e-83
-2.89285e-82
5.71981e-82
7.7823e-82
-3.29723e-81
-5.4515e-82
1.52216e-80
-1.05924e-80
-5.85228e-80
9.43568e-80
1.81303e-79
-5.51932e-79
-3.68646e-79
2.65289e-78
-3.22031e-79
-1.11046e-77
8.91631e-78
4.10561e-77
-6.38665e-77
-1.32029e-76
3.45832e-76
3.44323e-76
-1.62154e-75
-5.21133e-76
6.89705e-75
-1.42602e-75
-2.71732e-74
1.87252e-74
1.00148e-73
-1.18925e-73
-3.46385e-73
6.10373e-73
1.12125e-72
-2.80295e-72
-3.35997e-72
1.19837e-71
9.07194e-72
-4.86886e-71
-2.05252e-71
1.90361e-70
2.88264e-71
-7.22452e-70
5.32891e-71
2.67895e-69
-7.0815e-70
-9.75739e-69
4.1468e-69
3.50605e-68
-1.95282e-68
-1.24744e-67
8.22679e-68
4.40795e-67
-3.2206e-67
-1.55047e-66
1.19129e-66
5.43672e-66
-4.1926e-66
-1.90158e-65
1.40487e-65
6.63225e-65
-4.45864e-65
-2.30385e-64
1.32197e-64
7.95468e-64
-3.54997e-64
-2.72256e-63
7.96172e-64
9.20537e-63
-1.05092e-63
-3.06234e-62
-2.70803e-63
9.97482e-62
3.17231e-62
-3.16233e-61
-1.83954e-61
9.68255e-61
8.65562e-61
-2.83203e-60
-3.63517e-60
7.7775e-60
1.40936e-59
-1.94302e-59
-5.11474e-59
4.10363e-59
1.74571e-58
-5.57136e-59
-5.59641e-58
-7.14888e-59
1.67311e-57
9.83724e-58
-4.59146e-57
-5.18291e-57
1.11831e-56
2.11683e-56
-2.21791e-56
-7.45317e-56
2.45654e-56
2.32621e-55
6.14055e-56
-6.41688e-55
-5.61701e-55
1.51179e-54
2.55781e-54
-2.71149e-54
-9.05935e-54
1.74389e-54
2.68447e-53
1.34177e-53
-6.61658e-53
-8.43845e-53
1.23974e-52
3.2525e-52
-1.01762e-52
-9.74327e-52
-4.6703e-52
2.30526e-51
3.09533e-51
-3.78689e-51
-1.14642e-50
7.67562e-52
3.14735e-50
2.46203e-50
-6.28895e-50
-1.20246e-49
6.07083e-50
3.71903e-49
1.76496e-49
-8.1413e-49
-1.21596e-48
9.80832e-49
4.08832e-48
1.38688e-48
-9.1978e-48
-1.25987e-47
1.10535e-47
4.32704e-47
1.5783e-47
-9.35859e-47
-1.36925e-46
9.2482e-47
4.41909e-46
2.40713e-46
-8.43517e-46
-1.51879e-45
4.2114e-46
4.22526e-45
3.70209e-45
-6.1966e-45
-1.61584e-44
-3.49228e-45
3.53141e-44
4.99547e-44
-2.63844e-44
-1.52218e-43
-1.199e-43
2.19934e-43
5.56827e-43
1.62799e-43
-1.12376e-42
-1.79859e-42
3.85168e-43
4.74238e-42
5.19341e-42
-4.41578e-42
-1.79479e-41
-1.33005e-41
2.42312e-41
6.33358e-41
2.90125e-41
-1.07333e-40
-2.13636e-40
-4.65217e-41
4.26767e-40
7.02147e-40
9.70748e-42
-1.58963e-39
-2.28611e-39
3.35794e-40
5.67041e-39
7.47907e-39
-1.86885e-39
-1.96079e-38
-2.48461e-38
6.96636e-39
6.61086e-38
8.42364e-38
-1.95318e-38
-2.17437e-37
-2.90965e-37
3.22188e-38
6.94431e-37
1.01597e-36
6.78029e-38
-2.13017e-36
-3.54263e-36
-1.00075e-36
6.14967e-36
1.21538e-35
6.37315e-36
-1.60579e-35
-4.03273e-35
-3.18926e-35
3.44104e-35
1.26719e-34
1.38812e-34
-3.89465e-35
-3.65737e-34
-5.41295e-34
-1.4312e-34
9.15954e-34
1.89689e-33
1.34573e-33
-1.70121e-33
-5.87371e-33
-6.765e-33
4.93555e-34
1.52928e-32
2.64121e-32
1.51512e-32
-2.86094e-32
-8.42336e-32
-9.34963e-32
6.43533e-33
2.09558e-31
3.7504e-31
2.56426e-31
-3.10873e-31
-1.12434e-30
-1.46798e-30
-4.18789e-31
2.28668e-30
5.25109e-30
5.28614e-30
-8.12924e-31
-1.2644e-29
-2.28806e-29
-1.82253e-29
1.20896e-29
6.18505e-29
9.69804e-29
6.3396e-29
-7.58667e-29
-2.83737e-28
-4.11582e-28
-2.38996e-28
3.72416e-28
1.25284e-27
1.77977e-27
1.03983e-27
-1.55817e-27
-5.36801e-27
-7.87318e-27
-5.2206e-27
5.43166e-27
2.21676e-26
3.52754e-26
2.84208e-26
-1.28986e-26
-8.61165e-26
-1.56598e-25
-1.56452e-25
-1.17458e-26
2.9783e-25
6.66717e-25
8.28319e-25
4.23012e-25
-7.87168e-25
-2.59312e-24
-4.06344e-24
-3.59366e-24
4.4435e-25
8.39023e-24
1.77205e-23
2.21973e-23
1.31083e-23
-1.63322e-23
-6.37274e-23
-1.10124e-22
-1.17951e-22
-4.09478e-23
1.49631e-22
4.25919e-22
6.67258e-22
6.55649e-22
1.3663e-22
-1.03397e-21
-2.67654e-21
-4.08996e-21
-4.0197e-21
-9.73036e-22
5.99445e-21
1.6087e-20
2.55615e-20
2.72716e-20
1.19804e-20
-2.76911e-20
-9.06236e-20
-1.59407e-19
-1.95085e-19
-1.40076e-19
6.46329e-20
4.44551e-19
9.42576e-19
1.37077e-18
1.39174e-18
5.68596e-19
-1.47876e-18
-4.79644e-18
-8.73578e-18
-1.16258e-17
-1.06883e-17
-2.47318e-18
1.59164e-17
4.46938e-17
7.8586e-17
1.04146e-16
9.86492e-17
3.26418e-17
-1.21618e-16
-3.74299e-16
-6.95255e-16
-9.88647e-16
-1.07434e-15
-6.9122e-16
4.58146e-16
2.60216e-15
5.72336e-15
9.31984e-15
1.21503e-14
1.20565e-14
6.01397e-15
-9.39473e-15
-3.68736e-14
-7.65242e-14
-1.23188e-13
-1.63349e-13
-1.7238e-13
-1.13557e-13
5.9134e-14
3.91805e-13
9.12439e-13
1.60168e-12
2.35274e-12
2.92426e-12
2.89602e-12
1.64543e-12
-1.62749e-12
-7.78876e-12
-1.75275e-11
-3.09351e-11
-4.68714e-11
-6.21162e-11
-7.03614e-11
-6.12017e-11
-1.94216e-11
7.49331e-11
2.44974e-10
5.12907e-10
8.92257e-10
1.37502e-09
1.91235e-09
2.38784e-09
2.58313e-09
2.13749e-09
5.05497e-10
-3.07863e-09
-9.61548e-09
-2.03105e-08
-3.64649e-08
-5.92375e-08
-8.92088e-08
-1.25655e-07
-1.6541e-07
-2.01164e-07
-2.19e-07
-1.9494e-07
-9.02123e-08
1.55095e-07
6.30369e-07
1.46525e-06
2.84329e-06
5.01911e-06
8.3395e-06
1.32691e-05
2.04213e-05
3.05947e-05
4.4816e-05
6.43897e-05
9.09542e-05
0.000126546
0.000173671
0.000235383
0.000315367
0.000418035
0.000548619
0.000713273
0.000919176
0.00117464
0.00148921
0.00187375
0.00234058
0.00290349
0.00357789
0.0043808
0.00533091
0.00644863
0.00775602
0.00927679
0.0110363
0.0130612
0.0153797
0.0180211
0.0210158
0.0243948
0.0281896
0.0324321
0.037154
0.0423864
0.0481599
0.0545035
0.0614451
0.0690102
0.0772223
0.0861019
0.0956668
0.105931
0.116905
0.128595
0.141004
0.154129
0.167964
0.182497
0.197713
0.21359
0.230104
0.247225
0.264919
0.283148
0.301871
0.321041
0.340613
0.360533
0.380751
0.40121
0.421855
0.442629
0.463475
0.484335
0.505154
0.525876
0.546445
0.566812
0.586924
0.606734
0.626199
0.645275
0.663925
0.682113
0.699808
0.716983
0.733612
0.749676
0.765157
0.780044
0.794325
0.807995
0.821051
0.833492
0.845323
0.856548
0.867175
0.877216
0.886683
0.895589
0.903951
0.911786
0.919112
0.925949
0.932315
0.938233
0.943722
0.948804
0.953498
0.957826
0.961808
0.965463
0.968811
0.971869
0.974655
0.977185
0.979473
0.981535
0.983381
0.985023
0.98647
0.987729
0.988806
0.989704
0.990426
0.990971
0.991335
0.991515
0.991503
0.991291
0.990865
0.990214
0.989319
0.988164
0.986727
0.984987
0.98292
0.980499
0.977698
0.974489
0.970843
0.966731
0.962122
0.956989
0.951302
0.945033
0.938156
0.930648
0.922484
0.913647
0.904118
0.893885
0.882938
0.871271
0.858882
0.845774
0.831954
0.817433
0.802228
0.78636
0.769853
0.752739
0.735051
0.716827
0.698108
0.678941
0.659373
0.639454
0.619239
0.598781
0.578138
0.557365
0.53652
0.51566
0.494842
0.474122
0.453552
0.433186
0.413075
0.393264
0.3738
0.354724
0.336074
0.317886
0.300191
0.283017
0.266388
0.250324
0.234842
0.219956
0.205675
0.192005
0.178949
0.166508
0.154677
0.143452
0.132825
0.122784
0.113318
0.104411
0.0960493
0.0882144
0.0808881
0.0740513
0.067684
0.0617655
0.056275
0.0511915
0.0464937
0.0421607
0.0381718
0.0345064
0.0311446
0.0280668
0.0252544
0.0226889
0.020353
0.0182299
0.0163036
0.0145589
0.0129814
0.0115577
0.0102748
0.00912089
0.00808467
0.00715571
0.0063243
0.0055814
0.00491869
0.00432846
0.00380364
0.00333771
0.00292474
0.00255927
0.00223634
0.00195146
0.00170051
0.0014798
0.00128598
0.00111603
0.000967229
0.000837142
0.000723583
0.000624597
0.000538439
0.000463556
0.000398565
0.00034224
0.000293494
0.000251367
0.000215012
0.00018368
0.000156716
0.000133536
0.000113674
9.64672e-05
8.27684e-05
6.52646e-05
)
;

boundaryField
{
    sides
    {
        type            zeroGradient;
    }
    empty
    {
        type            empty;
    }
}


// ************************************************************************* //
