/*--------------------------------*- C++ -*----------------------------------*\
  =========                 |
  \\      /  F ield         | OpenFOAM: The Open Source CFD Toolbox
   \\    /   O peration     | Website:  https://openfoam.org
    \\  /    A nd           | Version:  7
     \\/     M anipulation  |
\*---------------------------------------------------------------------------*/
FoamFile
{
    version     2.0;
    format      ascii;
    class       volScalarField;
    location    "9.8";
    object      p;
}
// * * * * * * * * * * * * * * * * * * * * * * * * * * * * * * * * * * * * * //

dimensions      [1 -1 -2 0 0 0 0];

internalField   nonuniform List<scalar> 
19968
(
1
1
1
1
1
1
1
1
1
1
1
1
1
1
1
1
1
1
1
1
1
1
1
1
1
1
1
1
1
1
1
1
1
1
1
1
1
1
1
1
1
1
1
1
1
1
1
1
1.58696
8.09774
10.4185
10.4539
10.5181
10.5759
10.6353
10.6915
10.7465
10.7997
10.8514
10.9036
10.9574
11.0119
11.0654
11.1154
11.1622
11.2092
11.258
11.3066
11.352
11.3925
11.4286
11.463
11.4994
11.5401
11.5848
11.6301
11.6719
11.7076
11.7374
11.7627
11.7858
11.8084
11.8323
11.8581
11.8857
11.9135
11.9392
11.9602
11.9761
11.988
11.9981
12.0081
12.0187
12.029
12.0379
12.0445
1
1
1
1
1
1
1
1
1
1
1
1
1
1
1
1
1
1
1
1
1
1
1
1
1
1
1
1
1
1
1
1
1
1
1
1
1
1
1
1
1
1
1
1
1
1
1
1
1.55086
8.02129
10.4072
10.4557
10.5191
10.5771
10.6358
10.6911
10.7447
10.797
10.8486
10.9011
10.9551
11.0093
11.0625
11.1122
11.1594
11.2067
11.2555
11.3039
11.3493
11.39
11.4263
11.4608
11.4969
11.537
11.5809
11.6254
11.6665
11.7019
11.7317
11.7574
11.7808
11.8039
11.8281
11.8541
11.8816
11.9091
11.9341
11.9546
11.97
11.9817
11.9918
12.0018
12.0122
12.0221
12.0302
12.0363
1
1
1
1
1
1
1
1
1
1
1
1
1
1
1
1
1
1
1
1
1
1
1
1
1
1
1
1
1
1
1
1
1
1
1
1
1
1
1
1
1
1
1
1
1
1
1
1
1.47219
7.85936
10.406
10.4457
10.5128
10.5713
10.6303
10.6852
10.7381
10.79
10.8415
10.8941
10.9484
11.0022
11.0553
11.1048
11.1525
11.2
11.2487
11.2969
11.3424
11.3836
11.4205
11.4554
11.4914
11.5308
11.5734
11.6165
11.6566
11.6915
11.7213
11.7474
11.7715
11.7953
11.8201
11.8464
11.8738
11.9006
11.9249
11.9449
11.9604
11.9725
11.9829
11.993
12.003
12.0119
12.0188
12.0239
1
1
1
1
1
1
1
1
1
1
1
1
1
1
1
1
1
1
1
1
1
1
1
1
1
1
1
1
1
1
1
1
1
1
1
1
1
1
1
1
1
1
1
1
1
1
1
1
1.36551
7.60628
10.3957
10.4361
10.5039
10.5627
10.6216
10.6763
10.729
10.7811
10.833
10.8859
10.9406
10.9939
11.0466
11.0956
11.1434
11.1907
11.2392
11.287
11.3325
11.374
11.4116
11.4469
11.4828
11.5214
11.5627
11.6042
11.6428
11.6768
11.7063
11.7327
11.7576
11.7824
11.808
11.8345
11.8612
11.8867
11.9094
11.9284
11.9434
11.9557
11.9667
11.9773
11.9873
11.9955
12.0012
12.0055
1
1
1
1
1
1
1
1
1
1
1
1
1
1
1
1
1
1
1
1
1
1
1
1
1
1
1
1
1
1
1
1
1
1
1
1
1
1
1
1
1
1
1
1
1
1
1
1
1.23257
7.26925
10.3978
10.4287
10.4964
10.5553
10.6135
10.6672
10.7191
10.7705
10.8222
10.8752
10.9301
10.9829
11.0349
11.0834
11.1313
11.1786
11.2269
11.2743
11.3196
11.3615
11.3996
11.4355
11.4714
11.5095
11.5497
11.5896
11.6268
11.6597
11.6887
11.7154
11.7412
11.7673
11.7941
11.821
11.847
11.8709
11.8917
11.9088
11.9225
11.934
11.9445
11.9546
11.9636
11.9704
11.9743
11.9776
1
1
1
1
1
1
1
1
1
1
1
1
1
1
1
1
1
1
1
1
1
1
1
1
1
1
1
1
1
1
1
1
1
1
1
1
1
1
1
1
1
1
1
1
1
1
1
1
1.018
6.73876
10.4004
10.4307
10.4886
10.5483
10.606
10.6596
10.7117
10.7631
10.8148
10.8678
10.9222
10.9739
11.0243
11.0716
11.1186
11.1651
11.2122
11.2581
11.3021
11.3431
11.3809
11.4164
11.4519
11.489
11.5276
11.5656
11.6008
11.6322
11.6603
11.6867
11.7131
11.7403
11.7681
11.7955
11.8212
11.844
11.8635
11.8795
11.8927
11.9043
11.9153
11.9259
11.935
11.9414
11.9444
11.9474
1
1
1
1
1
1
1
1
1
1
1
1
1
1
1
1
1
1
1
1
1
1
1
1
1
1
1
1
1
1
1
1
1
1
1
1
1
1
1
1
1
1
1
1
1
1
1
1
1.00011
6.00705
10.294
10.3862
10.44
10.5054
10.565
10.6207
10.6748
10.7278
10.7807
10.8341
10.8881
10.9392
10.9881
11.0346
11.0809
11.1275
11.1744
11.2198
11.2634
11.3042
11.3424
11.3786
11.4146
11.4519
11.4898
11.5269
11.5612
11.592
11.6202
11.647
11.674
11.7019
11.7304
11.7583
11.784
11.8062
11.8246
11.8394
11.8517
11.8628
11.8738
11.8846
11.8937
11.9003
11.903
11.9064
1
1
1
1
1
1
1
1
1
1
1
1
1
1
1
1
1
1
1
1
1
1
1
1
1
1
1
1
1
1
1
1
1
1
1
1
1
1
1
1
1
1
1
1
1
1
1
1
1
5.07213
10.1477
10.3552
10.4057
10.4768
10.538
10.596
10.6515
10.705
10.7578
10.8097
10.8611
10.9104
10.9572
11.0025
11.0482
11.0945
11.1406
11.1846
11.2268
11.2667
11.3047
11.3409
11.3767
11.413
11.4495
11.4847
11.5176
11.5479
11.576
11.603
11.6301
11.6579
11.6861
11.7136
11.7387
11.7602
11.7775
11.7911
11.8021
11.8121
11.8225
11.8329
11.8422
11.8495
11.8528
11.8571
1
1
1
1
1
1
1
1
1
1
1
1
1
1
1
1
1
1
1
1
1
1
1
1
1
1
1
1
1
1
1
1
1
1
1
1
1
1
1
1
1
1
1
1
1
1
1
1
1
4.00303
9.85922
10.3177
10.3685
10.4431
10.5057
10.566
10.6222
10.6759
10.7284
10.779
10.8276
10.8746
10.9194
10.9633
11.0077
11.0527
11.0968
11.1382
11.1781
11.2162
11.2533
11.2889
11.324
11.3592
11.394
11.4274
11.459
11.4886
11.5166
11.5435
11.5701
11.597
11.6242
11.6506
11.6748
11.6957
11.7126
11.7257
11.7361
11.7455
11.7554
11.7658
11.7756
11.784
11.7886
11.7943
1
1
1
1
1
1
1
1
1
1
1
1
1
1
1
1
1
1
1
1
1
1
1
1
1
1
1
1
1
1
1
1
1
1
1
1
1
1
1
1
1
1
1
1
1
1
1
1
1
2.88827
9.3205
10.2932
10.36
10.4306
10.4898
10.5462
10.5982
10.6487
10.6986
10.7475
10.7936
10.8385
10.8815
10.9238
10.9664
11.0096
11.0514
11.0901
11.1274
11.1633
11.1986
11.2326
11.2658
11.2983
11.33
11.3602
11.3888
11.4162
11.4425
11.4681
11.4937
11.5197
11.546
11.5715
11.5949
11.6151
11.6314
11.6439
11.6535
11.6618
11.6705
11.6798
11.689
11.6978
11.7031
11.7094
1
1
1
1
1
1
1
1
1
1
1
1
1
1
1
1
1
1
1
1
1
1
1
1
1
1
1
1
1
1
1
1
1
1
1
1
1
1
1
1
1
1
1
1
1
1
1
1
1
1.85053
8.38658
10.3242
10.3276
10.3969
10.4487
10.5033
10.5553
10.606
10.6549
10.7032
10.7484
10.7922
10.8354
10.8776
10.9189
10.96
11
11.0367
11.0721
11.1064
11.1399
11.1726
11.2041
11.2345
11.2633
11.29
11.3147
11.3379
11.3602
11.3822
11.4045
11.4275
11.4506
11.4724
11.4918
11.5082
11.5216
11.5324
11.5416
11.5502
11.5591
11.5686
11.5781
11.5873
11.5933
11.6001
1
1
1
1
1
1
1
1
1
1
1
1
1
1
1
1
1
1
1
1
1
1
1
1
1
1
1
1
1
1
1
1
1
1
1
1
1
1
1
1
1
1
1
1
1
1
1
1
1
1.03359
6.72805
10.3542
10.369
10.4068
10.4482
10.4917
10.5353
10.5784
10.6208
10.6641
10.7058
10.7453
10.7846
10.8234
10.861
10.8982
10.9346
10.9675
10.999
11.0301
11.0601
11.0903
11.1192
11.147
11.1729
11.1965
11.2174
11.2365
11.2547
11.2732
11.2929
11.3141
11.3354
11.3552
11.3718
11.3851
11.3956
11.4038
11.4103
11.4156
11.42
11.4238
11.4275
11.4322
11.4356
11.4401
1
1
1
1
1
1
1
1
1
1
1
1
1
1
1
1
1
1
1
1
1
1
1
1
1
1
1
1
1
1
1
1
1
1
1
1
1
1
1
1
1
1
1
1
1
1
1
1
1
1.00006
4.63506
9.93151
10.1982
10.2624
10.3263
10.3806
10.4314
10.478
10.5212
10.563
10.6041
10.6429
10.681
10.7196
10.757
10.7933
10.8288
10.8612
10.891
10.9202
10.9483
10.9764
11.0038
11.0305
11.0553
11.0766
11.094
11.1083
11.1215
11.1354
11.1511
11.1686
11.1859
11.2002
11.2098
11.2148
11.2165
11.2162
11.2152
11.215
11.2163
11.219
11.2223
11.2275
11.2313
11.2356
1
1
1
1
1
1
1
1
1
1
1
1
1
1
1
1
1
1
1
1
1
1
1
1
1
1
1
1
1
1
1
1
1
1
1
1
1
1
1
1
1
1
1
1
1
1
1
1
1
1
2.4123
8.81672
10.1346
10.1903
10.2708
10.3266
10.3769
10.4225
10.4642
10.5031
10.5408
10.5765
10.6107
10.6454
10.6798
10.7125
10.744
10.7731
10.7987
10.8225
10.8454
10.8676
10.8902
10.9125
10.9335
10.9504
10.9619
10.9689
10.9739
10.9796
10.9877
10.9983
11.0089
11.0168
11.0201
11.0184
11.0135
11.0069
10.9994
10.9908
10.9798
10.9663
10.948
10.9275
10.9063
10.8877
1
1
1
1
1
1
1
1
1
1
1
1
1
1
1
1
1
1
1
1
1
1
1
1
1
1
1
1
1
1
1
1
1
1
1
1
1
1
1
1
1
1
1
1
1
1
1
1
1
1
1.06041
6.43081
10.2122
10.2308
10.2512
10.2868
10.321
10.3559
10.3897
10.4223
10.4541
10.4855
10.515
10.5442
10.5738
10.6024
10.6296
10.6547
10.6758
10.6932
10.7092
10.7248
10.7416
10.7593
10.7764
10.7894
10.7963
10.7966
10.7922
10.7867
10.7834
10.783
10.7831
10.7802
10.771
10.7544
10.7304
10.6994
10.6612
10.6151
10.5629
10.5092
10.4653
10.4304
10.4166
10.4114
1
1
1
1
1
1
1
1
1
1
1
1
1
1
1
1
1
1
1
1
1
1
1
1
1
1
1
1
1
1
1
1
1
1
1
1
1
1
1
1
1
1
1
1
1
1
1
1
1
1
1.00009
3.33588
9.24626
10.0571
10.0966
10.1472
10.1884
10.2307
10.2713
10.3092
10.3439
10.3757
10.4045
10.4313
10.4571
10.4818
10.5047
10.5254
10.5424
10.5546
10.5626
10.5687
10.5754
10.5849
10.597
10.6071
10.6109
10.6045
10.5892
10.5684
10.5473
10.5288
10.5114
10.4911
10.464
10.4279
10.3816
10.3254
10.2593
10.1848
10.1047
10.0238
9.93463
9.85482
9.7473
9.84375
1
1
1
1
1
1
1
1
1
1
1
1
1
1
1
1
1
1
1
1
1
1
1
1
1
1
1
1
1
1
1
1
1
1
1
1
1
1
1
1
1
1
1
1
1
1
1
1
1
1
1
1.24231
7.29527
10.0929
10.078
10.0928
10.1274
10.164
10.2003
10.2339
10.2636
10.2898
10.3134
10.3346
10.3535
10.3713
10.3883
10.404
10.417
10.4252
10.4258
10.4221
10.4182
10.4182
10.4228
10.4278
10.4275
10.4164
10.3928
10.3588
10.3201
10.2815
10.2433
10.2021
10.1534
10.093
10.0166
9.92104
9.79969
9.64852
9.44899
9.18824
8.80981
8.25765
7.34518
5.48619
1
1
1
1
1
1
1
1
1
1
1
1
1
1
1
1
1
1
1
1
1
1
1
1
1
1
1
1
1
1
1
1
1
1
1
1
1
1
1
1
1
1
1
1
1
1
1
1
1
1
1
1.00212
4.64087
9.6439
9.93546
9.96876
10.0117
10.0475
10.082
10.1167
10.1482
10.176
10.2008
10.2225
10.2412
10.2576
10.2722
10.285
10.2952
10.3016
10.301
10.294
10.2829
10.2732
10.2672
10.2633
10.2568
10.242
10.214
10.1717
10.1196
10.0633
10.0047
9.94234
9.87107
9.78671
9.68043
9.54802
9.37419
9.15803
8.86818
8.50208
7.98357
7.33299
6.10982
4.50444
1
1
1
1
1
1
1
1
1
1
1
1
1
1
1
1
1
1
1
1
1
1
1
1
1
1
1
1
1
1
1
1
1
1
1
1
1
1
1
1
1
1
1
1
1
1
1
1
1
1
1
0.999995
1.92047
8.16723
9.94466
9.91978
9.95829
9.98889
10.0148
10.0435
10.0706
10.0944
10.1154
10.1338
10.1492
10.1618
10.1715
10.1788
10.1834
10.1837
10.1797
10.1694
10.1537
10.1364
10.1196
10.1037
10.0863
10.0628
10.0276
9.97774
9.91458
9.84291
9.7642
9.67975
9.5838
9.47442
9.34007
9.17567
8.96395
8.69962
8.36555
7.93863
7.39985
6.6388
5.60953
4.50676
1
1
1
1
1
1
1
1
1
1
1
1
1
1
1
1
1
1
1
1
1
1
1
1
1
1
1
1
1
1
1
1
1
1
1
1
1
1
1
1
1
1
1
1
1
1
1
1
1
1
1
0.999999
1.03075
5.34717
9.7642
9.84734
9.88484
9.91549
9.93992
9.96414
9.98762
10.0057
10.0219
10.0371
10.0506
10.061
10.0672
10.0687
10.0659
10.0591
10.0491
10.0337
10.0145
9.9928
9.96882
9.94309
9.91436
9.87979
9.83482
9.77716
9.70538
9.62302
9.52854
9.42438
9.30531
9.17118
9.01311
8.82463
8.59267
8.30667
7.95765
7.52101
6.99355
6.30622
5.53839
4.6899
1
1
1
1
1
1
1
1
1
1
1
1
1
1
1
1
1
1
1
1
1
1
1
1
1
1
1
1
1
1
1
1
1
1
1
1
1
1
1
1
1
1
1
1
1
1
1
1
1
1
1
1
1
2.17091
8.39559
9.82648
9.82013
9.85015
9.87034
9.8892
9.90831
9.92161
9.93254
9.94243
9.95079
9.9556
9.95739
9.95538
9.94915
9.93881
9.92399
9.90242
9.87709
9.84986
9.81973
9.78634
9.74771
9.70192
9.64569
9.57926
9.49993
9.40993
9.30525
9.18686
9.0508
8.89657
8.71985
8.51466
8.27344
7.9851
7.64746
7.23221
6.74533
6.18619
5.58738
4.91826
1
1
1
1
1
1
1
1
1
1
1
1
1
1
1
1
1
1
1
1
1
1
1
1
1
1
1
1
1
1
1
1
1
1
1
1
1
1
1
1
1
1
1
1
1
1
1
1
1
1
1
1
0.999999
1.04512
5.45334
9.69021
9.75759
9.78058
9.79521
9.81182
9.8274
9.83804
9.8445
9.84707
9.8516
9.84947
9.84487
9.8387
9.82882
9.81603
9.79846
9.77283
9.74184
9.70883
9.67255
9.63238
9.585
9.52878
9.4613
9.38548
9.29928
9.20336
9.09322
8.9673
8.82228
8.65646
8.46759
8.25226
8.00771
7.72508
7.41003
7.02654
6.60961
6.15049
5.65651
5.11661
1
1
1
1
1
1
1
1
1
1
1
1
1
1
1
1
1
1
1
1
1
1
1
1
1
1
1
1
1
1
1
1
1
1
1
1
1
1
1
1
1
1
1
1
1
1
1
1
1
1
1
1
1
1.00004
2.0587
8.2429
9.69604
9.69522
9.71628
9.72879
9.73823
9.74389
9.74414
9.7428
9.74449
9.73544
9.72117
9.70941
9.69539
9.68148
9.66382
9.63881
9.60689
9.57059
9.52871
9.48128
9.42496
9.35931
9.28291
9.19932
9.10746
9.00632
8.89266
8.76403
8.61775
8.45082
8.26014
8.04361
7.80239
7.52694
7.22601
6.88908
6.53299
6.13908
5.71688
5.27796
1
1
1
1
1
1
1
1
1
1
1
1
1
1
1
1
1
1
1
1
1
1
1
1
1
1
1
1
1
1
1
1
1
1
1
1
1
1
1
1
1
1
1
1
1
1
1
1
1
1
1
1
1
1
1.03471
4.92845
9.41447
9.60258
9.62269
9.63787
9.65423
9.66271
9.66412
9.66374
9.6621
9.64656
9.6228
9.60075
9.57867
9.55892
9.53595
9.50866
9.4763
9.43843
9.39298
9.33959
9.27548
9.20172
9.11806
9.02784
8.9309
8.82512
8.70792
8.57742
8.4325
8.26964
8.08534
7.8754
7.64575
7.37848
7.09496
6.79933
6.47415
6.13074
5.77745
5.41368
1
1
1
1
1
1
1
1
1
1
1
1
1
1
1
1
1
1
1
1
1
1
1
1
1
1
1
1
1
1
1
1
1
1
1
1
1
1
1
1
1
1
1
1
1
1
1
1
1
1
1
1
1
1
1.00003
1.55158
7.63595
9.64289
9.60351
9.58715
9.58106
9.5771
9.57088
9.56627
9.55921
9.54057
9.51334
9.48636
9.46027
9.43591
9.40804
9.3781
9.34479
9.30489
9.25614
9.19813
9.1286
9.05023
8.96253
8.86827
8.76816
8.6597
8.54026
8.40851
8.2653
8.10779
7.93539
7.73568
7.5214
7.27172
7.01248
6.73709
6.43695
6.14531
5.83656
5.51306
1
1
1
1
1
1
1
1
1
1
1
1
1
1
1
1
1
1
1
1
1
1
1
1
1
1
1
1
1
1
1
1
1
1
1
1
1
1
1
1
1
1
1
1
1
1
1
1
1
1
1
1
1
1
1
1.00898
3.91402
8.9865
9.41478
9.44682
9.46929
9.46813
9.4599
9.45161
9.44403
9.42862
9.40644
9.38034
9.35149
9.32132
9.28682
9.25174
9.21654
9.17328
9.12103
9.06056
8.98881
8.90947
8.82047
8.72433
8.62249
8.51312
8.39377
8.26145
8.11937
7.96436
7.80104
7.6099
7.41276
7.18802
6.95136
6.69497
6.43316
6.17294
5.88243
5.59575
1
1
1
1
1
1
1
1
1
1
1
1
1
1
1
1
1
1
1
1
1
1
1
1
1
1
1
1
1
1
1
1
1
1
1
1
1
1
1
1
1
1
1
1
1
1
1
1
1
1
1
1
1
1
1
1
1.22392
6.27648
9.33202
9.38601
9.38914
9.37606
9.3677
9.35592
9.34803
9.33425
9.31404
9.28858
9.25752
9.22193
9.1805
9.13722
9.09682
9.04862
8.99185
8.92957
8.85784
8.77929
8.6909
8.59456
8.49162
8.3822
8.2633
8.13198
7.99521
7.84051
7.68147
7.499
7.31895
7.11459
6.89909
6.67196
6.44334
6.1907
5.92657
5.67693
1
1
1
1
1
1
1
1
1
1
1
1
1
1
1
1
1
1
1
1
1
1
1
1
1
1
1
1
1
1
1
1
1
1
1
1
1
1
1
1
1
1
1
1
1
1
1
1
1
1
1
1
1
1
1
1
1.00153
2.1827
8.00427
9.30742
9.25518
9.26847
9.26526
9.25654
9.24823
9.23472
9.21455
9.19035
9.15971
9.12162
9.07651
9.02714
8.98053
8.92834
8.8678
8.80259
8.73183
8.65424
8.5681
8.47268
8.3706
8.26334
8.14485
8.01789
7.8853
7.73317
7.57706
7.4071
7.23808
7.04769
6.85585
6.6558
6.44109
6.20239
5.97903
5.75316
1
1
1
1
1
1
1
1
1
1
1
1
1
1
1
1
1
1
1
1
1
1
1
1
1
1
1
1
1
1
1
1
1
1
1
1
1
1
1
1
1
1
1
1
1
1
1
1
1
1
1
1
1
1
1
1
1
1.03977
4.1749
8.88143
9.15551
9.17581
9.18529
9.17862
9.16973
9.15014
9.12251
9.09402
9.06192
9.02198
8.97651
8.92621
8.87479
8.82188
8.75842
8.69053
8.61927
8.54312
8.45832
8.36412
8.26387
8.15905
8.04337
7.91748
7.78447
7.64156
7.4914
7.33596
7.17321
6.99768
6.82475
6.63572
6.43089
6.22382
6.02965
5.81515
1
1
1
1
1
1
1
1
1
1
1
1
1
1
1
1
1
1
1
1
1
1
1
1
1
1
1
1
1
1
1
1
1
1
1
1
1
1
1
1
1
1
1
1
1
1
1
1
1
1
1
1
1
1
1
1
1
1.00008
1.25804
5.72162
8.98763
9.146
9.14042
9.13381
9.11911
9.08856
9.04979
9.00993
8.97098
8.92803
8.88234
8.83202
8.77861
8.72661
8.66338
8.59386
8.52032
8.44358
8.35832
8.26422
8.16664
8.06238
7.948
7.82611
7.69744
7.56325
7.42096
7.27683
7.12185
6.96292
6.79974
6.61804
6.43401
6.25502
6.07344
5.87179
1
1
1
1
1
1
1
1
1
1
1
1
1
1
1
1
1
1
1
1
1
1
1
1
1
1
1
1
1
1
1
1
1
1
1
1
1
1
1
1
1
1
1
1
1
1
1
1
1
1
1
1
1
1
1
1
1
1
1.0021
1.62652
7.24268
9.15808
9.09641
9.06639
9.02892
8.9896
8.94884
8.90907
8.86888
8.82934
8.78714
8.73814
8.68543
8.63393
8.5724
8.50314
8.42855
8.35102
8.26676
8.17401
8.07863
7.97735
7.86689
7.7506
7.62739
7.50058
7.36731
7.23045
7.08592
6.94022
6.7836
6.61734
6.45645
6.29533
6.12479
5.94277
1
1
1
1
1
1
1
1
1
1
1
1
1
1
1
1
1
1
1
1
1
1
1
1
1
1
1
1
1
1
1
1
1
1
1
1
1
1
1
1
1
1
1
1
1
1
1
1
1
1
1
1
1
1
1
1
1
1
1
1.01129
3.04895
8.30929
8.95305
8.89209
8.86796
8.84657
8.8243
8.79688
8.76428
8.72741
8.6905
8.64414
8.59473
8.54483
8.48504
8.41813
8.34445
8.26576
8.17965
8.09157
7.99916
7.90009
7.79593
7.68656
7.57104
7.45254
7.32839
7.1972
7.06156
6.92634
6.7813
6.63838
6.49983
6.35421
6.19757
6.03931
1
1
1
1
1
1
1
1
1
1
1
1
1
1
1
1
1
1
1
1
1
1
1
1
1
1
1
1
1
1
1
1
1
1
1
1
1
1
1
1
1
1
1
1
1
1
1
1
1
1
1
1
1
1
1
1
1
1
1
1.00002
1.11017
4.37
8.59887
8.7928
8.76797
8.77084
8.75822
8.73554
8.70397
8.66507
8.62503
8.57694
8.52594
8.47214
8.4102
8.34206
8.26856
8.18949
8.1052
8.01642
7.92769
7.83504
7.73828
7.63629
7.52874
7.41751
7.30042
7.17767
7.0548
6.93351
6.80839
6.69062
6.57034
6.43946
6.30095
6.1651
1
1
1
1
1
1
1
1
1
1
1
1
1
1
1
1
1
1
1
1
1
1
1
1
1
1
1
1
1
1
1
1
1
1
1
1
1
1
1
1
1
1
1
1
1
1
1
1
1
1
1
1
1
1
1
1
1
1
1
1
1.00052
1.29615
5.19564
8.58967
8.71652
8.71724
8.70738
8.68318
8.65066
8.61048
8.56561
8.51347
8.45832
8.39925
8.33517
8.26652
8.19352
8.11632
8.03498
7.94942
7.86373
7.77938
7.69053
7.59561
7.49697
7.39476
7.28842
7.18362
7.08424
6.98228
6.87609
6.77955
6.67309
6.55356
6.43074
6.31011
1
1
1
1
1
1
1
1
1
1
1
1
1
1
1
1
1
1
1
1
1
1
1
1
1
1
1
1
1
1
1
1
1
1
1
1
1
1
1
1
1
1
1
1
1
1
1
1
1
1
1
1
1
1
1
1
1
1
1
1
1
1.00286
1.49282
5.87736
8.58947
8.69033
8.66168
8.63234
8.59626
8.5537
8.5074
8.45637
8.39951
8.33706
8.27051
8.20064
8.12749
8.05171
7.97477
7.89589
7.81507
7.7365
7.65452
7.56953
7.48588
7.40225
7.31944
7.2403
7.16031
7.07406
6.98376
6.89951
6.79597
6.68197
6.57084
6.45918
1
1
1
1
1
1
1
1
1
1
1
1
1
1
1
1
1
1
1
1
1
1
1
1
1
1
1
1
1
1
1
1
1
1
1
1
1
1
1
1
1
1
1
1
1
1
1
1
1
1
1
1
1
1
1
1
1
1
1
1
1
1
1.00727
1.72115
6.45892
8.56353
8.61045
8.58147
8.53906
8.49576
8.44813
8.39614
8.33772
8.27391
8.20686
8.13732
8.06606
7.99398
7.9223
7.84991
7.77812
7.7102
7.64489
7.5829
7.52431
7.46403
7.40294
7.34146
7.27203
7.19307
7.11146
7.02751
6.91999
6.81161
6.711
6.60445
1
1
1
1
1
1
1
1
1
1
1
1
1
1
1
1
1
1
1
1
1
1
1
1
1
1
1
1
1
1
1
1
1
1
1
1
1
1
1
1
1
1
1
1
1
1
1
1
1
1
1
1
1
1
1
1
1
1
1
1
1
1
1.00001
1.01471
1.98366
6.89493
8.53271
8.54058
8.50094
8.44914
8.39787
8.34199
8.28015
8.21562
8.14867
8.0813
8.01311
7.94648
7.88066
7.81992
7.76951
7.72648
7.68925
7.65476
7.61679
7.57017
7.52175
7.46573
7.39523
7.31872
7.2403
7.15111
7.04228
6.94411
6.8522
6.74759
1
1
1
1
1
1
1
1
1
1
1
1
1
1
1
1
1
1
1
1
1
1
1
1
1
1
1
1
1
1
1
1
1
1
1
1
1
1
1
1
1
1
1
1
1
1
1
1
1
1
1
1
1
1
1
1
1
1
1
1
1
1
1
1.00003
1.02647
2.24339
7.27612
8.49511
8.45413
8.40444
8.34164
8.28271
8.21922
8.1538
8.08838
8.02583
7.96522
7.90779
7.86045
7.83022
7.81416
7.80403
7.79108
7.77441
7.74541
7.70327
7.65823
7.59822
7.52237
7.44706
7.36717
7.27185
7.16759
7.08102
6.99229
6.88894
1
1
1
1
1
1
1
1
1
1
1
1
1
1
1
1
1
1
1
1
1
1
1
1
1
1
1
1
1
1
1
1
1
1
1
1
1
1
1
1
1
1
1
1
1
1
1
1
1
1
1
1
1
1
1
1
1
1
1
1
1
1
1
1
1.00008
1.04166
2.63056
7.51073
8.38372
8.32897
8.28462
8.22277
8.15801
8.09407
8.03396
7.97833
7.93525
7.91167
7.9072
7.91946
7.93655
7.94796
7.94767
7.93312
7.89565
7.8478
7.79679
7.7257
7.64594
7.57356
7.49168
7.39514
7.30262
7.22437
7.13393
7.03388
1
1
1
1
1
1
1
1
1
1
1
1
1
1
1
1
1
1
1
1
1
1
1
1
1
1
1
1
1
1
1
1
1
1
1
1
1
1
1
1
1
1
1
1
1
1
1
1
1
1
1
1
1
1
1
1
1
1
1
1
1
1
1
1
1
1.00015
1.07042
2.9164
7.56098
8.26686
8.21262
8.15424
8.09477
8.03959
7.99309
7.96965
7.96491
7.99133
8.04286
8.08857
8.12179
8.13765
8.12698
8.09441
8.04208
7.98607
7.92564
7.84504
7.767
7.69841
7.6148
7.52262
7.44374
7.36872
7.2767
7.18348
1
1
1
1
1
1
1
1
1
1
1
1
1
1
1
1
1
1
1
1
1
1
1
1
1
1
1
1
1
1
1
1
1
1
1
1
1
1
1
1
1
1
1
1
1
1
1
1
1
1
1
1
1
1
1
1
1
1
1
1
1
1
1
1
1
1
1.00033
1.09808
3.01324
7.48585
8.15307
8.0979
8.04364
8.00656
7.98789
8.0114
8.08663
8.17464
8.25933
8.31169
8.33784
8.33053
8.29518
8.24317
8.18118
8.12254
8.05564
7.97218
7.90031
7.83323
7.74728
7.66061
7.58947
7.51309
7.42106
7.33503
1
1
1
1
1
1
1
1
1
1
1
1
1
1
1
1
1
1
1
1
1
1
1
1
1
1
1
1
1
1
1
1
1
1
1
1
1
1
1
1
1
1
1
1
1
1
1
1
1
1
1
1
1
1
1
1
1
1
1
1
1
1
1
1
1
1
1
1.00056
1.11048
2.95391
7.35293
8.05371
8.01702
8.01912
8.0747
8.18463
8.32869
8.44232
8.51813
8.55124
8.54731
8.51067
8.4565
8.38927
8.31955
8.25613
8.18359
8.10128
8.03545
7.96882
7.8836
7.8053
7.73831
7.66076
7.57095
7.48967
1
1
1
1
1
1
1
1
1
1
1
1
1
1
1
1
1
1
1
1
1
1
1
1
1
1
1
1
1
1
1
1
1
1
1
1
1
1
1
1
1
1
1
1
1
1
1
1
1
1
1
1
1
1
1
1
1
1
1
1
1
1
1
1
1
1
1
1
1.00069
1.1058
2.86875
7.14921
8.02023
8.13221
8.29152
8.51177
8.66298
8.73459
8.76087
8.74652
8.70996
8.65869
8.59403
8.52368
8.46153
8.4023
8.329
8.2488
8.1833
8.11234
8.02669
7.95357
7.88616
7.80695
7.72157
7.64478
1
1
1
1
1
1
1
1
1
1
1
1
1
1
1
1
1
1
1
1
1
1
1
1
1
1
1
1
1
1
1
1
1
1
1
1
1
1
1
1
1
1
1
1
1
1
1
1
1
1
1
1
1
1
1
1
1
1
1
1
1
1
1
1
1
1
1
1
1
1.00065
1.09688
2.70884
7.12568
8.41555
8.73063
8.88999
8.96988
8.98789
8.9563
8.90404
8.85171
8.79117
8.71799
8.6511
8.60054
8.542
8.46331
8.39079
8.33488
8.2671
8.18453
8.11236
8.04096
7.95852
7.87679
7.80124
1
1
1
1
1
1
1
1
1
1
1
1
1
1
1
1
1
1
1
1
1
1
1
1
1
1
1
1
1
1
1
1
1
1
1
1
1
1
1
1
1
1
1
1
1
1
1
1
1
1
1
1
1
1
1
1
1
1
1
1
1
1
1
1
1
1
1
1
1
1
1.00059
1.08045
2.92549
8.08618
9.232
9.21094
9.1834
9.15877
9.10903
9.04984
8.99355
8.93001
8.86235
8.803
8.7526
8.68364
8.59641
8.53113
8.4822
8.41274
8.32716
8.25797
8.19065
8.11168
8.03403
7.95928
1
1
1
1
1
1
1
1
1
1
1
1
1
1
1
1
1
1
1
1
1
1
1
1
1
1
1
1
1
1
1
1
1
1
1
1
1
1
1
1
1
1
1
1
1
1
1
1
1
1
1
1
1
1
1
1
1
1
1
1
1
1
1
1
1
1
1
1
1
1
1
1.00045
1.10284
5.04879
9.40407
9.44051
9.387
9.33779
9.26774
9.19155
9.12319
9.05789
8.99355
8.93859
8.88882
8.82312
8.74771
8.68986
8.63923
8.56293
8.47284
8.40406
8.34133
8.26165
8.17942
8.10539
1
1
1
1
1
1
1
1
1
1
1
1
1
1
1
1
1
1
1
1
1
1
1
1
1
1
1
1
1
1
1
1
1
1
1
1
1
1
1
1
1
1
1
1
1
1
1
1
1
1
1
1
1
1
1
1
1
1
1
1
1
1
1
1
1
1
1
1
1
1
1
1
1.00043
1.60262
7.70787
9.74642
9.54246
9.44593
9.36664
9.30245
9.24933
9.19712
9.13292
9.07605
9.02567
8.95957
8.88814
8.82929
8.77195
8.69668
8.61777
8.5548
8.4957
8.41539
8.33157
8.26035
1
1
1
1
1
1
1
1
1
1
1
1
1
1
1
1
1
1
1
1
1
1
1
1
1
1
1
1
1
1
1
1
1
1
1
1
1
1
1
1
1
1
1
1
1
1
1
1
1
1
1
1
1
1
1
1
1
1
1
1
1
1
1
1
1
1
1
1
1
1
1
1
1
1.00979
4.07053
9.14398
9.52387
9.4938
9.46701
9.43461
9.3852
9.32734
9.26582
9.21637
9.16913
9.10422
9.03332
8.97096
8.90986
8.83688
8.76199
8.69684
8.63141
8.55081
8.4744
8.40771
1
1
1
1
1
1
1
1
1
1
1
1
1
1
1
1
1
1
1
1
1
1
1
1
1
1
1
1
1
1
1
1
1
1
1
1
1
1
1
1
1
1
1
1
1
1
1
1
1
1
1
1
1
1
1
1
1
1
1
1
1
1
1
1
1
1
1
1
1
1
1
1
1
1.00001
1.23907
7.30631
9.74765
9.70876
9.6466
9.58045
9.51854
9.46071
9.40691
9.35477
9.29274
9.2246
9.15806
9.09858
9.03945
8.97021
8.89676
8.82967
8.76358
8.68925
8.61859
8.55047
1
1
1
1
1
1
1
1
1
1
1
1
1
1
1
1
1
1
1
1
1
1
1
1
1
1
1
1
1
1
1
1
1
1
1
1
1
1
1
1
1
1
1
1
1
1
1
1
1
1
1
1
1
1
1
1
1
1
1
1
1
1
1
1
1
1
1
1
1
1
1
1
1
1
1.00168
3.8502
9.17392
9.6847
9.64738
9.60758
9.56907
9.52852
9.48505
9.43831
9.38426
9.32718
9.27104
9.21158
9.1464
9.07748
9.00975
8.95007
8.8917
8.82695
8.75976
8.69078
1
1
1
1
1
1
1
1
1
1
1
1
1
1
1
1
1
1
1
1
1
1
1
1
1
1
1
1
1
1
1
1
1
1
1
1
1
1
1
1
1
1
1
1
1
1
1
1
1
1
1
1
1
1
1
1
1
1
1
1
1
1
1
1
1
1
1
1
1
1
1
1
1
1
0.999999
1.29656
7.48897
9.87743
9.77553
9.7137
9.67174
9.63086
9.58497
9.5332
9.47919
9.42514
9.37027
9.31248
9.25314
9.19363
9.1375
9.08074
9.01731
8.95038
8.88244
8.81658
1
1
1
1
1
1
1
1
1
1
1
1
1
1
1
1
1
1
1
1
1
1
1
1
1
1
1
1
1
1
1
1
1
1
1
1
1
1
1
1
1
1
1
1
1
1
1
1
1
1
1
1
1
1
1
1
1
1
1
1
1
1
1
1
1
1
1
1
1
1
1
1
1
1
1
1.00251
4.46813
9.47665
9.78719
9.75191
9.71745
9.67581
9.63096
9.58351
9.53547
9.48691
9.43723
9.38622
9.33427
9.28195
9.22991
9.17541
9.11593
9.05526
8.99261
8.93136
1
1
1
1
1
1
1
1
1
1
1
1
1
1
1
1
1
1
1
1
1
1
1
1
1
1
1
1
1
1
1
1
1
1
1
1
1
1
1
1
1
1
1
1
1
1
1
1
1
1
1
1
1
1
1
1
1
1
1
1
1
1
1
1
1
1
1
1
1
1
1
1
1
1
1
0.999999
1.83522
8.2531
9.95134
9.85883
9.80559
9.75407
9.70569
9.66003
9.61579
9.57121
9.52584
9.47937
9.43056
9.37975
9.32487
9.26669
9.20918
9.15167
9.09321
9.0345
1
1
1
1
1
1
1
1
1
1
1
1
1
1
1
1
1
1
1
1
1
1
1
1
1
1
1
1
1
1
1
1
1
1
1
1
1
1
1
1
1
1
1
1
1
1
1
1
1
1
1
1
1
1
1
1
1
1
1
1
1
1
1
1
1
1
1
1
1
1
1
1
1
1
1
1
1.02262
5.82707
9.86267
9.92414
9.86915
9.81585
9.76372
9.71693
9.67135
9.62554
9.57927
9.53226
9.4838
9.43422
9.38289
9.33012
9.27638
9.22171
9.16662
9.11022
1
1
1
1
1
1
1
1
1
1
1
1
1
1
1
1
1
1
1
1
1
1
1
1
1
1
1
1
1
1
1
1
1
1
1
1
1
1
1
1
1
1
1
1
1
1
1
1
1
1
1
1
1
1
1
1
1
1
1
1
1
1
1
1
1
1
1
1
1
1
1
1
1
1
1
1
1
3.02712
9.01312
9.95554
9.8962
9.86353
9.81837
9.77596
9.73164
9.68628
9.63997
9.59274
9.54445
9.49565
9.446
9.39607
9.34604
9.29461
9.24279
9.18934
1
1
1
1
1
1
1
1
1
1
1
1
1
1
1
1
1
1
1
1
1
1
1
1
1
1
1
1
1
1
1
1
1
1
1
1
1
1
1
1
1
1
1
1
1
1
1
1
1
1
1
1
1
1
1
1
1
1
1
1
1
1
1
1
1
1
1
1
1
1
1
1
1
1
1
1
0.999999
1.27185
7.51042
10.1104
9.99539
9.92536
9.87646
9.83358
9.78942
9.74369
9.6966
9.64854
9.59973
9.55045
9.50078
9.45079
9.40077
9.34949
9.29807
9.24538
1
1
1
1
1
1
1
1
1
1
1
1
1
1
1
1
1
1
1
1
1
1
1
1
1
1
1
1
1
1
1
1
1
1
1
1
1
1
1
1
1
1
1
1
1
1
1
1
1
1
1
1
1
1
1
1
1
1
1
1
1
1
1
1
1
1
1
1
1
1
1
1
1
1
1
1
1
1.00233
5.28703
9.8285
9.97458
9.95294
9.9218
9.87689
9.83175
9.78592
9.73945
9.69241
9.64493
9.59701
9.54881
9.50006
9.45116
9.40115
9.35093
9.29971
1
1
1
1
1
1
1
1
1
1
1
1
1
1
1
1
1
1
1
1
1
1
1
1
1
1
1
1
1
1
1
1
1
1
1
1
1
1
1
1
1
1
1
1
1
1
1
1
1
1
1
1
1
1
1
1
1
1
1
1
1
1
1
1
1
1
1
1
1
1
1
1
1
1
1
1
1
0.999998
2.98625
9.09876
10.0844
10.0272
9.98819
9.9382
9.89162
9.8451
9.79866
9.75165
9.70442
9.65676
9.60865
9.55989
9.5108
9.46079
9.41051
9.35938
1
1
1
1
1
1
1
1
1
1
1
1
1
1
1
1
1
1
1
1
1
1
1
1
1
1
1
1
1
1
1
1
1
1
1
1
1
1
1
1
1
1
1
1
1
1
1
1
1
1
1
1
1
1
1
1
1
1
1
1
1
1
1
1
1
1
1
1
1
1
1
1
1
1
1
1
1
1
1.41883
7.75306
10.1907
10.0805
10.015
9.96708
9.92291
9.87865
9.83368
9.78818
9.74277
9.69685
9.65013
9.60268
9.55464
9.50572
9.45635
9.406
1
1
1
1
1
1
1
1
1
1
1
1
1
1
1
1
1
1
1
1
1
1
1
1
1
1
1
1
1
1
1
1
1
1
1
1
1
1
1
1
1
1
1
1
1
1
1
1
1
1
1
1
1
1
1
1
1
1
1
1
1
1
1
1
1
1
1
1
1
1
1
1
1
1
1
1
1
1
1.00667
5.97652
10.0643
10.1047
10.0568
10.0158
9.9683
9.92109
9.87389
9.82728
9.78132
9.73539
9.68884
9.64185
9.59436
9.5462
9.49763
9.44812
1
1
1
1
1
1
1
1
1
1
1
1
1
1
1
1
1
1
1
1
1
1
1
1
1
1
1
1
1
1
1
1
1
1
1
1
1
1
1
1
1
1
1
1
1
1
1
1
1
1
1
1
1
1
1
1
1
1
1
1
1
1
1
1
1
1
1
1
1
1
1
1
1
1
1
1
1
1
0.999996
4.04625
9.59732
10.0664
10.0297
10.0056
9.96923
9.93135
9.89202
9.85117
9.80858
9.7652
9.72066
9.67536
9.62932
9.58259
9.5354
9.48729
1
1
1
1
1
1
1
1
1
1
1
1
1
1
1
1
1
1
1
1
1
1
1
1
1
1
1
1
1
1
1
1
1
1
1
1
1
1
1
1
1
1
1
1
1
1
1
1
1
1
1
1
1
1
1
1
1
1
1
1
1
1
1
1
1
1
1
1
1
1
1
1
1
1
1
1
1
1
0.999999
2.41752
8.77097
10.2337
10.1526
10.1055
10.0552
10.0082
9.96222
9.91631
9.86967
9.82302
9.77605
9.72889
9.68145
9.63373
9.58577
9.53721
1
1
1
1
1
1
1
1
1
1
1
1
1
1
1
1
1
1
1
1
1
1
1
1
1
1
1
1
1
1
1
1
1
1
1
1
1
1
1
1
1
1
1
1
1
1
1
1
1
1
1
1
1
1
1
1
1
1
1
1
1
1
1
1
1
1
1
1
1
1
1
1
1
1
1
1
1
1
1
1.30167
7.55127
10.2927
10.1816
10.1168
10.0706
10.028
9.98502
9.94154
9.89745
9.85268
9.80729
9.76136
9.71489
9.66798
9.62071
9.57289
1
1
1
1
1
1
1
1
1
1
1
1
1
1
1
1
1
1
1
1
1
1
1
1
1
1
1
1
1
1
1
1
1
1
1
1
1
1
1
1
1
1
1
1
1
1
1
1
1
1
1
1
1
1
1
1
1
1
1
1
1
1
1
1
1
1
1
1
1
1
1
1
1
1
1
1
1
1
1
1.00395
6.17573
10.1842
10.1952
10.1393
10.0984
10.054
10.0096
9.96553
9.92189
9.87778
9.83332
9.78842
9.74294
9.69688
9.65039
9.60345
1
1
1
1
1
1
1
1
1
1
1
1
1
1
1
1
1
1
1
1
1
1
1
1
1
1
1
1
1
1
1
1
1
1
1
1
1
1
1
1
1
1
1
1
1
1
1
1
1
1
1
1
1
1
1
1
1
1
1
1
1
1
1
1
1
1
1
1
1
1
1
1
1
1
1
1
1
1
1
1
4.74055
9.90476
10.1847
10.139
10.11
10.0714
10.0321
9.99094
9.94853
9.90497
9.86091
9.81647
9.77144
9.72578
9.67977
9.63344
1
1
1
1
1
1
1
1
1
1
1
1
1
1
1
1
1
1
1
1
1
1
1
1
1
1
1
1
1
1
1
1
1
1
1
1
1
1
1
1
1
1
1
1
1
1
1
1
1
1
1
1
1
1
1
1
1
1
1
1
1
1
1
1
1
1
1
1
1
1
1
1
1
1
1
1
1
1
1
1
3.42262
9.44434
10.2282
10.1697
10.1412
10.1022
10.0629
10.0214
9.9786
9.93459
9.88999
9.84525
9.80024
9.75487
9.70937
9.66367
1
1
1
1
1
1
1
1
1
1
1
1
1
1
1
1
1
1
1
1
1
1
1
1
1
1
1
1
1
1
1
1
1
1
1
1
1
1
1
1
1
1
1
1
1
1
1
1
1
1
1
1
1
1
1
1
1
1
1
1
1
1
1
1
1
1
1
1
1
1
1
1
1
1
1
1
1
1
1
1
2.33593
8.85284
10.2861
10.2096
10.1733
10.1308
10.0888
10.0454
10.0014
9.95686
9.91183
9.86688
9.82204
9.77726
9.73222
9.68689
1
1
1
1
1
1
1
1
1
1
1
1
1
1
1
1
1
1
1
1
1
1
1
1
1
1
1
1
1
1
1
1
1
1
1
1
1
1
1
1
1
1
1
1
1
1
1
1
1
1
1
1
1
1
1
1
1
1
1
1
1
1
1
1
1
1
1
1
1
1
1
1
1
1
1
1
1
1
1
1
1.54805
7.98578
10.3406
10.2488
10.1991
10.1524
10.1078
10.064
10.0204
9.97706
9.93342
9.8899
9.8462
9.80234
9.75789
9.71291
1
1
1
1
1
1
1
1
1
1
1
1
1
1
1
1
1
1
1
1
1
1
1
1
1
1
1
1
1
1
1
1
1
1
1
1
1
1
1
1
1
1
1
1
1
1
1
1
1
1
1
1
1
1
1
1
1
1
1
1
1
1
1
1
1
1
1
1
1
1
1
1
1
1
1
1
1
1
1
1
1.12608
7.10875
10.3499
10.2779
10.2197
10.1694
10.1229
10.0785
10.0352
9.99265
9.94968
9.90666
9.86353
9.82032
9.7762
9.73143
1
1
1
1
1
1
1
1
1
1
1
1
1
1
1
1
1
1
1
1
1
1
1
1
1
1
1
1
1
1
1
1
1
1
1
1
1
1
1
1
1
1
1
1
1
1
1
1
1
1
1
1
1
1
1
1
1
1
1
1
1
1
1
1
1
1
1
1
1
1
1
1
1
1
1
1
1
1
1
1
1.00149
6.19637
10.2288
10.2637
10.208
10.1709
10.1304
10.0904
10.05
10.0091
9.96717
9.92457
9.88183
9.83879
9.79471
9.75005
1
1
1
1
1
1
1
1
1
1
1
1
1
1
1
1
1
1
1
1
1
1
1
1
1
1
1
1
1
1
1
1
1
1
1
1
1
1
1
1
1
1
1
1
1
1
1
1
1
1
1
1
1
1
1
1
1
1
1
1
1
1
1
1
1
1
1
1
1
1
1
1
1
1
1
1
1
1
1
1
1
5.28366
10.0857
10.2605
10.2077
10.178
10.1405
10.1027
10.0633
10.0228
9.98175
9.93965
9.89756
9.85479
9.81122
9.76692
1
1
1
1
1
1
1
1
1
1
1
1
1
1
1
1
1
1
1
1
1
1
1
1
1
1
1
1
1
1
1
1
1
1
1
1
1
1
1
1
1
1
1
1
1
1
1
1
1
1
1
1
1
1
1
1
1
1
1
1
1
1
1
1
1
1
1
1
1
1
1
1
1
1
1
1
1
1
1
1
1
4.45206
9.91174
10.2844
10.2263
10.1974
10.1604
10.1232
10.0843
10.0441
10.0036
9.96171
9.91991
9.87688
9.83346
9.7892
1
1
1
1
1
1
1
1
1
1
1
1
1
1
1
1
1
1
1
1
1
1
1
1
1
1
1
1
1
1
1
1
1
1
1
1
1
1
1
1
1
1
1
1
1
1
1
1
1
1
1
1
1
1
1
1
1
1
1
1
1
1
1
1
1
1
1
1
1
1
1
1
1
1
1
1
1
1
1
1
1
3.75355
9.69072
10.3134
10.2416
10.2088
10.1703
10.1325
10.0936
10.0535
10.0135
9.97188
9.93045
9.88765
9.8448
9.80096
1
1
1
1
1
1
1
1
1
1
1
1
1
1
1
1
1
1
1
1
1
1
1
1
1
1
1
1
1
1
1
1
1
1
1
1
1
1
1
1
1
1
1
1
1
1
1
1
1
1
1
1
1
1
1
1
1
1
1
1
1
1
1
1
1
1
1
1
1
1
1
1
1
1
1
1
1
1
1
1
1
3.16522
9.47399
10.3378
10.2582
10.223
10.183
10.1441
10.1045
10.0641
10.0238
9.98231
9.94082
9.89808
9.85543
9.81179
1
1
1
1
1
1
1
1
1
1
1
1
1
1
1
1
1
1
1
1
1
1
1
1
1
1
1
1
1
1
1
1
1
1
1
1
1
1
1
1
1
1
1
1
1
1
1
1
1
1
1
1
1
1
1
1
1
1
1
1
1
1
1
1
1
1
1
1
1
1
1
1
1
1
1
1
1
1
1
1
1
2.69817
9.25492
10.3518
10.2704
10.2342
10.1934
10.1539
10.1139
10.0734
10.0328
9.99167
9.94998
9.90741
9.86479
9.82133
1
1
1
1
1
1
1
1
1
1
1
1
1
1
1
1
1
1
1
1
1
1
1
1
1
1
1
1
1
1
1
1
1
1
1
1
1
1
1
1
1
1
1
1
1
1
1
1
1
1
1
1
1
1
1
1
1
1
1
1
1
1
1
1
1
1
1
1
1
1
1
1
1
1
1
1
1
1
1
1
1
2.35899
9.02349
10.3619
10.28
10.2433
10.2021
10.1625
10.1221
10.0816
10.0406
9.99969
9.95779
9.91537
9.87264
9.82934
1
1
1
1
1
1
1
1
1
1
1
1
1
1
1
1
1
1
1
1
1
1
1
1
1
1
1
1
1
1
1
1
1
1
1
1
1
1
1
1
1
1
1
1
1
1
1
1
1
1
1
1
1
1
1
1
1
1
1
1
1
1
1
1
1
1
1
1
1
1
1
1
1
1
1
1
1
1
1
1
1
2.12521
8.81416
10.3647
10.2854
10.2492
10.2082
10.1687
10.1285
10.0881
10.0469
10.0062
9.96431
9.9221
9.87926
9.83615
1
1
1
1
1
1
1
1
1
1
1
1
1
1
1
1
1
1
1
1
1
1
1
1
1
1
1
1
1
1
1
1
1
1
1
1
1
1
1
1
1
1
1
1
1
1
1
1
1
1
1
1
1
1
1
1
1
1
1
1
1
1
1
1
1
1
1
1
1
1
1
1
1
1
1
1
1
1
1
1
1
1.96773
8.64495
10.3636
10.2877
10.2519
10.2114
10.1724
10.1326
10.0926
10.0516
10.0111
9.96956
9.9276
9.88477