/*--------------------------------*- C++ -*----------------------------------*\
  =========                 |
  \\      /  F ield         | OpenFOAM: The Open Source CFD Toolbox
   \\    /   O peration     | Website:  https://openfoam.org
    \\  /    A nd           | Version:  7
     \\/     M anipulation  |
\*---------------------------------------------------------------------------*/
FoamFile
{
    version     2.0;
    format      ascii;
    class       volVectorField;
    location    "9.8";
    object      U;
}
// * * * * * * * * * * * * * * * * * * * * * * * * * * * * * * * * * * * * * //

dimensions      [0 1 -1 0 0 0 0];

internalField   nonuniform List<vector> 
19968
(
(3 7.36194e-17 0)
(3 -1.75775e-16 0)
(3 1.56941e-17 0)
(3 6.17684e-17 0)
(3 1.53394e-17 0)
(3 8.81281e-17 0)
(3 -1.28578e-17 0)
(3 -2.85906e-16 0)
(3 1.9941e-16 0)
(3 5.97552e-16 0)
(3 7.05389e-16 0)
(3 3.45578e-16 0)
(3 3.83359e-16 0)
(3 6.55085e-16 0)
(3 5.7532e-16 0)
(3 7.7307e-16 0)
(3 9.8007e-16 0)
(3 4.54248e-16 0)
(3 1.04329e-16 0)
(3 4.84259e-17 0)
(3 -4.15763e-16 0)
(3 -6.05495e-17 0)
(3 7.82734e-16 0)
(3 8.08016e-16 0)
(3 1.42736e-15 0)
(3 2.54822e-15 0)
(3 2.83354e-15 0)
(3 2.08809e-15 0)
(3 1.75168e-15 0)
(3 1.46209e-15 0)
(3 1.24123e-15 0)
(3 1.39854e-15 0)
(3 1.7055e-15 0)
(3 2.45977e-15 0)
(3 3.03021e-15 0)
(3 2.38181e-15 0)
(3 4.36531e-16 0)
(3 -4.39348e-16 0)
(3 -1.03605e-15 0)
(3 -1.3174e-15 0)
(3 -1.43756e-15 0)
(3 -1.51263e-15 0)
(3 -1.61035e-15 0)
(3 -9.39125e-16 0)
(3 -4.49871e-16 0)
(3 -3.21399e-16 0)
(3 3.61199e-16 0)
(3 3.74674e-16 0)
(2.78944 0.00248944 0)
(0.965201 0.00758923 0)
(0.757579 0.00636384 0)
(0.744245 0.0071026 0)
(0.729633 0.00757122 0)
(0.715414 0.00858205 0)
(0.699546 0.00980289 0)
(0.682483 0.0105304 0)
(0.665389 0.00988677 0)
(0.649749 0.00853642 0)
(0.635517 0.00787391 0)
(0.621635 0.00819441 0)
(0.607065 0.00904583 0)
(0.591562 0.00965966 0)
(0.57592 0.00950509 0)
(0.560837 0.00916584 0)
(0.545903 0.00932744 0)
(0.530442 0.00967341 0)
(0.514538 0.00973571 0)
(0.498654 0.00965771 0)
(0.482941 0.00975443 0)
(0.467328 0.0100064 0)
(0.451791 0.0102237 0)
(0.436338 0.0103235 0)
(0.420828 0.0103834 0)
(0.40501 0.0104852 0)
(0.388757 0.0106149 0)
(0.372206 0.0107295 0)
(0.355627 0.0108218 0)
(0.339196 0.0109087 0)
(0.322889 0.0110056 0)
(0.306526 0.0111196 0)
(0.289885 0.0112471 0)
(0.272847 0.0113782 0)
(0.255447 0.0115098 0)
(0.237847 0.011648 0)
(0.220233 0.0117984 0)
(0.202726 0.0119632 0)
(0.185345 0.0121452 0)
(0.167991 0.01235 0)
(0.150472 0.0125845 0)
(0.132575 0.0128491 0)
(0.114114 0.0131429 0)
(0.094948 0.0134491 0)
(0.0750026 0.0137881 0)
(0.0542658 0.0141583 0)
(0.0329175 0.0144056 0)
(0.0113411 0.0148036 0)
(3 1.6005e-16 0)
(3 4.57917e-16 0)
(3 7.03253e-16 0)
(3 1.01753e-15 0)
(3 6.82508e-16 0)
(3 7.30804e-16 0)
(3 7.34856e-16 0)
(3 8.3103e-16 0)
(3 8.48562e-16 0)
(3 4.54458e-16 0)
(3 3.91489e-17 0)
(3 -9.80618e-18 0)
(3 7.26869e-16 0)
(3 1.24801e-15 0)
(3 1.32494e-15 0)
(3 1.16521e-15 0)
(3 1.32759e-15 0)
(3 1.17012e-15 0)
(3 1.23463e-16 0)
(3 -5.39599e-16 0)
(3 -1.49285e-15 0)
(3 -1.90175e-15 0)
(3 -6.92874e-16 0)
(3 4.98158e-16 0)
(3 2.14149e-15 0)
(3 4.11661e-15 0)
(3 3.92254e-15 0)
(3 2.45642e-15 0)
(3 1.54382e-15 0)
(3 7.86547e-16 0)
(3 1.1294e-15 0)
(3 1.31505e-15 0)
(3 1.44542e-15 0)
(3 1.54507e-15 0)
(3 2.56558e-15 0)
(3 1.90512e-15 0)
(3 -1.01416e-15 0)
(3 -1.75942e-15 0)
(3 -1.90257e-15 0)
(3 -1.82701e-15 0)
(3 -1.62073e-15 0)
(3 -1.1212e-15 0)
(3 -1.03949e-15 0)
(3 -1.27761e-15 0)
(3 -1.17167e-15 0)
(3 -8.17375e-16 0)
(3 1.05398e-16 0)
(3 1.08025e-15 0)
(2.80479 0.0134687 0)
(0.970591 0.0317902 0)
(0.754695 0.0277775 0)
(0.739351 0.0207388 0)
(0.72458 0.0216979 0)
(0.710319 0.0244931 0)
(0.694962 0.028135 0)
(0.678684 0.0303023 0)
(0.662424 0.0292172 0)
(0.647134 0.0262628 0)
(0.632536 0.0244733 0)
(0.618211 0.0251023 0)
(0.603543 0.027342 0)
(0.58811 0.0290407 0)
(0.572611 0.0286963 0)
(0.557569 0.0278625 0)
(0.542581 0.0283594 0)
(0.527089 0.0293701 0)
(0.511137 0.0295683 0)
(0.495181 0.0293563 0)
(0.479389 0.0296134 0)
(0.463746 0.030305 0)
(0.448213 0.0309233 0)
(0.432745 0.0312601 0)
(0.41716 0.031507 0)
(0.401227 0.0318561 0)
(0.38487 0.0322726 0)
(0.368253 0.0326528 0)
(0.351639 0.0329763 0)
(0.335187 0.0332745 0)
(0.31886 0.0335788 0)
(0.302471 0.0339114 0)
(0.285799 0.0342708 0)
(0.268725 0.0346335 0)
(0.251295 0.0349942 0)
(0.233687 0.0353764 0)
(0.216106 0.0358086 0)
(0.198688 0.0363111 0)
(0.18144 0.0368983 0)
(0.164235 0.037575 0)
(0.146866 0.0383359 0)
(0.129126 0.0391616 0)
(0.110859 0.0400428 0)
(0.0919606 0.0409431 0)
(0.072404 0.0419109 0)
(0.0522192 0.0429904 0)
(0.0315577 0.0437032 0)
(0.0108449 0.0447993 0)
(3 -1.23382e-16 0)
(3 1.09043e-16 0)
(3 7.90322e-17 0)
(3 4.90983e-17 0)
(3 2.50725e-16 0)
(3 4.77442e-16 0)
(3 6.27775e-16 0)
(3 3.83314e-16 0)
(3 -8.20663e-16 0)
(3 -9.37439e-16 0)
(3 -1.08179e-15 0)
(3 -9.45226e-17 0)
(3 2.53639e-16 0)
(3 2.81606e-16 0)
(3 1.72731e-16 0)
(3 -3.49964e-17 0)
(3 4.0349e-16 0)
(3 7.45318e-16 0)
(3 3.88319e-16 0)
(3 -3.88383e-16 0)
(3 -5.32027e-16 0)
(3 -1.00449e-15 0)
(3 -4.83793e-16 0)
(3 9.01072e-16 0)
(3 1.90213e-15 0)
(3 2.32011e-15 0)
(3 1.26844e-15 0)
(3 6.41858e-16 0)
(3 -6.46414e-17 0)
(3 -7.74133e-16 0)
(3 -8.43621e-16 0)
(3 -4.59666e-16 0)
(3 -6.71095e-16 0)
(3 -4.82207e-16 0)
(3 -3.42275e-16 0)
(3 -5.12114e-16 0)
(3 5.71949e-16 0)
(3 9.76727e-16 0)
(3 8.42369e-17 0)
(3 -9.8404e-16 0)
(3 -8.4173e-16 0)
(3 8.08501e-16 0)
(3 9.3906e-16 0)
(3 7.04148e-17 0)
(3 -8.9222e-16 0)
(3 -1.13232e-15 0)
(3 -2.94287e-16 0)
(3 1.96471e-16 0)
(2.84217 0.0211668 0)
(0.987584 0.0524479 0)
(0.760105 0.0484109 0)
(0.744147 0.0383381 0)
(0.727187 0.0389371 0)
(0.711967 0.0428038 0)
(0.696481 0.0477096 0)
(0.680516 0.0504921 0)
(0.664746 0.0489612 0)
(0.649602 0.0451626 0)
(0.634493 0.0428729 0)
(0.619463 0.0438448 0)
(0.604435 0.0471575 0)
(0.588836 0.0496697 0)
(0.573289 0.0491218 0)
(0.558142 0.0479028 0)
(0.543009 0.0487701 0)
(0.527442 0.0504396 0)
(0.511382 0.0508335 0)
(0.495277 0.0505681 0)
(0.4793 0.050997 0)
(0.463503 0.0520524 0)
(0.447843 0.0529775 0)
(0.432233 0.0535087 0)
(0.416457 0.0539462 0)
(0.4003 0.0545463 0)
(0.383727 0.0552412 0)
(0.366918 0.0558837 0)
(0.350133 0.056449 0)
(0.333519 0.0569733 0)
(0.317039 0.0574906 0)
(0.30051 0.0580365 0)
(0.283716 0.0586195 0)
(0.266543 0.0592108 0)
(0.249044 0.0598038 0)
(0.231415 0.0604338 0)
(0.213879 0.0611416 0)
(0.196569 0.0619521 0)
(0.179452 0.062883 0)
(0.162352 0.0639439 0)
(0.145033 0.0651333 0)
(0.127301 0.0664241 0)
(0.109038 0.0677988 0)
(0.0901897 0.0692022 0)
(0.0707891 0.0706799 0)
(0.0509194 0.0723547 0)
(0.0306732 0.0734169 0)
(0.0105141 0.0750996 0)
(3 -8.52985e-17 0)
(3 -3.97462e-16 0)
(3 -6.36796e-16 0)
(3 -9.06009e-16 0)
(3 -6.90948e-16 0)
(3 -1.72389e-16 0)
(3 1.66339e-16 0)
(3 1.27498e-16 0)
(3 1.14252e-16 0)
(3 -8.26921e-17 0)
(3 -2.74767e-16 0)
(3 -3.63492e-16 0)
(3 -3.61583e-16 0)
(3 -6.3659e-16 0)
(3 -8.78221e-16 0)
(3 -1.02303e-15 0)
(3 -1.01972e-15 0)
(3 -9.26094e-16 0)
(3 5.66813e-17 0)
(3 2.23485e-16 0)
(3 2.67606e-16 0)
(3 5.90035e-16 0)
(3 8.19606e-16 0)
(3 1.20919e-15 0)
(3 1.48725e-15 0)
(3 8.88513e-16 0)
(3 4.77299e-16 0)
(3 1.16094e-15 0)
(3 4.79961e-16 0)
(3 -5.62362e-16 0)
(3 -1.94193e-16 0)
(3 5.17422e-16 0)
(3 3.07098e-16 0)
(3 -2.39277e-16 0)
(3 -1.29592e-15 0)
(3 -2.11096e-16 0)
(3 1.24584e-15 0)
(3 1.16939e-15 0)
(3 2.63265e-16 0)
(3 -5.5255e-16 0)
(3 -1.92735e-16 0)
(3 1.44454e-16 0)
(3 5.53867e-16 0)
(3 1.40985e-15 0)
(3 1.29447e-15 0)
(3 6.79594e-16 0)
(3 7.24212e-16 0)
(3 2.22492e-16 0)
(2.8889 0.0247163 0)
(1.01018 0.0720518 0)
(0.760959 0.0679245 0)
(0.745539 0.0575773 0)
(0.72824 0.0577403 0)
(0.712819 0.0618093 0)
(0.697717 0.0672232 0)
(0.682467 0.0702024 0)
(0.667461 0.0686853 0)
(0.652694 0.0649653 0)
(0.637479 0.062794 0)
(0.622104 0.0641401 0)
(0.606951 0.0682206 0)
(0.591374 0.0713047 0)
(0.575877 0.070605 0)
(0.560669 0.0690809 0)
(0.545463 0.0702387 0)
(0.529959 0.0725165 0)
(0.513936 0.0732143 0)
(0.497807 0.0730545 0)
(0.48173 0.0737276 0)
(0.465807 0.0751178 0)
(0.449992 0.0763062 0)
(0.434174 0.0770512 0)
(0.418116 0.0777416 0)
(0.401624 0.0786375 0)
(0.384698 0.0796323 0)
(0.367525 0.0805635 0)
(0.350349 0.0814111 0)
(0.333308 0.0821998 0)
(0.316376 0.0829457 0)
(0.299391 0.0836899 0)
(0.282162 0.0844559 0)
(0.264587 0.0852169 0)
(0.24674 0.0859691 0)
(0.228846 0.0867649 0)
(0.211164 0.087664 0)
(0.193836 0.0887023 0)
(0.176808 0.0899085 0)
(0.159859 0.0913068 0)
(0.14272 0.0929068 0)
(0.125179 0.0946722 0)
(0.107117 0.0965645 0)
(0.0884936 0.0985099 0)
(0.0693666 0.100515 0)
(0.0498625 0.1028 0)
(0.029983 0.104196 0)
(0.0102909 0.106446 0)
(3 2.4614e-16 0)
(3 3.47307e-16 0)
(3 1.42993e-16 0)
(3 1.50383e-16 0)
(3 1.14751e-16 0)
(3 2.84964e-16 0)
(3 4.42479e-16 0)
(3 1.34405e-15 0)
(3 1.87303e-15 0)
(3 2.04178e-15 0)
(3 1.07811e-15 0)
(3 1.49423e-16 0)
(3 -2.30375e-16 0)
(3 -5.12112e-16 0)
(3 -5.53486e-16 0)
(3 -6.05942e-16 0)
(3 -7.23103e-16 0)
(3 -6.09724e-16 0)
(3 -1.92342e-16 0)
(3 -1.06908e-16 0)
(3 -3.45342e-16 0)
(3 -6.59154e-17 0)
(3 8.61826e-17 0)
(3 -7.89759e-17 0)
(3 -3.77353e-16 0)
(3 -6.2526e-16 0)
(3 -4.3791e-16 0)
(3 1.21876e-15 0)
(3 2.00834e-15 0)
(3 1.51953e-15 0)
(3 1.60199e-15 0)
(3 1.69954e-15 0)
(3 1.29528e-15 0)
(3 -7.90278e-19 0)
(3 -8.72012e-16 0)
(3 3.40171e-16 0)
(3 6.47804e-16 0)
(3 2.43223e-16 0)
(3 -2.16206e-16 0)
(3 3.73229e-16 0)
(3 9.0963e-16 0)
(3 1.01768e-15 0)
(3 9.66155e-16 0)
(3 1.06202e-15 0)
(3 1.64418e-15 0)
(3 1.65494e-15 0)
(3 1.2406e-15 0)
(3 5.9632e-16 0)
(2.93948 0.0317864 0)
(1.03804 0.0988525 0)
(0.765465 0.0859047 0)
(0.751021 0.077619 0)
(0.733217 0.0786135 0)
(0.716856 0.082577 0)
(0.701297 0.08753 0)
(0.6863 0.09001 0)
(0.6719 0.0885602 0)
(0.657674 0.0854306 0)
(0.642862 0.0838406 0)
(0.627773 0.0856574 0)
(0.61303 0.0902312 0)
(0.597914 0.0937202 0)
(0.58268 0.0931078 0)
(0.567467 0.0914282 0)
(0.552174 0.0927419 0)
(0.536769 0.0955173 0)
(0.520874 0.0966447 0)
(0.504816 0.096831 0)
(0.488719 0.0979247 0)
(0.472694 0.0997058 0)
(0.456721 0.101166 0)
(0.440702 0.10219 0)
(0.424392 0.103262 0)
(0.407605 0.104584 0)
(0.390348 0.105988 0)
(0.372799 0.107321 0)
(0.35517 0.108581 0)
(0.337582 0.109769 0)
(0.320021 0.110863 0)
(0.302362 0.111897 0)
(0.284437 0.112906 0)
(0.266156 0.11386 0)
(0.247599 0.114747 0)
(0.229012 0.115624 0)
(0.210679 0.116564 0)
(0.19276 0.117614 0)
(0.175208 0.118824 0)
(0.157805 0.120255 0)
(0.140293 0.121961 0)
(0.122477 0.123933 0)
(0.104279 0.126141 0)
(0.085711 0.128534 0)
(0.0668623 0.131051 0)
(0.0479041 0.134001 0)
(0.0286802 0.135773 0)
(0.00985077 0.13864 0)
(3 1.19403e-16 0)
(3 1.49346e-16 0)
(3 1.98101e-16 0)
(3 4.79243e-16 0)
(3 6.15578e-16 0)
(3 4.46315e-16 0)
(3 6.60826e-16 0)
(3 1.03017e-15 0)
(3 1.40122e-15 0)
(3 1.58995e-15 0)
(3 1.34295e-15 0)
(3 1.24862e-16 0)
(3 -7.23993e-16 0)
(3 -5.23903e-16 0)
(3 -1.82597e-16 0)
(3 2.50464e-16 0)
(3 7.82837e-17 0)
(3 7.42475e-17 0)
(3 9.24925e-17 0)
(3 2.81478e-17 0)
(3 -2.04091e-16 0)
(3 -1.68442e-16 0)
(3 -1.6389e-16 0)
(3 -6.82075e-16 0)
(3 -1.98115e-15 0)
(3 -1.29512e-15 0)
(3 -6.97469e-16 0)
(3 -7.39553e-17 0)
(3 7.51158e-16 0)
(3 1.00599e-15 0)
(3 7.62953e-16 0)
(3 6.02551e-16 0)
(3 1.36864e-17 0)
(3 -5.36276e-16 0)
(3 -3.15538e-16 0)
(3 4.93799e-16 0)
(3 8.4395e-16 0)
(3 8.65428e-16 0)
(3 8.46934e-16 0)
(3 8.92183e-16 0)
(3 5.52112e-16 0)
(3 6.42776e-16 0)
(3 4.67824e-16 0)
(3 5.65557e-16 0)
(3 4.69409e-16 0)
(3 2.13377e-16 0)
(3 -1.25008e-16 0)
(3 -1.38507e-15 0)
(2.99804 0.00298966 0)
(1.10532 0.11512 0)
(0.777365 0.0936697 0)
(0.762301 0.0971159 0)
(0.745014 0.100798 0)
(0.727738 0.104708 0)
(0.711398 0.108391 0)
(0.696044 0.109655 0)
(0.681642 0.107903 0)
(0.667559 0.105409 0)
(0.653079 0.104648 0)
(0.638392 0.10688 0)
(0.624103 0.111604 0)
(0.609506 0.115498 0)
(0.594467 0.115504 0)
(0.579196 0.114022 0)
(0.563794 0.115332 0)
(0.548526 0.118309 0)
(0.53294 0.119811 0)
(0.517195 0.120496 0)
(0.501335 0.122184 0)
(0.485423 0.124444 0)
(0.469469 0.126167 0)
(0.453448 0.127477 0)
(0.437139 0.129016 0)
(0.420348 0.130874 0)
(0.403064 0.132781 0)
(0.385435 0.134614 0)
(0.367626 0.136426 0)
(0.349726 0.138206 0)
(0.331729 0.139877 0)
(0.313546 0.141447 0)
(0.295045 0.142951 0)
(0.276144 0.144349 0)
(0.25692 0.145606 0)
(0.237609 0.146771 0)
(0.218486 0.147914 0)
(0.199705 0.149083 0)
(0.181218 0.150339 0)
(0.16282 0.151774 0)
(0.144274 0.153474 0)
(0.125426 0.155469 0)
(0.106254 0.157749 0)
(0.0868629 0.16035 0)
(0.0673951 0.163147 0)
(0.0480993 0.166598 0)
(0.0286517 0.168627 0)
(0.00985514 0.172036 0)
(3 5.366e-17 0)
(3 1.85588e-16 0)
(3 3.2984e-16 0)
(3 4.30701e-16 0)
(3 3.19899e-16 0)
(3 -7.51169e-17 0)
(3 -2.80662e-16 0)
(3 -5.67966e-16 0)
(3 -6.58114e-16 0)
(3 -3.30309e-16 0)
(3 -7.68073e-17 0)
(3 -8.74308e-19 0)
(3 1.25627e-16 0)
(3 8.9304e-17 0)
(3 -4.97575e-17 0)
(3 1.70078e-17 0)
(3 3.41535e-16 0)
(3 -2.36975e-17 0)
(3 -6.02298e-16 0)
(3 -9.39157e-16 0)
(3 -6.00779e-16 0)
(3 -2.03962e-16 0)
(3 -3.28407e-17 0)
(3 -3.21102e-16 0)
(3 -1.59258e-15 0)
(3 -1.54139e-15 0)
(3 -1.0888e-15 0)
(3 -1.11566e-15 0)
(3 -2.66643e-17 0)
(3 1.55635e-16 0)
(3 4.14636e-16 0)
(3 5.35927e-16 0)
(3 7.59752e-16 0)
(3 8.2994e-16 0)
(3 1.33724e-15 0)
(3 1.44602e-15 0)
(3 1.11804e-15 0)
(3 9.20826e-16 0)
(3 1.30391e-15 0)
(3 1.14158e-15 0)
(3 6.55961e-16 0)
(3 -1.2846e-16 0)
(3 3.32869e-18 0)
(3 9.24442e-17 0)
(3 -1.47918e-16 0)
(3 -6.33353e-16 0)
(3 -1.46885e-15 0)
(3 -2.34085e-15 0)
(3.00003 3.35688e-05 0)
(1.22224 0.134114 0)
(0.777508 0.109955 0)
(0.756624 0.119667 0)
(0.740754 0.126441 0)
(0.723529 0.130097 0)
(0.707574 0.132345 0)
(0.692452 0.132505 0)
(0.67805 0.130346 0)
(0.663875 0.128088 0)
(0.649541 0.127928 0)
(0.635191 0.130413 0)
(0.621286 0.135201 0)
(0.607232 0.139729 0)
(0.59249 0.140768 0)
(0.577356 0.139711 0)
(0.562051 0.140808 0)
(0.547081 0.143604 0)
(0.53206 0.145341 0)
(0.516938 0.146659 0)
(0.50169 0.149174 0)
(0.48627 0.152088 0)
(0.470692 0.154115 0)
(0.455054 0.155704 0)
(0.439192 0.157747 0)
(0.422905 0.16021 0)
(0.406141 0.162656 0)
(0.389013 0.164988 0)
(0.371647 0.167351 0)
(0.354091 0.169737 0)
(0.336322 0.172013 0)
(0.318269 0.17415 0)
(0.299831 0.17618 0)
(0.280951 0.178051 0)
(0.26171 0.179701 0)
(0.242329 0.18116 0)
(0.22305 0.182504 0)
(0.203991 0.183784 0)
(0.185087 0.185067 0)
(0.166143 0.186457 0)
(0.146955 0.188061 0)
(0.127414 0.189952 0)
(0.107559 0.192133 0)
(0.0875795 0.19479 0)
(0.0676596 0.197701 0)
(0.0481495 0.201561 0)
(0.0285585 0.203796 0)
(0.00986324 0.207705 0)
(3 -1.75386e-17 0)
(3 -2.10803e-16 0)
(3 -2.25872e-16 0)
(3 -3.20053e-16 0)
(3 -2.0068e-16 0)
(3 -1.66791e-16 0)
(3 -4.066e-16 0)
(3 -5.55457e-16 0)
(3 -7.83258e-16 0)
(3 -6.2341e-16 0)
(3 -6.45906e-16 0)
(3 4.77079e-16 0)
(3 9.58652e-16 0)
(3 9.47931e-16 0)
(3 7.27041e-16 0)
(3 3.28153e-16 0)
(3 5.8806e-16 0)
(3 7.9312e-16 0)
(3 6.63687e-16 0)
(3 6.30086e-16 0)
(3 7.0124e-16 0)
(3 4.29632e-16 0)
(3 -3.28435e-17 0)
(3 -9.52548e-17 0)
(3 -6.14809e-17 0)
(3 1.29131e-16 0)
(3 2.03734e-16 0)
(3 4.82575e-16 0)
(3 3.49201e-16 0)
(3 -1.59569e-16 0)
(3 2.11012e-16 0)
(3 9.16145e-16 0)
(3 1.93125e-15 0)
(3 2.53348e-15 0)
(3 2.93828e-15 0)
(3 3.08642e-15 0)
(3 2.6431e-15 0)
(3 2.29371e-15 0)
(3 1.97521e-15 0)
(3 1.32917e-15 0)
(3 8.79708e-16 0)
(3 5.95807e-16 0)
(3 -1.1106e-16 0)
(3 -1.20616e-15 0)
(3 -1.47786e-15 0)
(3 -1.29707e-15 0)
(3 -1.97946e-15 0)
(3 -2.78519e-15 0)
(3 6.17725e-08 0)
(1.42526 0.162339 0)
(0.790101 0.134147 0)
(0.755727 0.142755 0)
(0.740933 0.151388 0)
(0.723742 0.154541 0)
(0.708182 0.155845 0)
(0.693022 0.155635 0)
(0.678147 0.153504 0)
(0.663338 0.151354 0)
(0.648614 0.151139 0)
(0.634269 0.153185 0)
(0.620721 0.157551 0)
(0.607546 0.162489 0)
(0.593635 0.164825 0)
(0.579086 0.164656 0)
(0.564232 0.165559 0)
(0.549723 0.167789 0)
(0.53543 0.169454 0)
(0.521145 0.171367 0)
(0.506789 0.174828 0)
(0.492131 0.178582 0)
(0.477135 0.180972 0)
(0.462058 0.182784 0)
(0.446816 0.185338 0)
(0.431185 0.188536 0)
(0.415032 0.191693 0)
(0.39845 0.194677 0)
(0.38155 0.197747 0)
(0.364351 0.200948 0)
(0.346788 0.204091 0)
(0.328777 0.207087 0)
(0.31024 0.209964 0)
(0.291153 0.212667 0)
(0.271621 0.215099 0)
(0.251869 0.21725 0)
(0.232115 0.219176 0)
(0.212439 0.220913 0)
(0.192762 0.222505 0)
(0.172902 0.224057 0)
(0.152702 0.225681 0)
(0.132111 0.227507 0)
(0.111218 0.229527 0)
(0.0902868 0.232145 0)
(0.0695115 0.23499 0)
(0.0493469 0.239124 0)
(0.0291782 0.241516 0)
(0.010118 0.245842 0)
(3 9.71433e-17 0)
(3 3.08447e-17 0)
(3 7.28077e-17 0)
(3 5.56744e-17 0)
(3 1.38035e-16 0)
(3 6.60813e-17 0)
(3 -2.73515e-17 0)
(3 8.81727e-17 0)
(3 1.32694e-16 0)
(3 -9.23393e-17 0)
(3 -3.88946e-16 0)
(3 -3.79081e-16 0)
(3 -2.53361e-16 0)
(3 5.10746e-16 0)
(3 4.99882e-16 0)
(3 3.02303e-16 0)
(3 6.71493e-17 0)
(3 9.58951e-17 0)
(3 4.1437e-16 0)
(3 6.62024e-16 0)
(3 1.02577e-15 0)
(3 6.71476e-16 0)
(3 2.44888e-16 0)
(3 3.5478e-16 0)
(3 1.38402e-15 0)
(3 1.11815e-15 0)
(3 2.99971e-16 0)
(3 1.89732e-16 0)
(3 1.5931e-16 0)
(3 2.36944e-16 0)
(3 -1.85809e-16 0)
(3 -2.33019e-16 0)
(3 3.70591e-17 0)
(3 5.8937e-16 0)
(3 1.42774e-15 0)
(3 2.19492e-15 0)
(3 3.07079e-15 0)
(3 1.86496e-15 0)
(3 6.07723e-16 0)
(3 -3.75716e-17 0)
(3 1.12257e-16 0)
(3 3.26065e-16 0)
(3 -2.07465e-16 0)
(3 -6.1004e-16 0)
(3 -8.74935e-16 0)
(3 -8.73916e-16 0)
(3 -7.17772e-16 0)
(3 -7.08808e-16 0)
(3 1.2511e-10 0)
(1.73684 0.184011 0)
(0.817995 0.16572 0)
(0.761151 0.168395 0)
(0.746224 0.176113 0)
(0.729143 0.178396 0)
(0.713657 0.17972 0)
(0.698017 0.180283 0)
(0.682126 0.179376 0)
(0.666009 0.177775 0)
(0.650048 0.176965 0)
(0.634779 0.177505 0)
(0.620612 0.180443 0)
(0.607488 0.185269 0)
(0.593932 0.18905 0)
(0.579475 0.190396 0)
(0.564562 0.191439 0)
(0.549888 0.192863 0)
(0.535683 0.194064 0)
(0.521733 0.196382 0)
(0.508001 0.200857 0)
(0.494031 0.205697 0)
(0.479607 0.208616 0)
(0.465149 0.210602 0)
(0.450698 0.213636 0)
(0.436023 0.217697 0)
(0.420843 0.22178 0)
(0.405205 0.225586 0)
(0.389229 0.229497 0)
(0.372893 0.233662 0)
(0.356056 0.23786 0)
(0.338586 0.241921 0)
(0.320425 0.245848 0)
(0.3016 0.249602 0)
(0.28225 0.25306 0)
(0.26259 0.256162 0)
(0.242784 0.258931 0)
(0.22284 0.261374 0)
(0.202638 0.263509 0)
(0.182012 0.265432 0)
(0.160855 0.267246 0)
(0.139187 0.269141 0)
(0.117142 0.271048 0)
(0.0950461 0.273618 0)
(0.0730962 0.276277 0)
(0.0518479 0.280578 0)
(0.0306344 0.283103 0)
(0.01066 0.287777 0)
(3 5.81022e-17 0)
(3 2.87798e-16 0)
(3 3.96273e-16 0)
(3 3.50362e-16 0)
(3 1.61557e-16 0)
(3 -4.45561e-16 0)
(3 -4.04011e-16 0)
(3 -2.35846e-16 0)
(3 -3.94177e-16 0)
(3 -1.04713e-15 0)
(3 -1.2423e-15 0)
(3 -1.11348e-15 0)
(3 -7.67896e-16 0)
(3 -2.32879e-16 0)
(3 -1.88616e-17 0)
(3 4.7003e-16 0)
(3 2.16164e-16 0)
(3 1.62643e-16 0)
(3 2.48613e-16 0)
(3 2.55159e-16 0)
(3 5.56009e-16 0)
(3 6.61431e-16 0)
(3 6.45247e-16 0)
(3 6.59555e-16 0)
(3 7.63421e-16 0)
(3 9.81048e-16 0)
(3 1.12349e-15 0)
(3 1.0332e-15 0)
(3 1.07021e-15 0)
(3 9.89619e-16 0)
(3 7.62608e-16 0)
(3 2.19779e-16 0)
(3 1.00339e-16 0)
(3 2.23379e-16 0)
(3 5.39279e-17 0)
(3 -2.32327e-16 0)
(3 -4.72407e-17 0)
(3 9.58881e-16 0)
(3 1.63753e-15 0)
(3 1.98364e-15 0)
(3 1.70409e-15 0)
(3 -1.20224e-16 0)
(3 -5.76408e-17 0)
(3 1.50753e-16 0)
(3 -4.05893e-16 0)
(3 -8.80976e-16 0)
(3 2.7845e-16 0)
(3 1.1545e-15 0)
(3 2.41624e-13 0)
(2.15584 0.19129 0)
(0.860497 0.208554 0)
(0.757751 0.197795 0)
(0.743017 0.20268 0)
(0.728461 0.203971 0)
(0.715079 0.20623 0)
(0.701192 0.208268 0)
(0.686617 0.209041 0)
(0.671184 0.208345 0)
(0.655404 0.206884 0)
(0.64004 0.205364 0)
(0.625471 0.206114 0)
(0.612079 0.210172 0)
(0.598729 0.215205 0)
(0.584219 0.218485 0)
(0.568932 0.220102 0)
(0.553671 0.220653 0)
(0.538946 0.220853 0)
(0.524647 0.222926 0)
(0.510912 0.227978 0)
(0.497115 0.233774 0)
(0.482705 0.237195 0)
(0.468233 0.239015 0)
(0.453913 0.242096 0)
(0.439661 0.246823 0)
(0.425074 0.251872 0)
(0.410119 0.256552 0)
(0.394962 0.261293 0)
(0.379574 0.266434 0)
(0.363721 0.271781 0)
(0.347171 0.277078 0)
(0.329832 0.282291 0)
(0.311735 0.287413 0)
(0.293005 0.292325 0)
(0.273798 0.296906 0)
(0.254198 0.301108 0)
(0.234145 0.304868 0)
(0.213506 0.30813 0)
(0.192173 0.310947 0)
(0.170116 0.313382 0)
(0.147422 0.315681 0)
(0.12424 0.317681 0)
(0.10092 0.32028 0)
(0.0776561 0.322666 0)
(0.0550882 0.326996 0)
(0.0325821 0.329589 0)
(0.0113395 0.334541 0)
(3 -2.17203e-16 0)
(3 -1.92344e-16 0)
(3 -4.72322e-16 0)
(3 -7.50412e-16 0)
(3 -9.43099e-16 0)
(3 -8.35971e-16 0)
(3 -1.39568e-16 0)
(3 7.93671e-17 0)
(3 -9.34769e-16 0)
(3 -1.18872e-15 0)
(3 -1.0491e-15 0)
(3 -3.18076e-16 0)
(3 -1.53644e-16 0)
(3 -3.76402e-17 0)
(3 1.057e-16 0)
(3 4.0441e-16 0)
(3 5.4476e-16 0)
(3 6.00463e-16 0)
(3 1.96876e-16 0)
(3 2.25792e-17 0)
(3 -1.12068e-16 0)
(3 -1.31753e-16 0)
(3 1.29605e-16 0)
(3 4.57749e-16 0)
(3 7.32709e-16 0)
(3 1.19441e-15 0)
(3 7.8657e-16 0)
(3 5.69162e-16 0)
(3 4.95157e-16 0)
(3 1.44257e-15 0)
(3 2.09176e-15 0)
(3 1.94643e-15 0)
(3 1.16786e-15 0)
(3 2.54298e-16 0)
(3 -9.1624e-16 0)
(3 -8.21878e-16 0)
(3 -9.19377e-16 0)
(3 -6.24793e-16 0)
(3 3.21889e-16 0)
(3 4.75094e-16 0)
(3 4.17674e-16 0)
(3 -1.18654e-16 0)
(3 -4.06902e-16 0)
(3 -2.15166e-16 0)
(3 -1.69385e-16 0)
(3 -3.18343e-16 0)
(3 6.68244e-16 0)
(3 2.30728e-15 0)
(3 3.29488e-15 0)
(2.67707 0.172804 0)
(0.961292 0.256074 0)
(0.782368 0.233095 0)
(0.771132 0.222648 0)
(0.753849 0.223507 0)
(0.739366 0.226092 0)
(0.724956 0.230409 0)
(0.710174 0.234187 0)
(0.694551 0.236099 0)
(0.678404 0.235643 0)
(0.662404 0.2332 0)
(0.646697 0.232194 0)
(0.631893 0.23556 0)
(0.617887 0.241979 0)
(0.60303 0.247844 0)
(0.587135 0.250956 0)
(0.570992 0.251325 0)
(0.555185 0.250699 0)
(0.53975 0.252301 0)
(0.525165 0.257697 0)
(0.510894 0.264553 0)
(0.495816 0.268905 0)
(0.48042 0.270662 0)
(0.465119 0.273435 0)
(0.45014 0.278442 0)
(0.435104 0.284272 0)
(0.419797 0.289656 0)
(0.404416 0.294901 0)
(0.389012 0.300641 0)
(0.373344 0.30687 0)
(0.357111 0.313296 0)
(0.340192 0.319816 0)
(0.322632 0.326429 0)
(0.304545 0.333016 0)
(0.286013 0.339386 0)
(0.267011 0.345389 0)
(0.247373 0.350889 0)
(0.226885 0.355749 0)
(0.205414 0.359993 0)
(0.182901 0.363666 0)
(0.159417 0.367052 0)
(0.135061 0.369838 0)
(0.110229 0.373033 0)
(0.0851167 0.375488 0)
(0.0605115 0.379947 0)
(0.0358869 0.382615 0)
(0.0124721 0.387875 0)
(3 -1.34139e-17 0)
(3 7.86763e-18 0)
(3 -1.6809e-18 0)
(3 -4.68741e-17 0)
(3 -1.91279e-16 0)
(3 -5.73024e-17 0)
(3 -1.3122e-16 0)
(3 -2.4152e-16 0)
(3 -5.31484e-16 0)
(3 -5.67799e-16 0)
(3 -5.12882e-16 0)
(3 -2.83002e-17 0)
(3 2.89231e-16 0)
(3 2.85466e-16 0)
(3 -8.84034e-17 0)
(3 -4.5986e-17 0)
(3 8.8763e-17 0)
(3 1.52202e-16 0)
(3 -2.05533e-16 0)
(3 -5.52273e-16 0)
(3 -9.04845e-16 0)
(3 -1.21228e-15 0)
(3 -1.24989e-15 0)
(3 -1.032e-15 0)
(3 -6.43649e-16 0)
(3 -1.07984e-16 0)
(3 -7.29385e-16 0)
(3 -9.37729e-16 0)
(3 -9.41819e-16 0)
(3 -6.33426e-16 0)
(3 -2.61512e-16 0)
(3 -2.45375e-16 0)
(3 -6.78572e-16 0)
(3 -6.53761e-16 0)
(3 -1.16784e-15 0)
(3 -1.46696e-15 0)
(3 -2.1985e-15 0)
(3 -2.21543e-15 0)
(3 -1.71913e-15 0)
(3 -1.07933e-15 0)
(3 -6.46803e-16 0)
(3 -8.46993e-16 0)
(3 -1.35702e-15 0)
(3 -2.11449e-15 0)
(3 1.32025e-16 0)
(3 1.92245e-15 0)
(3 2.36785e-15 0)
(3 2.5846e-15 0)
(3 2.57614e-15 0)
(3.02079 0.0105458 0)
(1.14759 0.279604 0)
(0.809445 0.234022 0)
(0.79517 0.246024 0)
(0.778839 0.250875 0)
(0.763157 0.253625 0)
(0.748622 0.257728 0)
(0.734697 0.262003 0)
(0.720518 0.264877 0)
(0.705648 0.265332 0)
(0.690343 0.263085 0)
(0.674748 0.260823 0)
(0.659393 0.262645 0)
(0.645261 0.268824 0)
(0.631125 0.276056 0)
(0.615782 0.280818 0)
(0.599659 0.281916 0)
(0.583477 0.280986 0)
(0.567355 0.281851 0)
(0.552027 0.287047 0)
(0.537474 0.294869 0)
(0.522064 0.300953 0)
(0.505846 0.303507 0)
(0.489444 0.306055 0)
(0.473332 0.31115 0)
(0.457406 0.31785 0)
(0.441234 0.324277 0)
(0.424952 0.330188 0)
(0.408744 0.336448 0)
(0.392471 0.343414 0)
(0.375817 0.350885 0)
(0.358582 0.358685 0)
(0.340772 0.366812 0)
(0.322462 0.375207 0)
(0.30365 0.383681 0)
(0.284202 0.392033 0)
(0.263879 0.400081 0)
(0.242432 0.407582 0)
(0.219771 0.414418 0)
(0.19593 0.42047 0)
(0.171107 0.425918 0)
(0.145417 0.430227 0)
(0.119234 0.434531 0)
(0.0924864 0.437403 0)
(0.0658899 0.441899 0)
(0.0391646 0.444394 0)
(0.0134284 0.449673 0)
(3 3.52588e-17 0)
(3 -3.12441e-18 0)
(3 1.47216e-18 0)
(3 2.31873e-16 0)
(3 2.12752e-16 0)
(3 -2.30233e-16 0)
(3 -3.72956e-16 0)
(3 -5.06507e-16 0)
(3 5.99346e-18 0)
(3 4.01794e-16 0)
(3 3.56903e-16 0)
(3 2.82754e-16 0)
(3 3.1893e-16 0)
(3 -1.65467e-17 0)
(3 -1.70935e-16 0)
(3 -1.65077e-16 0)
(3 -2.45329e-16 0)
(3 -3.93846e-16 0)
(3 -3.69082e-16 0)
(3 -3.23865e-16 0)
(3 -2.63146e-16 0)
(3 -8.94988e-16 0)
(3 -8.13722e-16 0)
(3 -7.22694e-16 0)
(3 -9.70899e-16 0)
(3 -1.21616e-15 0)
(3 -6.66964e-16 0)
(3 -4.18393e-16 0)
(3 -3.21735e-16 0)
(3 -5.75476e-16 0)
(3 -1.85463e-15 0)
(3 -2.31448e-15 0)
(3 -1.98277e-15 0)
(3 -1.40035e-15 0)
(3 -1.39621e-15 0)
(3 -1.8131e-15 0)
(3 -2.19493e-15 0)
(3 -2.02992e-15 0)
(3 -1.7814e-15 0)
(3 -1.38869e-15 0)
(3 -7.91869e-16 0)
(3 -7.45609e-16 0)
(3 -8.65707e-16 0)
(3 -1.10074e-15 0)
(3 3.32266e-16 0)
(3 2.05254e-15 0)
(3 1.92735e-15 0)
(3 1.9053e-15 0)
(3 1.52818e-15 0)
(3.00031 1.00747e-05 0)
(1.55469 0.310266 0)
(0.826036 0.276851 0)
(0.781024 0.2807 0)
(0.765816 0.285964 0)
(0.751605 0.286014 0)
(0.739201 0.287808 0)
(0.727588 0.2916 0)
(0.715958 0.295691 0)
(0.703543 0.298116 0)
(0.690314 0.297809 0)
(0.676463 0.296131 0)
(0.662246 0.296877 0)
(0.648827 0.302034 0)
(0.636221 0.309874 0)
(0.62284 0.316412 0)
(0.608463 0.319039 0)
(0.59377 0.318715 0)
(0.578854 0.319138 0)
(0.564347 0.323554 0)
(0.550971 0.331586 0)
(0.53714 0.339202 0)
(0.522078 0.343075 0)
(0.506422 0.345499 0)
(0.490734 0.350113 0)
(0.475322 0.357076 0)
(0.459676 0.364389 0)
(0.44368 0.370977 0)
(0.427622 0.377582 0)
(0.411573 0.38498 0)
(0.395306 0.393221 0)
(0.378536 0.402112 0)
(0.361152 0.411586 0)
(0.343234 0.421662 0)
(0.324826 0.432197 0)
(0.305818 0.442916 0)
(0.285983 0.453593 0)
(0.26506 0.463886 0)
(0.24289 0.473481 0)
(0.219386 0.482026 0)
(0.19461 0.489851 0)
(0.168175 0.496532 0)
(0.140304 0.503624 0)
(0.110398 0.509545 0)
(0.0792813 0.516001 0)
(0.0471992 0.519253 0)
(0.0159102 0.524293 0)
(3 -6.43521e-17 0)
(3 -3.21015e-16 0)
(3 -3.85187e-16 0)
(3 -2.67446e-16 0)
(3 9.28141e-17 0)
(3 1.06891e-16 0)
(3 -2.48606e-17 0)
(3 -3.80804e-16 0)
(3 -5.39181e-16 0)
(3 -3.04198e-16 0)
(3 -9.58041e-17 0)
(3 4.05879e-17 0)
(3 -2.38501e-16 0)
(3 -5.86885e-16 0)
(3 -1.34633e-15 0)
(3 -1.62343e-15 0)
(3 -1.84859e-15 0)
(3 -2.00029e-15 0)
(3 -1.54434e-15 0)
(3 -1.17665e-15 0)
(3 -4.31839e-16 0)
(3 4.23878e-16 0)
(3 1.36494e-15 0)
(3 1.4094e-15 0)
(3 5.43514e-16 0)
(3 -3.57029e-16 0)
(3 -7.18282e-16 0)
(3 -8.34186e-16 0)
(3 -5.15562e-16 0)
(3 -8.20098e-16 0)
(3 -1.1707e-15 0)
(3 -1.18848e-15 0)
(3 -1.32689e-15 0)
(3 -2.21188e-15 0)
(3 -2.13898e-15 0)
(3 -1.95227e-15 0)
(3 -1.35602e-15 0)
(3 -6.5027e-16 0)
(3 1.06936e-16 0)
(3 9.24107e-16 0)
(3 1.07836e-15 0)
(3 1.19072e-15 0)
(3 1.62494e-15 0)
(3 2.40447e-15 0)
(3 1.88837e-15 0)
(3 1.6836e-15 0)
(3 1.62641e-15 0)
(3 1.64823e-15 0)
(3 8.34034e-16 0)
(3 1.81614e-08 0)
(2.37957 0.281378 0)
(0.921728 0.33575 0)
(0.792162 0.322461 0)
(0.779266 0.313618 0)
(0.764244 0.313177 0)
(0.751689 0.314275 0)
(0.740077 0.318044 0)
(0.72888 0.32295 0)
(0.717276 0.326995 0)
(0.704901 0.328784 0)
(0.691856 0.328431 0)
(0.678218 0.328675 0)
(0.664747 0.332493 0)
(0.65235 0.339756 0)
(0.640078 0.347198 0)
(0.626978 0.35149 0)
(0.613387 0.352487 0)
(0.599434 0.353098 0)
(0.585458 0.356784 0)
(0.572461 0.364538 0)
(0.559789 0.373579 0)
(0.545911 0.379866 0)
(0.531094 0.383389 0)
(0.515941 0.38798 0)
(0.50101 0.395227 0)
(0.486036 0.403805 0)
(0.470563 0.411955 0)
(0.45478 0.41969 0)
(0.439002 0.428019 0)
(0.423153 0.437339 0)
(0.406936 0.447655 0)
(0.390028 0.458758 0)
(0.372436 0.470687 0)
(0.354218 0.483479 0)
(0.335091 0.496893 0)
(0.314961 0.510793 0)
(0.293469 0.524913 0)
(0.270222 0.539062 0)
(0.244749 0.552765 0)
(0.217161 0.566318 0)
(0.187326 0.579121 0)
(0.156153 0.592074 0)
(0.123895 0.603818 0)
(0.0905543 0.613409 0)
(0.0555146 0.618435 0)
(0.0179099 0.621539 0)
(3 -1.35603e-17 0)
(3 -1.20203e-17 0)
(3 -7.33818e-17 0)
(3 -5.41954e-17 0)
(3 -1.23125e-17 0)
(3 1.41431e-16 0)
(3 8.93224e-17 0)
(3 -5.50377e-17 0)
(3 -2.18859e-16 0)
(3 -4.11233e-16 0)
(3 -4.57078e-16 0)
(3 -3.5412e-16 0)
(3 -3.93345e-16 0)
(3 -9.72301e-16 0)
(3 -1.72797e-15 0)
(3 -1.95891e-15 0)
(3 -1.90226e-15 0)
(3 -1.7257e-15 0)
(3 -8.62798e-16 0)
(3 -4.96923e-16 0)
(3 3.11209e-16 0)
(3 8.81474e-16 0)
(3 1.06378e-15 0)
(3 6.15191e-16 0)
(3 -3.7672e-17 0)
(3 -7.42457e-16 0)
(3 -7.75696e-16 0)
(3 -8.83256e-16 0)
(3 -1.05476e-15 0)
(3 -1.06276e-15 0)
(3 -1.83929e-15 0)
(3 -1.77341e-15 0)
(3 -1.54593e-15 0)
(3 -1.85213e-15 0)
(3 -1.92266e-15 0)
(3 -1.50438e-15 0)
(3 -4.87613e-16 0)
(3 -1.27129e-16 0)
(3 7.90835e-17 0)
(3 8.81762e-17 0)
(3 -3.11741e-16 0)
(3 -6.21108e-16 0)
(3 -4.8287e-16 0)
(3 -4.19293e-16 0)
(3 -3.03576e-16 0)
(3 4.22822e-17 0)
(3 3.17422e-16 0)
(3 8.02782e-16 0)
(3 1.07611e-15 0)
(3 -7.63565e-09 0)
(3.02726 0.0175166 0)
(1.25537 0.374171 0)
(0.842261 0.333658 0)
(0.819248 0.337402 0)
(0.804284 0.334866 0)
(0.789157 0.335575 0)
(0.775404 0.339823 0)
(0.762357 0.345819 0)
(0.7496 0.351461 0)
(0.736674 0.35543 0)
(0.723282 0.35748 0)
(0.709356 0.358658 0)
(0.695251 0.361622 0)
(0.681923 0.367786 0)
(0.669378 0.375368 0)
(0.656598 0.381383 0)
(0.643269 0.38469 0)
(0.629525 0.386716 0)
(0.615563 0.390332 0)
(0.602154 0.397565 0)
(0.589645 0.407357 0)
(0.576714 0.416137 0)
(0.562771 0.421789 0)
(0.548365 0.42681 0)
(0.534059 0.434001 0)
(0.519951 0.443423 0)
(0.505377 0.453506 0)
(0.490193 0.463206 0)
(0.47497 0.473208 0)
(0.459756 0.484071 0)
(0.444425 0.496115 0)
(0.428511 0.509154 0)
(0.411843 0.523257 0)
(0.394461 0.538627 0)
(0.376251 0.555295 0)
(0.357221 0.573285 0)
(0.336983 0.592387 0)
(0.315333 0.612443 0)
(0.29195 0.632856 0)
(0.266824 0.653096 0)
(0.239867 0.671928 0)
(0.210715 0.688169 0)
(0.179489 0.703798 0)
(0.142547 0.722214 0)
(0.0967287 0.744267 0)
(0.0371652 0.763516 0)
(3 2.01675e-16 0)
(3 3.11906e-16 0)
(3 4.72974e-16 0)
(3 8.45015e-16 0)
(3 4.32446e-16 0)
(3 -9.5966e-17 0)
(3 -1.04261e-16 0)