/*--------------------------------*- C++ -*----------------------------------*\
  =========                 |
  \\      /  F ield         | OpenFOAM: The Open Source CFD Toolbox
   \\    /   O peration     | Website:  https://openfoam.org
    \\  /    A nd           | Version:  7
     \\/     M anipulation  |
\*---------------------------------------------------------------------------*/
FoamFile
{
    version     2.0;
    format      ascii;
    class       volScalarField;
    location    "0.6";
    object      p;
}
// * * * * * * * * * * * * * * * * * * * * * * * * * * * * * * * * * * * * * //

dimensions      [1 -1 -2 0 0 0 0];

internalField   nonuniform List<scalar> 
19968
(
1
1
1
1
1
1
1
1
1
1
1
1
1
1
1
1
1
1
1
1
1
1
1
1
1
1
1
1
1
1
1
1
1
1
1
1
1
1
1
1
1
1
1
1
1
1
1
1
1
1
1
1
1
1
1
1
1
1
1
4.87079
10.9924
11.3096
11.4331
11.4989
11.4692
11.4033
11.3804
11.4288
11.5897
11.7526
11.8027
11.7811
11.7464
11.7428
11.7611
11.8558
11.9949
12.141
12.2555
12.3417
12.417
12.4628
12.4449
12.3677
12.2659
12.1945
12.1908
12.2444
12.299
12.3158
12.3069
12.3195
12.3873
12.4995
12.619
12.7168
1
1
1
1
1
1
1
1
1
1
1
1
1
1
1
1
1
1
1
1
1
1
1
1
1
1
1
1
1
1
1
1
1
1
1
1
1
1
1
1
1
1
1
1
1
1
1
1
1
1
1
1
1
1
1
1
1
1
1
4.77805
10.9187
11.3137
11.4341
11.5
11.4685
11.4041
11.3802
11.4223
11.5746
11.7358
11.7903
11.7779
11.752
11.752
11.7708
11.861
11.993
12.1334
12.2476
12.3366
12.4139
12.4578
12.4351
12.3563
12.2576
12.1914
12.1901
12.2401
12.2879
12.3002
12.295
12.3171
12.392
12.5036
12.6153
12.7055
1
1
1
1
1
1
1
1
1
1
1
1
1
1
1
1
1
1
1
1
1
1
1
1
1
1
1
1
1
1
1
1
1
1
1
1
1
1
1
1
1
1
1
1
1
1
1
1
1
1
1
1
1
1
1
1
1
1
1
4.57131
10.8548
11.2979
11.4195
11.4867
11.4543
11.399
11.3757
11.4099
11.5467
11.7071
11.7715
11.7728
11.7645
11.7689
11.7844
11.8637
11.9823
12.1156
12.2334
12.3299
12.4115
12.4522
12.421
12.3395
12.2451
12.185
12.1844
12.2273
12.2655
12.2738
12.2765
12.3137
12.3984
12.5072
12.6053
12.6806
1
1
1
1
1
1
1
1
1
1
1
1
1
1
1
1
1
1
1
1
1
1
1
1
1
1
1
1
1
1
1
1
1
1
1
1
1
1
1
1
1
1
1
1
1
1
1
1
1
1
1
1
1
1
1
1
1
1
1
4.2721
10.7718
11.2671
11.3826
11.4542
11.4283
11.3896
11.3654
11.3893
11.5052
11.6652
11.7478
11.7668
11.784
11.7953
11.804
11.8668
11.9637
12.0851
12.206
12.314
12.4034
12.4433
12.4043
12.319
12.227
12.1704
12.1679
12.203
12.2339
12.243
12.2577
12.3111
12.4038
12.508
12.5904
12.6476
1
1
1
1
1
1
1
1
1
1
1
1
1
1
1
1
1
1
1
1
1
1
1
1
1
1
1
1
1
1
1
1
1
1
1
1
1
1
1
1
1
1
1
1
1
1
1
1
1
1
1
1
1
1
1
1
1
1
1
3.8882
10.593
11.1981
11.3233
11.4211
11.402
11.3752
11.3454
11.357
11.4576
11.6197
11.7252
11.7652
11.8068
11.8247
11.8242
11.8682
11.9385
12.0439
12.1655
12.2866
12.3867
12.4307
12.3888
12.2998
12.206
12.146
12.1359
12.1624
12.1913
12.2092
12.2404
12.3081
12.4044
12.5019
12.5697
12.6092
1
1
1
1
1
1
1
1
1
1
1
1
1
1
1
1
1
1
1
1
1
1
1
1
1
1
1
1
1
1
1
1
1
1
1
1
1
1
1
1
1
1
1
1
1
1
1
1
1
1
1
1
1
1
1
1
1
1
1
3.41009
10.2679
11.1223
11.2657
11.3934
11.3903
11.3521
11.3059
11.303
11.4044
11.5818
11.7159
11.7811
11.8323
11.8448
11.8295
11.8551
11.9045
11.9969
12.1186
12.2467
12.3538
12.4053
12.3692
12.2828
12.1856
12.1148
12.0891
12.1053
12.138
12.172
12.2217
12.2999
12.395
12.4827
12.5412
12.5676
1
1
1
1
1
1
1
1
1
1
1
1
1
1
1
1
1
1
1
1
1
1
1
1
1
1
1
1
1
1
1
1
1
1
1
1
1
1
1
1
1
1
1
1
1
1
1
1
1
1
1
1
1
1
1
1
1
1
1
2.76173
9.72177
11.1117
11.2305
11.3647
11.3643
11.3105
11.249
11.2429
11.3564
11.559
11.7249
11.8151
11.8592
11.8467
11.8093
11.8158
11.857
11.9512
12.0761
12.2001
12.3013
12.3554
12.3348
12.2621
12.1659
12.0807
12.0333
12.036
12.075
12.1299
12.1978
12.2814
12.3707
12.4487
12.5027
12.5232
1
1
1
1
1
1
1
1
1
1
1
1
1
1
1
1
1
1
1
1
1
1
1
1
1
1
1
1
1
1
1
1
1
1
1
1
1
1
1
1
1
1
1
1
1
1
1
1
1
1
1
1
1
1
1
1
1
1
1
1.91524
8.73177
11.1486
11.1771
11.3028
11.3123
11.2827
11.2166
11.1991
11.3171
11.5381
11.7374
11.8485
11.8804
11.8344
11.7659
11.7517
11.7949
11.9052
12.0378
12.1501
12.2305
12.2778
12.2771
12.2291
12.1446
12.0483
11.9775
11.9617
12.004
12.0793
12.1654
12.2513
12.3296
12.3959
12.448
12.4693
1
1
1
1
1
1
1
1
1
1
1
1
1
1
1
1
1
1
1
1
1
1
1
1
1
1
1
1
1
1
1
1
1
1
1
1
1
1
1
1
1
1
1
1
1
1
1
1
1
1
1
1
1
1
1
1
1
1
1
1.12676
7.16465
11.1718
11.2098
11.2873
11.2793
11.2322
11.1957
11.1844
11.2921
11.5066
11.7191
11.8435
11.875
11.8135
11.7179
11.6794
11.7217
11.8452
11.9866
12.0896
12.1474
12.1781
12.1891
12.1697
12.1059
12.0074
11.9187
11.8874
11.9314
12.0214
12.1178
12.2013
12.2678
12.3238
12.3753
12.4023
1
1
1
1
1
1
1
1
1
1
1
1
1
1
1
1
1
1
1
1
1
1
1
1
1
1
1
1
1
1
1
1
1
1
1
1
1
1
1
1
1
1
1
1
1
1
1
1
1
1
1
1
1
1
1
1
1
1
1
1.00069
5.38683
10.8661
11.0674
11.1923
11.2446
11.2526
11.2254
11.2085
11.2748
11.4511
11.649
11.7754
11.8211
11.7773
11.6788
11.6192
11.6434
11.7579
11.9012
12.0044
12.0525
12.0696
12.0841
12.0816
12.0345
11.9444
11.8553
11.8223
11.8679
11.9598
12.052
12.1235
12.1776
12.2251
12.273
12.3081
1
1
1
1
1
1
1
1
1
1
1
1
1
1
1
1
1
1
1
1
1
1
1
1
1
1
1
1
1
1
1
1
1
1
1
1
1
1
1
1
1
1
1
1
1
1
1
1
1
1
1
1
1
1
1
1
1
1
1
1
3.68248
10.2924
10.9786
11.0642
11.1787
11.2351
11.2262
11.228
11.2645
11.3788
11.5478
11.6704
11.733
11.7284
11.645
11.5685
11.5609
11.644
11.7754
11.883
11.9374
11.956
11.9671
11.9598
11.9178
11.8434
11.7736
11.7515
11.7961
11.8797
11.9579
12.0156
12.0613
12.1024
12.1372
12.1789
1
1
1
1
1
1
1
1
1
1
1
1
1
1
1
1
1
1
1
1
1
1
1
1
1
1
1
1
1
1
1
1
1
1
1
1
1
1
1
1
1
1
1
1
1
1
1
1
1
1
1
1
1
1
1
1
1
1
1
1
2.0163
8.92561
10.9421
11.0209
11.1157
11.1741
11.1984
11.2034
11.2181
11.2684
11.4197
11.5533
11.6446
11.673
11.6124
11.5174
11.4681
11.5031
11.6099
11.7223
11.7987
11.8345
11.8417
11.8228
11.7778
11.7189
11.6743
11.669
11.7068
11.7691
11.8293
11.878
11.9141
11.9374
11.9453
11.9819
1
1
1
1
1
1
1
1
1
1
1
1
1
1
1
1
1
1
1
1
1
1
1
1
1
1
1
1
1
1
1
1
1
1
1
1
1
1
1
1
1
1
1
1
1
1
1
1
1
1
1
1
1
1
1
1
1
1
1
1
1.03522
6.33036
10.9059
11.0076
11.0874
11.1398
11.1379
11.1059
11.0883
11.1208
11.2784
11.4416
11.5657
11.6145
11.5744
11.4649
11.3654
11.3393
11.4046
11.5151
11.6195
11.6829
11.6885
11.661
11.6141
11.5713
11.5433
11.5362
11.5452
11.5722
11.6219
11.6815
11.7224
11.7339
11.7086
11.7249
1
1
1
1
1
1
1
1
1
1
1
1
1
1
1
1
1
1
1
1
1
1
1
1
1
1
1
1
1
1
1
1
1
1
1
1
1
1
1
1
1
1
1
1
1
1
1
1
1
1
1
1
1
1
1
1
1
1
1
1
1.00007
3.15356
9.77007
10.8765
10.9713
11.0621
11.0499
11.0023
10.9671
10.9749
11.1064
11.2904
11.4452
11.5121
11.4927
11.3836
11.2584
11.1804
11.1895
11.2801
11.394
11.4769
11.4969
11.4728
11.4399
11.4243
11.4146
11.3859
11.3409
11.3153
11.3456
11.4158
11.4617
11.4458
11.3658
11.318
1
1
1
1
1
1
1
1
1
1
1
1
1
1
1
1
1
1
1
1
1
1
1
1
1
1
1
1
1
1
1
1
1
1
1
1
1
1
1
1
1
1
1
1
1
1
1
1
1
1
1
1
1
1
1
1
1
1
1
1
1
1.09907
6.74128
10.8719
10.9403
10.9988
10.9804
10.894
10.8456
10.8211
10.8978
11.0519
11.2177
11.3161
11.3393
11.2747
11.1512
11.0332
10.9879
11.0312
11.13
11.2174
11.256
11.24
11.2173
11.2125
11.199
11.1338
11.0222
10.9174
10.8845
10.9203
10.9633
10.938
10.8576
10.7988
1
1
1
1
1
1
1
1
1
1
1
1
1
1
1
1
1
1
1
1
1
1
1
1
1
1
1
1
1
1
1
1
1
1
1
1
1
1
1
1
1
1
1
1
1
1
1
1
1
1
1
1
1
1
1
1
1
1
1
1
1
1.00031
2.68119
9.31369
10.7011
10.7296
10.7798
10.7567
10.7625
10.7479
10.779
10.8623
10.9765
11.0708
11.1108
11.0897
10.9979
10.882
10.7955
10.7852
10.8363
10.9129
10.9601
10.9573
10.9285
10.9067
10.8728
10.7861
10.641
10.4907
10.4119
10.4187
10.4159
10.3448
10.0866
10.2275
1
1
1
1
1
1
1
1
1
1
1
1
1
1
1
1
1
1
1
1
1
1
1
1
1
1
1
1
1
1
1
1
1
1
1
1
1
1
1
1
1
1
1
1
1
1
1
1
1
1
1
1
1
1
1
1
1
1
1
1
1
0.999996
1.06187
5.96598
10.5293
10.6216
10.6617
10.6934
10.6928
10.6623
10.6339
10.6558
10.7224
10.8251
10.8976
10.917
10.865
10.7639
10.6558
10.5867
10.5782
10.6213
10.6683
10.6741
10.6326
10.5695
10.4888
10.374
10.1946
9.98252
9.76521
9.54909
9.20478
8.63161
7.61048
5.66454
1
1
1
1
1
1
1
1
1
1
1
1
1
1
1
1
1
1
1
1
1
1
1
1
1
1
1
1
1
1
1
1
1
1
1
1
1
1
1
1
1
1
1
1
1
1
1
1
1
1
1
1
1
1
1
1
1
1
1
1
1
0.999999
1.00011
2.50587
9.04349
10.4198
10.4862
10.5974
10.6283
10.6088
10.5539
10.5336
10.5586
10.6284
10.7077
10.7426
10.714
10.6327
10.5349
10.436
10.3763
10.3727
10.4014
10.41
10.3582
10.25
10.1096
9.95691
9.75846
9.5093
9.1952
8.8237
8.28688
7.56874
6.38173
4.73049
1
1
1
1
1
1
1
1
1
1
1
1
1
1
1
1
1
1
1
1
1
1
1
1
1
1
1
1
1
1
1
1
1
1
1
1
1
1
1
1
1
1
1
1
1
1
1
1
1
1
1
1
1
1
1
1
1
1
1
1
1
1
1
1.06384
5.66126
10.121
10.3399
10.4459
10.5223
10.5143
10.4461
10.3822
10.366
10.4215
10.5014
10.5467
10.5439
10.4963
10.4176
10.3126
10.206
10.1394
10.117
10.1077
10.0492
9.91565
9.72814
9.53748
9.32291
9.05513
8.69949
8.25757
7.63991
6.87757
5.88392
4.68822
1
1
1
1
1
1
1
1
1
1
1
1
1
1
1
1
1
1
1
1
1
1
1
1
1
1
1
1
1
1
1
1
1
1
1
1
1
1
1
1
1
1
1
1
1
1
1
1
1
1
1
1
1
1
1
1
1
1
1
1
1
1
1
1.00013
1.96692
8.42995
10.2712
10.2834
10.4316
10.4735
10.4484
10.3673
10.2869
10.2594
10.2791
10.2996
10.3237
10.3183
10.2792
10.1876
10.0667
9.94888
9.85999
9.79727
9.71524
9.57149
9.36909
9.15382
8.9226
8.64916
8.29836
7.84724
7.24203
6.54955
5.73522
4.84208
1
1
1
1
1
1
1
1
1
1
1
1
1
1
1
1
1
1
1
1
1
1
1
1
1
1
1
1
1
1
1
1
1
1
1
1
1
1
1
1
1
1
1
1
1
1
1
1
1
1
1
1
1
1
1
1
1
1
1
1
1
1
1
1
1.02401
4.34661
9.68818
10.1437
10.2176
10.3072
10.3323
10.2877
10.198
10.1101
10.0792
10.078
10.108
10.1377
10.1282
10.0482
9.92449
9.78221
9.63764
9.50811
9.38135
9.22501
9.03128
8.81322
8.57371
8.29856
7.96491
7.54654
7.02552
6.4283
5.76155
5.06258
1
1
1
1
1
1
1
1
1
1
1
1
1
1
1
1
1
1
1
1
1
1
1
1
1
1
1
1
1
1
1
1
1
1
1
1
1
1
1
1
1
1
1
1
1
1
1
1
1
1
1
1
1
1
1
1
1
1
1
1
1
1
1
1
1.00003
1.25974
6.74265
10.0906
10.1101
10.1842
10.2572
10.2368
10.137
9.99784
9.87973
9.85351
9.87461
9.91851
9.93565
9.88762
9.7827
9.63457
9.45845
9.2797
9.09781
8.9108
8.71631
8.50628
8.27207
8.00339
7.68563
7.31483
6.88467
6.38961
5.85597
5.2805
1
1
1
1
1
1
1
1
1
1
1
1
1
1
1
1
1
1
1
1
1
1
1
1
1
1
1
1
1
1
1
1
1
1
1
1
1
1
1
1
1
1
1
1
1
1
1
1
1
1
1
1
1
1
1
1
1
1
1
1
1
1
1
1
1
1.00194
2.26561
8.42138
9.9514
9.93198
10.054
10.1194
10.0798
9.96538
9.82593
9.72181
9.68772
9.69411
9.70638
9.68162
9.60431
9.47919
9.31542
9.12125
8.9056
8.68139
8.46085
8.24201
8.01226
7.75761
7.45726
7.13549
6.77723
6.36632
5.92317
5.44559
1
1
1
1
1
1
1
1
1
1
1
1
1
1
1
1
1
1
1
1
1
1
1
1
1
1
1
1
1
1
1
1
1
1
1
1
1
1
1
1
1
1
1
1
1
1
1
1
1
1
1
1
1
1
1
1
1
1
1
1
1
1
1
1
1
1
1.03778
3.96623
9.29952
9.81934
9.77669
9.85499
9.90368
9.8712
9.75591
9.62233
9.52294
9.47296
9.45245
9.43188
9.38445
9.30009
9.16587
8.98913
8.7794
8.54548
8.29816
8.05259
7.80866
7.55961
7.28879
7.00548
6.68776
6.33334
5.95692
5.55686
1
1
1
1
1
1
1
1
1
1
1
1
1
1
1
1
1
1
1
1
1
1
1
1
1
1
1
1
1
1
1
1
1
1
1
1
1
1
1
1
1
1
1
1
1
1
1
1
1
1
1
1
1
1
1
1
1
1
1
1
1
1
1
1
1
1
1.00008
1.20069
5.53185
9.66205
9.70092
9.64305
9.70323
9.74179
9.69199
9.56947
9.42123
9.29959
9.21733
9.15867
9.11239
9.05263
8.9537
8.81772
8.65058
8.44296
8.20268
7.94753
7.68737
7.43489
7.18106
6.91684
6.62581
6.30835
5.97723
5.62759
1
1
1
1
1
1
1
1
1
1
1
1
1
1
1
1
1
1
1
1
1
1
1
1
1
1
1
1
1
1
1
1
1
1
1
1
1
1
1
1
1
1
1
1
1
1
1
1
1
1
1
1
1
1
1
1
1
1
1
1
1
1
1
1
1
1
1
1.00122
1.48555
6.70037
9.59634
9.58171
9.53708
9.57104
9.57878
9.5142
9.38897
9.24267
9.10534
8.98797
8.88951
8.79934
8.70089
8.59386
8.46485
8.30282
8.10048
7.86674
7.61896
7.37439
7.13208
6.87459
6.60318
6.31688
6.01853
5.70507
1
1
1
1
1
1
1
1
1
1
1
1
1
1
1
1
1
1
1
1
1
1
1
1
1
1
1
1
1
1
1
1
1
1
1
1
1
1
1
1
1
1
1
1
1
1
1
1
1
1
1
1
1
1
1
1
1
1
1
1
1
1
1
1
1
1
1
1
1.00619
1.86369
7.54496
9.39869
9.38421
9.38011
9.39557
9.38029
9.31817
9.2097
9.0729
8.92883
8.78789
8.64833
8.51213
8.38427
8.26319
8.12406
7.96224
7.76748
7.54956
7.32765
7.10596
6.86555
6.61366
6.34528
6.07048
5.78435
1
1
1
1
1
1
1
1
1
1
1
1
1
1
1
1
1
1
1
1
1
1
1
1
1
1
1
1
1
1
1
1
1
1
1
1
1
1
1
1
1
1
1
1
1
1
1
1
1
1
1
1
1
1
1
1
1
1
1
1
1
1
1
1
1
1
1
1
1.00001
1.01816
2.44697
7.97861
9.27817
9.21171
9.1763
9.16486
9.15014
9.10222
9.01124
8.88384
8.73748
8.5837
8.4232
8.264
8.11533
7.96975
7.81378
7.64542
7.46352
7.27208
7.0693
6.84942
6.61825
6.37117
6.12255
5.86426
1
1
1
1
1
1
1
1
1
1
1
1
1
1
1
1
1
1
1
1
1
1
1
1
1
1
1
1
1
1
1
1
1
1
1
1
1
1
1
1
1
1
1
1
1
1
1
1
1
1
1
1
1
1
1
1
1
1
1
1
1
1
1
1
1
1
1
1
1
1.00003
1.04556
2.8959
8.16292
9.14549
9.06096
8.99604
8.95516
8.90448
8.86036
8.78386
8.67166
8.53294
8.37827
8.21597
8.05161
7.88617
7.71459
7.54293
7.3763
7.20524
7.01637
6.81107
6.60139
6.37841
6.15778
5.93224
1
1
1
1
1
1
1
1
1
1
1
1
1
1
1
1
1
1
1
1
1
1
1
1
1
1
1
1
1
1
1
1
1
1
1
1
1
1
1
1
1
1
1
1
1
1
1
1
1
1
1
1
1
1
1
1
1
1
1
1
1
1
1
1
1
1
1
1
1
1
1.00013
1.07836
3.10599
8.15453
9.00612
8.9186
8.83547
8.75483
8.69102
8.63276
8.55295
8.44775
8.32114
8.17567
8.01334
7.83925
7.66291
7.49374
7.3287
7.15686
6.96852
6.76737
6.56903
6.36323
6.16759
5.97499
1
1
1
1
1
1
1
1
1
1
1
1
1
1
1
1
1
1
1
1
1
1
1
1
1
1
1
1
1
1
1
1
1
1
1
1
1
1
1
1
1
1
1
1
1
1
1
1
1
1
1
1
1
1
1
1
1
1
1
1
1
1
1
1
1
1
1
1
1
1
1
1.0003
1.09767
3.09446
8.01647
8.84528
8.76693
8.67195
8.5794
8.50018
8.42415
8.33603
8.23156
8.10676
7.9587
7.79345
7.62743
7.4664
7.30369
7.13499
6.95254
6.75212
6.55585
6.35812
6.17376
6.00359
1
1
1
1
1
1
1
1
1
1
1
1
1
1
1
1
1
1
1
1
1
1
1
1
1
1
1
1
1
1
1
1
1
1
1
1
1
1
1
1
1
1
1
1
1
1
1
1
1
1
1
1
1
1
1
1
1
1
1
1
1
1
1
1
1
1
1
1
1
1
1
1
1.00044
1.09772
2.91226
7.73405
8.63749
8.6115
8.51126
8.42834
8.33866
8.24312
8.13974
8.01959
7.88066
7.73079
7.5821
7.43664
7.28595
7.12645
6.95466
6.76249
6.56874
6.37724
6.19382
6.03299
1
1
1
1
1
1
1
1
1
1
1
1
1
1
1
1
1
1
1
1
1
1
1
1
1
1
1
1
1
1
1
1
1
1
1
1
1
1
1
1
1
1
1
1
1
1
1
1
1
1
1
1
1
1
1
1
1
1
1
1
1
1
1
1
1
1
1
1
1
1
1
1
1
1.00045
1.08318
2.6943
7.13894
8.42646
8.51202
8.39645
8.30103
8.18968
8.06358
7.93244
7.79992
7.66655
7.5313
7.39536
7.25589
7.10944
6.95468
6.78218
6.59933
6.41619
6.2303
6.06754
1
1
1
1
1
1
1
1
1
1
1
1
1
1
1
1
1
1
1
1
1
1
1
1
1
1
1
1
1
1
1
1
1
1
1
1
1
1
1
1
1
1
1
1
1
1
1
1
1
1
1
1
1
1
1
1
1
1
1
1
1
1
1
1
1
1
1
1
1
1
1
1
1
1
1.00037
1.06541
2.3409
6.30492
8.25495
8.39635
8.2585
8.13232
8.00797
7.87322
7.74069
7.61449
7.48845
7.35901
7.22617
7.08853
6.94853
6.79617
6.62623
6.45298
6.27029
6.10409
1
1
1
1
1
1
1
1
1
1
1
1
1
1
1
1
1
1
1
1
1
1
1
1
1
1
1
1
1
1
1
1
1
1
1
1
1
1
1
1
1
1
1
1
1
1
1
1
1
1
1
1
1
1
1
1
1
1
1
1
1
1
1
1
1
1
1
1
1
1
1
1
1
1
1
1.00026
1.04116
1.94627
5.29689
8.03412
8.22753
8.09682
7.96193
7.84439
7.71771
7.59024
7.46559
7.34255
7.21659
7.08199
6.94624
6.79818
6.6338
6.47104
6.30097
6.14106
1
1
1
1
1
1
1
1
1
1
1
1
1
1
1
1
1
1
1
1
1
1
1
1
1
1
1
1
1
1
1
1
1
1
1
1
1
1
1
1
1
1
1
1
1
1
1
1
1
1
1
1
1
1
1
1
1
1
1
1
1
1
1
1
1
1
1
1
1
1
1
1
1
1
1
1
1.00013
1.02186
1.57334
4.16652
7.62939
8.05884
7.98979
7.81862
7.69686
7.58042
7.46413
7.34378
7.21866
7.08353
6.9417
6.7859
6.62876
6.47449
6.32142
6.18167
1
1
1
1
1
1
1
1
1
1
1
1
1
1
1
1
1
1
1
1
1
1
1
1
1
1
1
1
1
1
1
1
1
1
1
1
1
1
1
1
1
1
1
1
1
1
1
1
1
1
1
1
1
1
1
1
1
1
1
1
1
1
1
1
1
1
1
1
1
1
1
1
1
1
1
1
1
1.00005
1.00902
1.28255
3.23257
6.91537
7.79778
7.79027
7.66068
7.55096
7.45203
7.34469
7.22126
7.08786
6.93986
6.78099
6.62865
6.48155
6.3491
6.22496
1
1
1
1
1
1
1
1
1
1
1
1
1
1
1
1
1
1
1
1
1
1
1
1
1
1
1
1
1
1
1
1
1
1
1
1
1
1
1
1
1
1
1
1
1
1
1
1
1
1
1
1
1
1
1
1
1
1
1
1
1
1
1
1
1
1
1
1
1
1
1
1
1
1
1
1
1
1
1.00001
1.00277
1.13034
2.49862
5.66342
7.4805
7.66331
7.59433
7.45161
7.3405
7.22714
7.09436
6.94141
6.78609
6.64227
6.5071
6.39374
6.27659
1
1
1
1
1
1
1
1
1
1
1
1
1
1
1
1
1
1
1
1
1
1
1
1
1
1
1
1
1
1
1
1
1
1
1
1
1
1
1
1
1
1
1
1
1
1
1
1
1
1
1
1
1
1
1
1
1
1
1
1
1
1
1
1
1
1
1
1
1
1
1
1
1
1
1
1
1
1
1
1
1.00084
1.05635
1.80328
4.30752
6.92248
7.4869
7.51408
7.37044
7.24228
7.11051
6.95585
6.80051
6.66435
6.5462
6.44
6.33065
1
1
1
1
1
1
1
1
1
1
1
1
1
1
1
1
1
1
1
1
1
1
1
1
1
1
1
1
1
1
1
1
1
1
1
1
1
1
1
1
1
1
1
1
1
1
1
1
1
1
1
1
1
1
1
1
1
1
1
1
1
1
1
1
1
1
1
1
1
1
1
1
1
1
1
1
1
1
1
1
1
1.00023
1.01751
1.3494
3.04311
5.91925
7.224
7.36631
7.28849
7.10807
6.96365
6.84001
6.72458
6.60451
6.48867
6.3903
1
1
1
1
1
1
1
1
1
1
1
1
1
1
1
1
1
1
1
1
1
1
1
1
1
1
1
1
1
1
1
1
1
1
1
1
1
1
1
1
1
1
1
1
1
1
1
1
1
1
1
1
1
1
1
1
1
1
1
1
1
1
1
1
1
1
1
1
1
1
1
1
1
1
1
1
1
1
1
1
1
1
1.00004
1.00427
1.11823
2.09856
4.40718
6.75438
7.24266
7.15621
6.98252
6.85014
6.74535
6.63662
6.54084
6.44302
1
1
1
1
1
1
1
1
1
1
1
1
1
1
1
1
1
1
1
1
1
1
1
1
1
1
1
1
1
1
1
1
1
1
1
1
1
1
1
1
1
1
1
1
1
1
1
1
1
1
1
1
1
1
1
1
1
1
1
1
1
1
1
1
1
1
1
1
1
1
1
1
1
1
1
1
1
1
1
1
1
1
1
1.00001
1.00073
1.03386
1.42274
3.13242
5.66595
6.7985
6.98505
6.94647
6.84152
6.72465
6.58946
6.43903
1
1
1
1
1
1
1
1
1
1
1
1
1
1
1
1
1
1
1
1
1
1
1
1
1
1
1
1
1
1
1
1
1
1
1
1
1
1
1
1
1
1
1
1
1
1
1
1
1
1
1
1
1
1
1
1
1
1
1
1
1
1
1
1
1
1
1
1
1
1
1
1
1
1
1
1
1
1
1
1
1
1
1
1
1
1.00011
1.00627
1.13727
2.02766
4.05948
6.29199
6.72128
6.76407
6.7737
6.67215
6.53545
1
1
1
1
1
1
1
1
1
1
1
1
1
1
1
1
1
1
1
1
1
1
1
1
1
1
1
1
1
1
1
1
1
1
1
1
1
1
1
1
1
1
1
1
1
1
1
1
1
1
1
1
1
1
1
1
1
1
1
1
1
1
1
1
1
1
1
1
1
1
1
1
1
1
1
1
1
1
1
1
1
1
1
1
1
1
1.00001
1.00094
1.03119
1.35851
2.68336
5.0314
6.30299
6.53337
6.62707
6.63465
1
1
1
1
1
1
1
1
1
1
1
1
1
1
1
1
1
1
1
1
1
1
1
1
1
1
1
1
1
1
1
1
1
1
1
1
1
1
1
1
1
1
1
1
1
1
1
1
1
1
1
1
1
1
1
1
1
1
1
1
1
1
1
1
1
1
1
1
1
1
1
1
1
1
1
1
1
1
1
1
1
1
1
1
1
1
1
1
1.00009
1.00508
1.08852
1.73118
3.37858
5.25084
6.26381
6.57729
1
1
1
1
1
1
1
1
1
1
1
1
1
1
1
1
1
1
1
1
1
1
1
1
1
1
1
1
1
1
1
1
1
1
1
1
1
1
1
1
1
1
1
1
1
1
1
1
1
1
1
1
1
1
1
1
1
1
1
1
1
1
1
1
1
1
1
1
1
1
1
1
1
1
1
1
1
1
1
1
1
1
1
1
1
1
1
1
1
1.00001
1.0005
1.01695
1.20121
2.04527
3.78761
5.64679
1
1
1
1
1
1
1
1
1
1
1
1
1
1
1
1
1
1
1
1
1
1
1
1
1
1
1
1
1
1
1
1
1
1
1
1
1
1
1
1
1
1
1
1
1
1
1
1
1
1
1
1
1
1
1
1
1
1
1
1
1
1
1
1
1
1
1
1
1
1
1
1
1
1
1
1
1
1
1
1
1
1
1
1
1
1
1
1
1
1
1
1.00004
1.00186
1.0364
1.32991
2.45339
1
1
1
1
1
1
1
1
1
1
1
1
1
1
1
1
1
1
1
1
1
1
1
1
1
1
1
1
1
1
1
1
1
1
1
1
1
1
1
1
1
1
1
1
1
1
1
1
1
1
1
1
1
1
1
1
1
1
1
1
1
1
1
1
1
1
1
1
1
1
1
1
1
1
1
1
1
1
1
1
1
1
1
1
1
1
1
1
1
1
1
1
1
1.00013
1.00476
1.06969
1
1
1
1
1
1
1
1
1
1
1
1
1
1
1
1
1
1
1
1
1
1
1
1
1
1
1
1
1
1
1
1
1
1
1
1
1
1
1
1
1
1
1
1
1
1
1
1
1
1
1
1
1
1
1
1
1
1
1
1
1
1
1
1
1
1
1
1
1
1
1
1
1
1
1
1
1
1
1
1
1
1
1
1
1
1
1
1
1
1
1
1
1
1
1.00001
1.00034
1
1
1
1
1
1
1
1
1
1
1
1
1
1
1
1
1
1
1
1
1
1
1
1
1
1
1
1
1
1
1
1
1
1
1
1
1
1
1
1
1
1
1
1
1
1
1
1
1
1
1
1
1
1
1
1
1
1
1
1
1
1
1
1
1
1
1
1
1
1
1
1
1
1
1
1
1
1
1
1
1
1
1
1
1
1
1
1
1
1
1
1
1
1
1
1
1
1
1
1
1
1
1
1
1
1
1
1
1
1
1
1
1
1
1
1
1
1
1
1
1
1
1
1
1
1
1
1
1
1
1
1
1
1
1
1
1
1
1
1
1
1
1
1
1
1
1
1
1
1
1
1
1
1
1
1
1
1
1
1
1
1
1
1
1
1
1
1
1
1
1
1
1
1
1
1
1
1
1
1
1
1
1
1
1
1
1
1
1
1
1
1
1
1
1
1
1
1
1
1
1
1
1
1
1
1
1
1
1
1
1
1
1
1
1
1
1
1
1
1
1
1
1
1
1
1
1
1
1
1
1
1
1
1
1
1
1
1
1
1
1
1
1
1
1
1
1
1
1
1
1
1
1
1
1
1
1
1
1
1
1
1
1
1
1
1
1
1
1
1
1
1
1
1
1
1
1
1
1
1
1
1
1
1
1
1
1
1
1
1
1
1
1
1
1
1
1
1
1
1
1
1
1
1
1
1
1
1
1
1
1
1
1
1
1
1
1
1
1
1
1
1
1
1
1
1
1
1
1
1
1
1
1
1
1
1
1
1
1
1
1
1
1
1
1
1
1
1
1
1
1
1
1
1
1
1
1
1
1
1
1
1
1
1
1
1
1
1
1
1
1
1
1
1
1
1
1
1
1
1
1
1
1
1
1
1
1
1
1
1
1
1
1
1
1
1
1
1
1
1
1
1
1
1
1
1
1
1
1
1
1
1
1
1
1
1
1
1
1
1
1
1
1
1
1
1
1
1
1
1
1
1
1
1
1
1
1
1
1
1
1
1
1
1
1
1
1
1
1
1
1
1
1
1
1
1
1
1
1
1
1
1
1
1
1
1
1
1
1
1
1
1
1
1
1
1
1
1
1
1
1
1
1
1
1
1
1
1
1
1
1
1
1
1
1
1
1
1
1
1
1
1
1
1
1
1
1
1
1
1
1
1
1
1
1
1
1
1
1
1
1
1
1
1
1
1
1
1
1
1
1
1
1
1
1
1
1
1
1
1
1
1
1
1
1
1
1
1
1
1
1
1
1
1
1
1
1
1
1
1
1
1
1
1
1
1
1
1
1
1
1
1
1
1
1
1
1
1
1
1
1
1
1
1
1
1
1
1
1
1
1
1
1
1
1
1
1
1
1
1
1
1
1
1
1
1
1
1
1
1
1
1
1
1
1
1
1
1
1
1
1
1
1
1
1
1
1
1
1
1
1
1
1
1
1
1
1
1
1
1
1
1
1
1
1
1
1
1
1
1
1
1
1
1
1
1
1
1
1
1
1
1
1
1
1
1
1
1
1
1
1
1
1
1
1
1
1
1
1
1
1
1
1
1
1
1
1
1
1
1
1
1
1
1
1
1
1
1
1
1
1
1
1
1
1
1
1
1
1
1
1
1
1
1
1
1
1
1
1
1
1
1
1
1
1
1
1
1
1
1
1
1
1
1
1
1
1
1
1
1
1
1
1
1
1
1
1
1
1
1
1
1
1
1
1
1
1
1
1
1
1
1
1
1
1
1
1
1
1
1
1
1
1
1
1
1
1
1
1
1
1
1
1
1
1
1
1
1
1
1
1
1
1
1
1
1
1
1
1
1
1
1
1
1
1
1
1
1
1
1
1
1
1
1
1
1
1
1
1
1
1
1
1
1
1
1
1
1
1
1
1
1
1
1
1
1
1
1
1
1
1
1
1
1
1
1
1
1
1
1
1
1
1
1
1
1
1
1
1
1
1
1
1
1
1
1
1
1
1
1
1
1
1
1
1
1
1
1
1
1
1
1
1
1
1
1
1
1
1
1
1
1
1
1
1
1
1
1
1
1
1
1
1
1
1
1
1
1
1
1
1
1
1
1
1
1
1
1
1
1
1
1
1
1
1
1
1
1
1
1
1
1
1
1
1
1
1
1
1
1
1
1
1
1
1
1
1
1
1
1
1
1
1
1
1
1
1
1
1
1
1
1
1
1
1
1
1
1
1
1
1
1
1
1
1
1
1
1
1
1
1
1
1
1
1
1
1
1
1
1
1
1
1
1
1
1
1
1
1
1
1
1
1
1
1
1
1
1
1
1
1
1
1
1
1
1
1
1
1
1
1
1
1
1
1
1
1
1
1
1
1
1
1
1
1
1
1
1
1
1
1
1
1
1
1
1
1
1
1
1
1
1
1
1
1
1
1
1
1
1
1
1
1
1
1
1
1
1
1
1
1
1
1
1
1
1
1
1
1
1
1
1
1
1
1
1
1
1
1
1
1
1
1
1
1
1
1
1
1
1
1
1
1
1
1
1
1
1
1
1
1
1
1
1
1
1
1
1
1
1
1
1
1
1
1
1
1
1
1
1
1
1
1
1
1
1
1
1
1
1
1
1
1
1
1
1
1
1
1
1
1
1
1
1
1
1
1
1
1
1
1
1
1
1
1
1
1
1
1
1
1
1
1
1
1
1
1
1
1
1
1
1
1
1
1
1
1
1
1
1
1
1
1
1
1
1
1
1
1
1
1
1
1
1
1
1
1
1
1
1
1
1
1
1
1
1
1
1
1
1
1
1
1
1
1
1
1
1
1
1
1
1
1
1
1
1
1
1
1
1
1
1
1
1
1
1
1
1
1
1
1
1
1
1
1
1
1
1
1
1
1
1
1
1
1
1
1
1
1
1
1
1
1
1
1
1
1
1
1
1
1
1
1
1
1
1
1
1
1
1
1
1
1
1
1
1
1
1
1
1
1
1
1
1
1
1
1
1
1
1
1
1
1
1
1
1
1
1
1
1
1
1
1
1
1
1
1
1
1
1
1
1
1
1
1
1
1
1
1
1
1
1
1
1
1
1
1
1
1
1
1
1
1
1
1
1
1
1
1
1
1
1
1
1
1
1
1
1
1
1
1
1
1
1
1
1
1
1
1
1
1
1
1
1
1
1
1
1
1
1
1
1
1
1
1
1
1
1
1
1
1
1
1
1
1
1
1
1
1
1
1
1
1
1
1
1
1
1
1
1
1
1
1
1
1
1
1
1
1
1
1
1
1
1
1
1
1
1
1
1
1
1
1
1
1
1
1
1
1
1
1
1
1
1
1
1
1
1
1
1
1
1
1
1
1
1
1
1
1
1
1
1
1
1
1
1
1
1
1
1
1
1
1
1
1
1
1
1
1
1
1
1
1
1
1
1
1
1
1
1
1
1
1
1
1
1
1
1
1
1
1
1
1
1
1
1
1
1
1
1
1
1
1
1
1
1
1
1
1
1
1
1
1
1
1
1
1
1
1
1
1
1
1
1
1
1
1
1
1
1
1
1
1
1
1
1
1
1
1
1
1
1
1
1
1
1
1
1
1
1
1
1
1
1
1
1
1
1
1
1
1
1
1
1
1
1
1
1
1
1
1
1
1
1
1
1
1
1
1
1
1
1
1
1
1
1
1
1
1
1
1
1
1
1
1
1
1
1
1
1
1
1
1
1
1
1
1
1
1
1
1
1
1
1
1
1
1
1
1
1
1
1
1
1
1
1
1
1
1
1
1
1
1
1
1
1
1
1
1
1
1
1
1
1
1
1
1
1
1
1
1
1
1
1
1
1
1
1
1
1
1
1
1
1
1
1
1
1
1
1
1
1
1
1
1
1
1
1
1
1
1
1
1
1
1
1
1
1
1
1
1
1
1
1
1
1
1
1
1
1
1
1
1
1
1
1
1
1
1
1
1
1
1
1
1
1
1
1
1
1
1
1
1
1
1
1
1
1
1
1
1
1
1
1
1
1
1
1
1
1
1
1
1
1
1
1
1
1
1
1
1
1
1
1
1
1
1
1
1
1
1
1
1
1
1
1
1
1
1
1
1
1
1
1
1
1
1
1
1
1
1
1
1
1
1
1
1
1
1
1
1
1
1
1
1
1
1
1
1
1
1
1
1
1
1
1
1
1
1
1
1
1
1
1
1
1
1
1
1
1
1
1
1
1
1
1
1
1
1
1
1
1
1
1
1
1
1
1
1
1
1
1
1
1
1
1
1
1
1
1
1
1
1
1
1
1
1
1
1
1
1
1
1
1
1
1
1
1
1
1
1
1
1
1
1
1
1
1
1
1
1
1
1
1
1
1
1
1
1
1
1
1
1
1
1
1
1
1
1
1
1
1
1
1
1
1
1
1
1
1
1
1
1
1
1
1
1
1
1
1
1
1
1
1
1
1
1
1
1
1
1
1
1
1
1
1
1
1
1
1
1
1
1
1
1
1
1
1
1
1
1
1
1
1
1
1
1
1
1
1
1
1
1
1
1
1
1
1
1
1
1
1
1
1
1
1
1
1
1
1
1
1
1
1
1
1
1
1
1
1
1
1
1
1
1
1
1
1
1
1
1
1
1
1
1
1
1
1
1
1
1
1
1
1
1
1
1
1
1
1
1
1
1
1
1
1
1
1
1
1
1
1
1
1
1
1
1
1
1
1
1
1
1
1
1
1
1
1
1
1
1
1
1
1
1
1
1
1
1
1
1
1
1
1
1
1
1
1
1
1
1
1
1
1
1
1
1
1
1
1
1
1
1
1
1
1
1
1
1
1
1
1
1
1
1
1
1
1
1
1
1
1
1
1
1
1
1
1
1
1
1
1
1
1
1
1
1
1
1
1
1
1
1
1
1
1
1
1
1
1
1
1
1
1
1
1
1
1
1
1
1
1
1
1
1
1
1
1
1
1
1
1
1
1
1
1
1
1
1
1
1
1
1
1
1
1
1
1
1
1
1
1
1
1
1
1
1
1
1
1
1
1
1
1
1
1
1
1
1
1
1
1
1
1
1
1
1
1
1
1
1
1
1
1
1
1
1
1
1
1
1
1
1
1
1
1
1
1
1
1
1
1
1
1
1
1
1
1
1
1
1
1
1
1
1
1
1
1
1
1
1
1
1
1
1
1
1
1
1
1
1
1
1
1
1
1
1
1
1
1
1
1
1
1
1
1
1
1
1
1
1
1
1
1
1
1
1
1
1
1
1
1
1
1
1
1
1
1
1
1
1
1
1
1
1
1
1
1
1
1
1
1
1
1
1
1
1
1
1
1
1
1
1
1
1
1
1
1
1
1
1
1
1
1
1
1
1
1
1
1
1
1
1
1
1
1
1
1
1
1
1
1
1
1
1
1
1
1
1
1
1
1
1
1
1
1
1
1
1
1
1
1
1
1
1
1
1
1
1
1
1
1
1
1
1
1
1
1
1
1
1
1
1
1
1
1
1
1
1
1
1
1
1
1
1
1
1
1
1
1
1
1
1
1
1
1
1
1
1
1
1
1
1
1
1
1
1
1
1
1
1
1
1
1
1
1
1
1
1
1
1
1
1
1
1
1
1
1
1
1
1
1
1
1
1
1
1
1
1
1
1
1
1
1
1
1
1
1
1
1
1
1
1
1
1
1
1
1
1
1
1
1
1
1
1
1
1
1
1
1
1
1
1
1
1
1
1
1
1
1
1
1
1
1
1
1
1
1
1
1
1
1
1
1
1
1
1
1
1
1
1
1
1
1
1
1
1
1
1
1
1
1
1
1
1
1
1
1
1
1
1
1
1
1
1
1
1
1
1
1
1
1
1
1
1
1
1
1
1
1
1
1
1
1
1
1
1
1
1
1
1
1
1
1
1
1
1
1
1
1
1
1
1
1
1
1
1
1
1
1
1
1
1
1
1
1
1
1
1
1
1
1
1
1
1
1
1
1
1
1
1
1
1
1
1
1
1
1
1
1
1
1
1
1
1
1
1
1
1
1
1
1
1
1
1
1
1
1
1
1
1
1
1
1
1
1
1
1
1
1
1
1
1
1
1
1
1
1
1
1
1
1
1
1
1
1
1
1
1
1
1
1
1
1
1
1
1
1
1
1
1
1
1
1
1
1
1
1
1
1
1
1
1
1
1
1
1
1
1
1
1
1
1
1
1
1
1
1
1
1
1
1
1
1
1
1
1
1
1
1
1
1
1
1
1
1
1
1
1
1
1
1
1
1
1
1
1
1
1
1
1
1
1
1
1
1
1
1
1
1
1
1
1
1
1
1
1
1
1
1
1
1
1
1
1
1
1
1
1
1
1
1
1
1
1
1
1
1
1
1
1
1
1
1
1
1
1
1
1
1
1
1
1
1
1
1
1
1
1
1
1
1
1
1
1
1
1
1
1
1
1
1
1
1
1
1
1
1
1
1
1
1
1
1
1
1
1
1
1
1
1
1
1
1
1
1
1
1
1
1
1
1
1
1
1
1
1
1
1
1
1
1
1
1
1
1
1
1
1
1
1
1
1
1
1
1
1
1
1
1
1
1
1
1
1
1
1
1
1
1
1
1
1
1
1
1
1
1
1
1
1
1
1
1
1
1
1
1
1
1
1
1
1
1
1
1
1
1
1
1
1
1
1
1
1
1
1
1
1
1
1
1
1
1
1
1
1
1
1
1
1
1
1
1
1
1
1
1
1
1
1
1
1
1
1
1
1
1
1
1
1
1
1
1
1
1
1
1
1
1
1
1
1
1
1
1
1.21909
0.227385
0.0334373
0.0393778
0.0754913
0.0831619
0.092326
0.122704
0.183777
0.258574
0.334855
0.425819
0.538981
0.578475
0.601786
0.632049
0.679906
0.734996
0.783009
0.820084
0.860452
0.883095
0.892218
0.891477
0.875248
0.86938
0.867202
0.87606
0.900921
0.93377
0.957373
0.965732
0.964626
0.956999
0.946728
0.945033
0.948257
0.953167
0.958003
0.959734
0.960214
0.962936
0.96985
0.974923
0.977414
0.979671
0.981915
0.98175
0.977998
0.972967
0.969909
0.969676
0.974406
0.980682
0.980545
0.978943
0.97596
0.968951
0.959106
0.953276
0.952122
0.952788
0.952273
0.950644
0.948239
0.944106
0.93598
0.923626
0.915013
0.911188
0.907868
0.904819
0.90077
0.896072
0.891282
0.885469
0.876803
0.867509
0.86423
0.863361
0.863241
0.863793
0.86409
0.864235
0.862982
0.858819
0.852194
0.849935
0.852806
0.857799
0.864752
0.873526
0.882201
0.887707
0.889864
0.891203
0.892583
0.893726
0.894488
0.895332
0.897188
0.898656
0.899525
0.900159
0.901443
0.903121
0.905123
0.907967
0.911963
0.916834
0.92124
0.92585
0.928979
0.929106
0.928399
0.929047
0.93049
0.931585
0.932249
0.932382
0.932579
0.933642
0.935464
0.937598
0.93982
0.942585
0.945536
0.948048
0.949784
0.951819
0.956259
0.963263
0.969897
0.975191
0.980788
0.981075
0.979254
0.982365
0.984435
0.985263
0.986762
0.992045
1.00188
1.00588
1.00374
1.00202
1.00206
1.00536
1.00717
1.00623
1.00595
1.00623
1.00645
1.0067
1.00669
1.00639
1.00655
1.0084
1.01286
1.01828
1.02035
1.02011
1.01957
1.01914
1.01876
1.01849
1.01832
1.01822
1.01828
1.01911
1.02166
1.02628
1.03059
1.0318
1.03181
1.0317
1.0314
1.03064
1.02904
1.02642
1.0235
1.02168
1.02112
1.02097
1.02086
1.02068
1.02038
1.01984
1.01889
1.01716
1.01418
1.00724
2.18987
0.915274
0.316584
0.291796
0.304862
0.255561
0.198114
0.198103
0.205832
0.218857
0.239833
0.262403
0.306572
0.36805
0.429954
0.48518
0.535308
0.585261
0.634504
0.69443
0.756077
0.79749
0.813857
0.834765
0.852349
0.860975
0.873255
0.891066
0.912391
0.926648
0.934418
0.939736
0.940108
0.936658
0.934741
0.936955
0.939806
0.94412
0.952753
0.961462
0.965843
0.970548
0.974725
0.975017
0.974437
0.973631
0.973761
0.974386
0.972387
0.968938
0.966558
0.967071
0.971019
0.975521
0.976698
0.975829
0.973423
0.968643
0.96172
0.956545
0.953886
0.952085
0.950312
0.948525
0.946387
0.942957
0.936794
0.927508
0.918153
0.911325
0.906052
0.901681
0.897634
0.893353
0.888602
0.883286
0.876689
0.86775
0.859013
0.856004
0.855466
0.856276
0.858994
0.861462
0.863012
0.863857
0.863212
0.860293
0.858096
0.860186
0.86405
0.868809
0.874428
0.879844
0.884534
0.888703
0.891815
0.89388
0.895713
0.897511
0.899705
0.90162
0.90316
0.904399
0.904899
0.905111
0.906125
0.907535
0.909559
0.912207
0.915559
0.919213
0.920749
0.922009
0.924488
0.927754
0.931518
0.934749
0.937438
0.939677
0.939801
0.939325
0.939791
0.941366
0.94367
0.946422
0.949027
0.951203
0.952689
0.953903
0.95549
0.957933
0.962559
0.969257
0.972033
0.96725
0.966577
0.972894
0.976762
0.978619
0.98083
0.985452
0.992628
0.997929
0.99809
0.997151
0.997269
1.00028
1.0028
1.0022
1.00215
1.00268
1.00322
1.00404
1.00452
1.00468
1.00522
1.00725
1.01148
1.01684
1.01935
1.01922
1.01874
1.01838
1.01816
1.01802
1.01793
1.01788
1.01803
1.01905
1.02165
1.02606
1.0303
1.03168
1.03171
1.03161
1.03131
1.03057
1.02898
1.02637
1.02349
1.02179
1.02124
1.02105
1.02091
1.02071
1.02037
1.0198
1.01885
1.01717
1.01425
1.00735
2.85647
1.71728
1.02341
0.752494
0.59599
0.498328
0.402405
0.355237
0.326632
0.295863
0.291252
0.297634
0.309375
0.341597
0.378189
0.413758
0.446622
0.476717
0.511877
0.564235
0.63135
0.687612
0.72683
0.765516
0.815012
0.857277
0.890246
0.923454
0.937379
0.938844
0.942968
0.946873
0.943297
0.933816
0.92988
0.932457
0.934372
0.936656
0.94491
0.95583
0.963035
0.968812
0.973306
0.974822
0.974778
0.972903
0.970711
0.969186
0.966509
0.965537
0.966502
0.970267
0.975826
0.97726
0.97688
0.974566
0.969774
0.963469
0.958112
0.956502
0.956435
0.95576
0.954204
0.951401
0.947361
0.941733
0.934484
0.926367
0.918509
0.911821
0.906097
0.900846
0.895794
0.890584
0.885159
0.880205
0.875975
0.870992
0.864469
0.858116
0.854056
0.852189
0.851438
0.852105
0.854533
0.858467
0.862822
0.86589
0.867771
0.870565
0.873619
0.875104
0.875506
0.876063
0.878414
0.882475
0.887272
0.890109
0.892318
0.894517
0.897081
0.899555
0.901821
0.904167
0.906661
0.909572
0.91266
0.914969
0.916859
0.918465
0.919999
0.919301
0.917645
0.917792
0.919363
0.921793
0.925452
0.928879
0.932107
0.935704
0.937009
0.93556
0.933639
0.933355
0.934929
0.937324
0.940036
0.942791
0.946622
0.951506
0.954596
0.957231
0.961965
0.967765
0.97537
0.977141
0.974693
0.980204
0.984887
0.986848
0.988526
0.99234
0.998733
1.00236
1.00187
1.00119
1.00197
1.0057
1.00643
1.00544
1.00541
1.00581
1.00606
1.00634
1.00652
1.00671
1.00745
1.00936
1.01313
1.01792
1.01987
1.0196
1.01911
1.01878
1.01857
1.01845
1.01839
1.01838
1.01866
1.01976
1.02228
1.02653
1.03056
1.03178
1.03178
1.03165
1.03131
1.03053
1.02891
1.02628
1.02347
1.02186
1.02137
1.0212
1.02105
1.02084
1.02048
1.01988
1.01885
1.01703
1.01399
1.00707
3.47388
2.46296
1.77943
1.33144
1.00861
0.776202
0.685339
0.6262
0.559618
0.487158
0.463441
0.447292
0.416125
0.40196
0.396686
0.396822
0.402946
0.410365
0.416811
0.426636
0.457223
0.509252
0.576704
0.636632
0.69807
0.75971
0.80558
0.854314
0.877133
0.882831
0.896333
0.919703
0.927835
0.930733
0.937771
0.947495
0.947197
0.943091
0.945182
0.950563
0.954049
0.957093
0.960092
0.962344
0.96459
0.966941
0.968301
0.968685
0.967394
0.965989
0.967682
0.971535
0.973746
0.974388
0.974523
0.97293
0.968355
0.961883
0.958066
0.957874
0.957426
0.95637
0.955153
0.953047
0.948938
0.942382
0.933601
0.924667
0.917384
0.911624
0.906673
0.901969
0.897053
0.891574
0.885598
0.879544
0.874125
0.869437
0.864788
0.860406
0.857794
0.856576
0.856067
0.856263
0.85679
0.858441
0.860935
0.862712
0.864281
0.867599
0.871145
0.873543
0.875653
0.877709
0.880313
0.88428
0.888951
0.891749
0.893848
0.895843
0.898362
0.900596
0.902215
0.903329
0.904456
0.905652
0.907886
0.910952
0.913757
0.916677
0.919679
0.922667
0.924172
0.92418
0.924661
0.926396
0.928251
0.929901
0.932542
0.935416
0.935875
0.935241
0.933536
0.931725
0.932037
0.933112
0.933917
0.934821
0.938225
0.945521
0.952911
0.954424
0.952476
0.954814
0.965347
0.974715
0.973476
0.977792
0.983724
0.9867
0.988592
0.992135
0.998652
1.0017
1.00054
0.999715
1.00137
1.00598
1.0061
1.00544
1.00568
1.00582
1.00595
1.00608
1.00608
1.00635
1.00745