/*--------------------------------*- C++ -*----------------------------------*\
  =========                 |
  \\      /  F ield         | OpenFOAM: The Open Source CFD Toolbox
   \\    /   O peration     | Website:  https://openfoam.org
    \\  /    A nd           | Version:  7
     \\/     M anipulation  |
\*---------------------------------------------------------------------------*/
FoamFile
{
    version     2.0;
    format      ascii;
    class       volScalarField;
    location    "0.6";
    object      rho;
}
// * * * * * * * * * * * * * * * * * * * * * * * * * * * * * * * * * * * * * //

dimensions      [1 -3 0 0 0 0 0];

internalField   nonuniform List<scalar> 
19968
(
1.40001
1.40001
1.40001
1.40001
1.40001
1.40001
1.40001
1.40001
1.40001
1.40001
1.40001
1.40001
1.40001
1.40001
1.40001
1.40001
1.40001
1.40001
1.40001
1.40001
1.40001
1.40001
1.40001
1.40001
1.40001
1.40001
1.40001
1.40001
1.40001
1.40001
1.40001
1.40001
1.40001
1.40001
1.40001
1.40001
1.40001
1.40001
1.40001
1.40001
1.40001
1.40001
1.40001
1.40001
1.40001
1.40001
1.40001
1.40001
1.40001
1.40001
1.40001
1.40001
1.40001
1.40001
1.40001
1.40001
1.40001
1.40001
1.40001
3.23598
5.41136
5.57565
5.6485
5.68051
5.65936
5.61919
5.60098
5.61686
5.67624
5.73625
5.75128
5.73809
5.7201
5.71398
5.71615
5.74282
5.78221
5.82241
5.85091
5.86823
5.87824
5.87551
5.85052
5.80186
5.74003
5.68095
5.63203
5.58216
5.50532
5.38787
5.24545
5.11507
5.02833
4.99343
4.99429
5.01184
1.40001
1.40001
1.40001
1.40001
1.40001
1.40001
1.40001
1.40001
1.40001
1.40001
1.40001
1.40001
1.40001
1.40001
1.40001
1.40001
1.40001
1.40001
1.40001
1.40001
1.40001
1.40001
1.40001
1.40001
1.40001
1.40001
1.40001
1.40001
1.40001
1.40001
1.40001
1.40001
1.40001
1.40001
1.40001
1.40001
1.40001
1.40001
1.40001
1.40001
1.40001
1.40001
1.40001
1.40001
1.40001
1.40001
1.40001
1.40001
1.40001
1.40001
1.40001
1.40001
1.40001
1.40001
1.40001
1.40001
1.40001
1.40001
1.40001
3.19252
5.3826
5.58085
5.65006
5.68076
5.65797
5.61846
5.60072
5.61483
5.67122
5.73053
5.74695
5.73687
5.72204
5.71714
5.71955
5.74465
5.78154
5.81971
5.8481
5.86639
5.87701
5.87359
5.84696
5.79757
5.73663
5.67895
5.63019
5.57827
5.49844
5.37918
5.23836
5.11191
5.02837
4.99398
4.99302
5.0086
1.40001
1.40001
1.40001
1.40001
1.40001
1.40001
1.40001
1.40001
1.40001
1.40001
1.40001
1.40001
1.40001
1.40001
1.40001
1.40001
1.40001
1.40001
1.40001
1.40001
1.40001
1.40001
1.40001
1.40001
1.40001
1.40001
1.40001
1.40001
1.40001
1.40001
1.40001
1.40001
1.40001
1.40001
1.40001
1.40001
1.40001
1.40001
1.40001
1.40001
1.40001
1.40001
1.40001
1.40001
1.40001
1.40001
1.40001
1.40001
1.40001
1.40001
1.40001
1.40001
1.40001
1.40001
1.40001
1.40001
1.40001
1.40001
1.40001
3.10101
5.35947
5.58097
5.64705
5.67518
5.65008
5.61475
5.59895
5.61118
5.66219
5.72086
5.74046
5.73503
5.72637
5.72306
5.7245
5.74586
5.77798
5.81364
5.84325
5.86409
5.87602
5.87144
5.84182
5.79115
5.73128
5.67513
5.62544
5.5694
5.48444
5.36264
5.22483
5.105
5.02682
4.99324
4.98958
5.00159
1.40001
1.40001
1.40001
1.40001
1.40001
1.40001
1.40001
1.40001
1.40001
1.40001
1.40001
1.40001
1.40001
1.40001
1.40001
1.40001
1.40001
1.40001
1.40001
1.40001
1.40001
1.40001
1.40001
1.40001
1.40001
1.40001
1.40001
1.40001
1.40001
1.40001
1.40001
1.40001
1.40001
1.40001
1.40001
1.40001
1.40001
1.40001
1.40001
1.40001
1.40001
1.40001
1.40001
1.40001
1.40001
1.40001
1.40001
1.40001
1.40001
1.40001
1.40001
1.40001
1.40001
1.40001
1.40001
1.40001
1.40001
1.40001
1.40001
2.96906
5.33418
5.57758
5.63561
5.66122
5.63669
5.6095
5.59561
5.60548
5.64902
5.70689
5.73243
5.73314
5.73335
5.73249
5.73196
5.74762
5.77205
5.8036
5.83431
5.85912
5.87364
5.86878
5.83644
5.78397
5.72446
5.66887
5.6175
5.55733
5.46824
5.34546
5.21126
5.09779
5.02427
4.99122
4.98465
4.99242
1.40001
1.40001
1.40001
1.40001
1.40001
1.40001
1.40001
1.40001
1.40001
1.40001
1.40001
1.40001
1.40001
1.40001
1.40001
1.40001
1.40001
1.40001
1.40001
1.40001
1.40001
1.40001
1.40001
1.40001
1.40001
1.40001
1.40001
1.40001
1.40001
1.40001
1.40001
1.40001
1.40001
1.40001
1.40001
1.40001
1.40001
1.40001
1.40001
1.40001
1.40001
1.40001
1.40001
1.40001
1.40001
1.40001
1.40001
1.40001
1.40001
1.40001
1.40001
1.40001
1.40001
1.40001
1.40001
1.40001
1.40001
1.40001
1.40001
2.79779
5.28264
5.55919
5.61526
5.64594
5.62317
5.60308
5.58936
5.59662
5.63448
5.69231
5.72521
5.73303
5.74188
5.7437
5.74013
5.74896
5.76432
5.79056
5.8216
5.85108
5.86931
5.86585
5.83256
5.77851
5.71798
5.66072
5.60614
5.54238
5.45173
5.331
5.2018
5.09332
5.02182
4.98769
4.97828
4.98186
1.40001
1.40001
1.40001
1.40001
1.40001
1.40001
1.40001
1.40001
1.40001
1.40001
1.40001
1.40001
1.40001
1.40001
1.40001
1.40001
1.40001
1.40001
1.40001
1.40001
1.40001
1.40001
1.40001
1.40001
1.40001
1.40001
1.40001
1.40001
1.40001
1.40001
1.40001
1.40001
1.40001
1.40001
1.40001
1.40001
1.40001
1.40001
1.40001
1.40001
1.40001
1.40001
1.40001
1.40001
1.40001
1.40001
1.40001
1.40001
1.40001
1.40001
1.40001
1.40001
1.40001
1.40001
1.40001
1.40001
1.40001
1.40001
1.40001
2.58078
5.18961
5.54189
5.59629
5.63233
5.61478
5.59397
5.57715
5.58161
5.61922
5.6811
5.72294
5.73938
5.75181
5.75201
5.74336
5.74542
5.754
5.77623
5.80751
5.83962
5.86035
5.85951
5.82844
5.77528
5.71355
5.65259
5.5928
5.52569
5.43607
5.31996
5.19619
5.0905
5.01853
4.98164
4.96997
4.97008
1.40001
1.40001
1.40001
1.40001
1.40001
1.40001
1.40001
1.40001
1.40001
1.40001
1.40001
1.40001
1.40001
1.40001
1.40001
1.40001
1.40001
1.40001
1.40001
1.40001
1.40001
1.40001
1.40001
1.40001
1.40001
1.40001
1.40001
1.40001
1.40001
1.40001
1.40001
1.40001
1.40001
1.40001
1.40001
1.40001
1.40001
1.40001
1.40001
1.40001
1.40001
1.40001
1.40001
1.40001
1.40001
1.40001
1.40001
1.40001
1.40001
1.40001
1.40001
1.40001
1.40001
1.40001
1.40001
1.40001
1.40001
1.40001
1.40001
2.27842
5.04061
5.55697
5.58476
5.61638
5.60192
5.57952
5.56181
5.5658
5.6068
5.67561
5.72739
5.7525
5.76306
5.75512
5.73779
5.73325
5.73969
5.76285
5.79561
5.82656
5.84575
5.84599
5.82006
5.77203
5.71112
5.64574
5.57959
5.50936
5.42299
5.31378
5.19432
5.0883
5.01321
4.97282
4.95932
4.9575
1.40001
1.40001
1.40001
1.40001
1.40001
1.40001
1.40001
1.40001
1.40001
1.40001
1.40001
1.40001
1.40001
1.40001
1.40001
1.40001
1.40001
1.40001
1.40001
1.40001
1.40001
1.40001
1.40001
1.40001
1.40001
1.40001
1.40001
1.40001
1.40001
1.40001
1.40001
1.40001
1.40001
1.40001
1.40001
1.40001
1.40001
1.40001
1.40001
1.40001
1.40001
1.40001
1.40001
1.40001
1.40001
1.40001
1.40001
1.40001
1.40001
1.40001
1.40001
1.40001
1.40001
1.40001
1.40001
1.40001
1.40001
1.40001
1.40001
1.88062
4.76696
5.58915
5.56471
5.58747
5.58203
5.57416
5.55788
5.55616
5.59706
5.67045
5.73329
5.76592
5.77319
5.75454
5.725
5.71314
5.72107
5.74987
5.7856
5.81292
5.82582
5.82403
5.80439
5.76562
5.70962
5.64144
5.56913
5.49558
5.41314
5.31154
5.19631
5.08812
5.00665
4.96033
4.94473
4.94264
1.40001
1.40001
1.40001
1.40001
1.40001
1.40001
1.40001
1.40001
1.40001
1.40001
1.40001
1.40001
1.40001
1.40001
1.40001
1.40001
1.40001
1.40001
1.40001
1.40001
1.40001
1.40001
1.40001
1.40001
1.40001
1.40001
1.40001
1.40001
1.40001
1.40001
1.40001
1.40001
1.40001
1.40001
1.40001
1.40001
1.40001
1.40001
1.40001
1.40001
1.40001
1.40001
1.40001
1.40001
1.40001
1.40001
1.40001
1.40001
1.40001
1.40001
1.40001
1.40001
1.40001
1.40001
1.40001
1.40001
1.40001
1.40001
1.40001
1.47195
4.24049
5.5969
5.56527
5.57716
5.57718
5.56671
5.55953
5.5558
5.59153
5.66094
5.7286
5.76751
5.77567
5.75149
5.71139
5.69087
5.69948
5.73273
5.7718
5.79632
5.80228
5.79563
5.77952
5.75114
5.70345
5.6359
5.56003
5.48526
5.40753
5.31301
5.2004
5.08764
4.99756
4.94392
4.92582
4.92462
1.40001
1.40001
1.40001
1.40001
1.40001
1.40001
1.40001
1.40001
1.40001
1.40001
1.40001
1.40001
1.40001
1.40001
1.40001
1.40001
1.40001
1.40001
1.40001
1.40001
1.40001
1.40001
1.40001
1.40001
1.40001
1.40001
1.40001
1.40001
1.40001
1.40001
1.40001
1.40001
1.40001
1.40001
1.40001
1.40001
1.40001
1.40001
1.40001
1.40001
1.40001
1.40001
1.40001
1.40001
1.40001
1.40001
1.40001
1.40001
1.40001
1.40001
1.40001
1.40001
1.40001
1.40001
1.40001
1.40001
1.40001
1.40001
1.40001
1.4005
3.49679
5.44807
5.50406
5.55383
5.58294
5.58964
5.57856
5.56784
5.58701
5.6427
5.70742
5.74947
5.763
5.74381
5.70193
5.67398
5.67648
5.70686
5.74711
5.77201
5.77526
5.76521
5.7504
5.72782
5.68697
5.62425
5.55122
5.48031
5.40827
5.31844
5.20467
5.08393
4.98327
4.92137
4.8993
4.89968
1.40001
1.40001
1.40001
1.40001
1.40001
1.40001
1.40001
1.40001
1.40001
1.40001
1.40001
1.40001
1.40001
1.40001
1.40001
1.40001
1.40001
1.40001
1.40001
1.40001
1.40001
1.40001
1.40001
1.40001
1.40001
1.40001
1.40001
1.40001
1.40001
1.40001
1.40001
1.40001
1.40001
1.40001
1.40001
1.40001
1.40001
1.40001
1.40001
1.40001
1.40001
1.40001
1.40001
1.40001
1.40001
1.40001
1.40001
1.40001
1.40001
1.40001
1.40001
1.40001
1.40001
1.40001
1.40001
1.40001
1.40001
1.40001
1.40001
1.40001
2.72425
5.21616
5.48447
5.53172
5.57998
5.5952
5.58321
5.57605
5.58326
5.61951
5.67761
5.72026
5.7386
5.73077
5.69597
5.66118
5.65151
5.67312
5.70966
5.73631
5.74241
5.73369
5.71857
5.69447
5.65577
5.60052
5.53755
5.47518
5.40919
5.32238
5.20576
5.07625
4.96482
4.89374
4.86412
4.86541
1.40001
1.40001
1.40001
1.40001
1.40001
1.40001
1.40001
1.40001
1.40001
1.40001
1.40001
1.40001
1.40001
1.40001
1.40001
1.40001
1.40001
1.40001
1.40001
1.40001
1.40001
1.40001
1.40001
1.40001
1.40001
1.40001
1.40001
1.40001
1.40001
1.40001
1.40001
1.40001
1.40001
1.40001
1.40001
1.40001
1.40001
1.40001
1.40001
1.40001
1.40001
1.40001
1.40001
1.40001
1.40001
1.40001
1.40001
1.40001
1.40001
1.40001
1.40001
1.40001
1.40001
1.40001
1.40001
1.40001
1.40001
1.40001
1.40001
1.40001
1.94398
4.81176
5.50992
5.53398
5.56314
5.5747
5.57256
5.56905
5.56994
5.58639
5.6396
5.68583
5.71307
5.71614
5.69037
5.64846
5.62383
5.63107
5.65942
5.68803
5.70202
5.69974
5.68502
5.65747
5.61784
5.56966
5.51909
5.46764
5.4064
5.32014
5.20153
5.06534
4.94182
4.85648
4.81396
4.81235
1.40001
1.40001
1.40001
1.40001
1.40001
1.40001
1.40001
1.40001
1.40001
1.40001
1.40001
1.40001
1.40001
1.40001
1.40001
1.40001
1.40001
1.40001
1.40001
1.40001
1.40001
1.40001
1.40001
1.40001
1.40001
1.40001
1.40001
1.40001
1.40001
1.40001
1.40001
1.40001
1.40001
1.40001
1.40001
1.40001
1.40001
1.40001
1.40001
1.40001
1.40001
1.40001
1.40001
1.40001
1.40001
1.40001
1.40001
1.40001
1.40001
1.40001
1.40001
1.40001
1.40001
1.40001
1.40001
1.40001
1.40001
1.40001
1.40001
1.40001
1.42544
3.8813
5.50374
5.52923
5.55166
5.56306
5.55429
5.53991
5.53121
5.54195
5.59682
5.65212
5.68993
5.70054
5.68244
5.63681
5.59438
5.57893
5.5959
5.6245
5.64799
5.65606
5.64293
5.61358
5.57389
5.53267
5.49117
5.44469
5.38217
5.29459
5.17938
5.0447
4.91264
4.81238
4.75324
4.74384
1.40001
1.40001
1.40001
1.40001
1.40001
1.40001
1.40001
1.40001
1.40001
1.40001
1.40001
1.40001
1.40001
1.40001
1.40001
1.40001
1.40001
1.40001
1.40001
1.40001
1.40001
1.40001
1.40001
1.40001
1.40001
1.40001
1.40001
1.40001
1.40001
1.40001
1.40001
1.40001
1.40001
1.40001
1.40001
1.40001
1.40001
1.40001
1.40001
1.40001
1.40001
1.40001
1.40001
1.40001
1.40001
1.40001
1.40001
1.40001
1.40001
1.40001
1.40001
1.40001
1.40001
1.40001
1.40001
1.40001
1.40001
1.40001
1.40001
1.40001
1.40007
2.5026
5.1185
5.48695
5.51484
5.54331
5.53428
5.51405
5.49823
5.4987
5.54319
5.60488
5.65333
5.6703
5.65886
5.61518
5.56423
5.53021
5.52836
5.55056
5.57863
5.5949
5.5878
5.56156
5.52797
5.49749
5.46476
5.41648
5.34501
5.25183
5.14062
5.01082
4.87085
4.74957
4.66652
4.63674
1.40001
1.40001
1.40001
1.40001
1.40001
1.40001
1.40001
1.40001
1.40001
1.40001
1.40001
1.40001
1.40001
1.40001
1.40001
1.40001
1.40001
1.40001
1.40001
1.40001
1.40001
1.40001
1.40001
1.40001
1.40001
1.40001
1.40001
1.40001
1.40001
1.40001
1.40001
1.40001
1.40001
1.40001
1.40001
1.40001
1.40001
1.40001
1.40001
1.40001
1.40001
1.40001
1.40001
1.40001
1.40001
1.40001
1.40001
1.40001
1.40001
1.40001
1.40001
1.40001
1.40001
1.40001
1.40001
1.40001
1.40001
1.40001
1.40001
1.40001
1.40001
1.46789
4.05594
5.49722
5.52067
5.53812
5.5271
5.49151
5.46856
5.45565
5.48033
5.52979
5.58183
5.60941
5.61199
5.586
5.53626
5.48652
5.46283
5.47197
5.49668
5.51537
5.51526
5.49447
5.46661
5.44177
5.41043
5.35508
5.27077
5.16595
5.05113
4.92077
4.77441
4.63188
4.53231
4.49354
1.40001
1.40001
1.40001
1.40001
1.40001
1.40001
1.40001
1.40001
1.40001
1.40001
1.40001
1.40001
1.40001
1.40001
1.40001
1.40001
1.40001
1.40001
1.40001
1.40001
1.40001
1.40001
1.40001
1.40001
1.40001
1.40001
1.40001
1.40001
1.40001
1.40001
1.40001
1.40001
1.40001
1.40001
1.40001
1.40001
1.40001
1.40001
1.40001
1.40001
1.40001
1.40001
1.40001
1.40001
1.40001
1.40001
1.40001
1.40001
1.40001
1.40001
1.40001
1.40001
1.40001
1.40001
1.40001
1.40001
1.40001
1.40001
1.40001
1.40001
1.40001
1.40025
2.2986
5.01747
5.4733
5.46801
5.47698
5.46277
5.45942
5.44975
5.45447
5.47617
5.50931
5.53598
5.54403
5.53126
5.49286
5.44371
5.40435
5.39327
5.40354
5.42019
5.42424
5.40931
5.38253
5.35482
5.31932
5.261
5.17382
5.0686
4.95985
4.8388
4.67656
4.49109
4.29837
4.29132
1.40001
1.40001
1.40001
1.40001
1.40001
1.40001
1.40001
1.40001
1.40001
1.40001
1.40001
1.40001
1.40001
1.40001
1.40001
1.40001
1.40001
1.40001
1.40001
1.40001
1.40001
1.40001
1.40001
1.40001
1.40001
1.40001
1.40001
1.40001
1.40001
1.40001
1.40001
1.40001
1.40001
1.40001
1.40001
1.40001
1.40001
1.40001
1.40001
1.40001
1.40001
1.40001
1.40001
1.40001
1.40001
1.40001
1.40001
1.40001
1.40001
1.40001
1.40001
1.40001
1.40001
1.40001
1.40001
1.40001
1.40001
1.40001
1.40001
1.40001
1.40001
1.4
1.4433
3.74007
5.40213
5.44601
5.4594
5.46552
5.45682
5.43735
5.4175
5.41694
5.43298
5.46302
5.48274
5.48278
5.45785
5.41274
5.36519
5.33179
5.32091
5.32776
5.33261
5.32142
5.29277
5.25326
5.20404
5.1393
5.04677
4.93253
4.79695
4.62716
4.37172
4.03267
3.55657
2.72981
1.40001
1.40001
1.40001
1.40001
1.40001
1.40001
1.40001
1.40001
1.40001
1.40001
1.40001
1.40001
1.40001
1.40001
1.40001
1.40001
1.40001
1.40001
1.40001
1.40001
1.40001
1.40001
1.40001
1.40001
1.40001
1.40001
1.40001
1.40001
1.40001
1.40001
1.40001
1.40001
1.40001
1.40001
1.40001
1.40001
1.40001
1.40001
1.40001
1.40001
1.40001
1.40001
1.40001
1.40001
1.40001
1.40001
1.40001
1.40001
1.40001
1.40001
1.40001
1.40001
1.40001
1.40001
1.40001
1.40001
1.40001
1.40001
1.40001
1.40001
1.40001
1.4
1.40008
2.21958
4.92649
5.39678
5.41174
5.4455
5.44858
5.43156
5.40369
5.3873
5.38865
5.40716
5.42984
5.43547
5.41675
5.37756
5.33264
5.28815
5.25838
5.24865
5.24793
5.23799
5.20699
5.15354
5.08497
5.00929
4.91416
4.79516
4.63991
4.44048
4.15268
3.78212
3.23187
2.50594
1.40001
1.40001
1.40001
1.40001
1.40001
1.40001
1.40001
1.40001
1.40001
1.40001
1.40001
1.40001
1.40001
1.40001
1.40001
1.40001
1.40001
1.40001
1.40001
1.40001
1.40001
1.40001
1.40001
1.40001
1.40001
1.40001
1.40001
1.40001
1.40001
1.40001
1.40001
1.40001
1.40001
1.40001
1.40001
1.40001
1.40001
1.40001
1.40001
1.40001
1.40001
1.40001
1.40001
1.40001
1.40001
1.40001
1.40001
1.40001
1.40001
1.40001
1.40001
1.40001
1.40001
1.40001
1.40001
1.40001
1.40001
1.40001
1.40001
1.40001
1.40001
1.40001
1.4
1.4462
3.62477
5.28859
5.36666
5.40225
5.42458
5.41222
5.37973
5.34737
5.33425
5.34908
5.37169
5.38138
5.37142
5.34293
5.30361
5.25623
5.2096
5.17614
5.1575
5.14196
5.10865
5.04625
4.9625
4.87561
4.77769
4.65688
4.49649
4.29095
4.00244
3.64127
3.18083
2.62935
1.40001
1.40001
1.40001
1.40001
1.40001
1.40001
1.40001
1.40001
1.40001
1.40001
1.40001
1.40001
1.40001
1.40001
1.40001
1.40001
1.40001
1.40001
1.40001
1.40001
1.40001
1.40001
1.40001
1.40001
1.40001
1.40001
1.40001
1.40001
1.40001
1.40001
1.40001
1.40001
1.40001
1.40001
1.40001
1.40001
1.40001
1.40001
1.40001
1.40001
1.40001
1.40001
1.40001
1.40001
1.40001
1.40001
1.40001
1.40001
1.40001
1.40001
1.40001
1.40001
1.40001
1.40001
1.40001
1.40001
1.40001
1.40001
1.40001
1.40001
1.40001
1.40001
1.4
1.40011
1.95134
4.74609
5.3654
5.35925
5.40751
5.41532
5.39599
5.35948
5.32328
5.30569
5.30656
5.30793
5.30873
5.295
5.26864
5.22672
5.17385
5.12122
5.07793
5.04327
5.00103
4.93486
4.84653
4.75206
4.64978
4.52939
4.37628
4.17914
3.91373
3.60208
3.22894
2.81014
1.40001
1.40001
1.40001
1.40001
1.40001
1.40001
1.40001
1.40001
1.40001
1.40001
1.40001
1.40001
1.40001
1.40001
1.40001
1.40001
1.40001
1.40001
1.40001
1.40001
1.40001
1.40001
1.40001
1.40001
1.40001
1.40001
1.40001
1.40001
1.40001
1.40001
1.40001
1.40001
1.40001
1.40001
1.40001
1.40001
1.40001
1.40001
1.40001
1.40001
1.40001
1.40001
1.40001
1.40001
1.40001
1.40001
1.40001
1.40001
1.40001
1.40001
1.40001
1.40001
1.40001
1.40001
1.40001
1.40001
1.40001
1.40001
1.40001
1.40001
1.40001
1.40001
1.40001
1.40001
1.41756
3.08425
5.17288
5.3201
5.3437
5.37296
5.37248
5.34775
5.30661
5.26686
5.24793
5.24188
5.24594
5.24645
5.23163
5.194
5.13868
5.07624
5.01206
4.95241
4.89324
4.82251
4.73728
4.64207
4.5375
4.41783
4.27391
4.09464
3.87085
3.60999
3.31065
2.98697
1.40001
1.40001
1.40001
1.40001
1.40001
1.40001
1.40001
1.40001
1.40001
1.40001
1.40001
1.40001
1.40001
1.40001
1.40001
1.40001
1.40001
1.40001
1.40001
1.40001
1.40001
1.40001
1.40001
1.40001
1.40001
1.40001
1.40001
1.40001
1.40001
1.40001
1.40001
1.40001
1.40001
1.40001
1.40001
1.40001
1.40001
1.40001
1.40001
1.40001
1.40001
1.40001
1.40001
1.40001
1.40001
1.40001
1.40001
1.40001
1.40001
1.40001
1.40001
1.40001
1.40001
1.40001
1.40001
1.40001
1.40001
1.40001
1.40001
1.40001
1.40001
1.40001
1.40001
1.40001
1.40003
1.57167
4.11371
5.31326
5.3148
5.34148
5.36503
5.34712
5.30187
5.24142
5.18971
5.17281
5.17483
5.18262
5.17906
5.1534
5.10504
5.03996
4.96325
4.88462
4.80435
4.72172
4.63576
4.54328
4.44083
4.3242
4.18746
4.02857
3.84386
3.62906
3.39284
3.13255
1.40001
1.40001
1.40001
1.40001
1.40001
1.40001
1.40001
1.40001
1.40001
1.40001
1.40001
1.40001
1.40001
1.40001
1.40001
1.40001
1.40001
1.40001
1.40001
1.40001
1.40001
1.40001
1.40001
1.40001
1.40001
1.40001
1.40001
1.40001
1.40001
1.40001
1.40001
1.40001
1.40001
1.40001
1.40001
1.40001
1.40001
1.40001
1.40001
1.40001
1.40001
1.40001
1.40001
1.40001
1.40001
1.40001
1.40001
1.40001
1.40001
1.40001
1.40001
1.40001
1.40001
1.40001
1.40001
1.40001
1.40001
1.40001
1.40001
1.40001
1.40001
1.40001
1.40001
1.40001
1.40001
1.40151
2.11516
4.7721
5.28492
5.27205
5.31373
5.32723
5.29949
5.24686
5.18679
5.14041
5.11992
5.1157
5.1121
5.09457
5.0574
5.00061
4.92828
4.84373
4.75043
4.65331
4.55688
4.46036
4.35909
4.2477
4.11785
3.97865
3.82338
3.6446
3.44949
3.2358
1.40001
1.40001
1.40001
1.40001
1.40001
1.40001
1.40001
1.40001
1.40001
1.40001
1.40001
1.40001
1.40001
1.40001
1.40001
1.40001
1.40001
1.40001
1.40001
1.40001
1.40001
1.40001
1.40001
1.40001
1.40001
1.40001
1.40001
1.40001
1.40001
1.40001
1.40001
1.40001
1.40001
1.40001
1.40001
1.40001
1.40001
1.40001
1.40001
1.40001
1.40001
1.40001
1.40001
1.40001
1.40001
1.40001
1.40001
1.40001
1.40001
1.40001
1.40001
1.40001
1.40001
1.40001
1.40001
1.40001
1.40001
1.40001
1.40001
1.40001
1.40001
1.40001
1.40001
1.40001
1.40001
1.40001
1.42749
2.93372
5.08435
5.25291
5.23263
5.25631
5.25993
5.23228
5.17843
5.11943
5.07484
5.04927
5.03442
5.01867
4.9924
4.95134
4.8903
4.81242
4.72155
4.62092
4.51418
4.40698
4.29952
4.18965
4.07094
3.94668
3.80751
3.65213
3.48587
3.3071
1.40001
1.40001
1.40001
1.40001
1.40001
1.40001
1.40001
1.40001
1.40001
1.40001
1.40001
1.40001
1.40001
1.40001
1.40001
1.40001
1.40001
1.40001
1.40001
1.40001
1.40001
1.40001
1.40001
1.40001
1.40001
1.40001
1.40001
1.40001
1.40001
1.40001
1.40001
1.40001
1.40001
1.40001
1.40001
1.40001
1.40001
1.40001
1.40001
1.40001
1.40001
1.40001
1.40001
1.40001
1.40001
1.40001
1.40001
1.40001
1.40001
1.40001
1.40001
1.40001
1.40001
1.40001
1.40001
1.40001
1.40001
1.40001
1.40001
1.40001
1.40001
1.40001
1.40001
1.40001
1.40001
1.40001
1.40007
1.53591
3.63293
5.21257
5.22031
5.19597
5.21278
5.21057
5.17698
5.11942
5.05473
5.00152
4.9633
4.93282
4.90613
4.87443
4.82706
4.76545
4.69132
4.60096
4.49732
4.38696
4.2734
4.16206
4.04963
3.93244
3.80406
3.66351
3.5157
3.35812
1.40001
1.40001
1.40001
1.40001
1.40001
1.40001
1.40001
1.40001
1.40001
1.40001
1.40001
1.40001
1.40001
1.40001
1.40001
1.40001
1.40001
1.40001
1.40001
1.40001
1.40001
1.40001
1.40001
1.40001
1.40001
1.40001
1.40001
1.40001
1.40001
1.40001
1.40001
1.40001
1.40001
1.40001
1.40001
1.40001
1.40001
1.40001
1.40001
1.40001
1.40001
1.40001
1.40001
1.40001
1.40001
1.40001
1.40001
1.40001
1.40001
1.40001
1.40001
1.40001
1.40001
1.40001
1.40001
1.40001
1.40001
1.40001
1.40001
1.40001
1.40001
1.40001
1.40001
1.40001
1.40001
1.40001
1.40001
1.40098
1.70545
4.14855
5.21087
5.19637
5.17025
5.1741
5.16172
5.12394
5.06575
5.00201
4.9412
4.88676
4.8388
4.79424
4.74706
4.69702
4.63827
4.56608
4.47737
4.3755
4.26731
4.15951
4.0517
3.93689
3.81529
3.68672
3.55238
3.41045
1.40001
1.40001
1.40001
1.40001
1.40001
1.40001
1.40001
1.40001
1.40001
1.40001
1.40001
1.40001
1.40001
1.40001
1.40001
1.40001
1.40001
1.40001
1.40001
1.40001
1.40001
1.40001
1.40001
1.40001
1.40001
1.40001
1.40001
1.40001
1.40001
1.40001
1.40001
1.40001
1.40001
1.40001
1.40001
1.40001
1.40001
1.40001
1.40001
1.40001
1.40001
1.40001
1.40001
1.40001
1.40001
1.40001
1.40001
1.40001
1.40001
1.40001
1.40001
1.40001
1.40001
1.40001
1.40001
1.40001
1.40001
1.40001
1.40001
1.40001
1.40001
1.40001
1.40001
1.40001
1.40001
1.40001
1.40001
1.40001
1.40476
1.91614
4.52644
5.16919
5.13987
5.12658
5.12066
5.10201
5.06659
5.01482
4.95255
4.88692
4.82169
4.75678
4.69355
4.63415
4.57795
4.51482
4.44248
4.3564
4.26023
4.16138
4.0619
3.954
3.84042
3.71915
3.59456
3.46437
1.40001
1.40001
1.40001
1.40001
1.40001
1.40001
1.40001
1.40001
1.40001
1.40001
1.40001
1.40001
1.40001
1.40001
1.40001
1.40001
1.40001
1.40001
1.40001
1.40001
1.40001
1.40001
1.40001
1.40001
1.40001
1.40001
1.40001
1.40001
1.40001
1.40001
1.40001
1.40001
1.40001
1.40001
1.40001
1.40001
1.40001
1.40001
1.40001
1.40001
1.40001
1.40001
1.40001
1.40001
1.40001
1.40001
1.40001
1.40001
1.40001
1.40001
1.40001
1.40001
1.40001
1.40001
1.40001
1.40001
1.40001
1.40001
1.40001
1.40001
1.40001
1.40001
1.40001
1.40001
1.40001
1.40001
1.40001
1.40001
1.40001
1.41368
2.22302
4.69571
5.14826
5.0993
5.06496
5.0466
5.03051
5.0024
4.95672
4.89591
4.82708
4.75563
4.68193
4.60919
4.54105
4.47445
4.40361
4.32762
4.24579
4.15939
4.0675
3.96821
3.86358
3.7515
3.6381
3.51981
1.40001
1.40001
1.40001
1.40001
1.40001
1.40001
1.40001
1.40001
1.40001
1.40001
1.40001
1.40001
1.40001
1.40001
1.40001
1.40001
1.40001
1.40001
1.40001
1.40001
1.40001
1.40001
1.40001
1.40001
1.40001
1.40001
1.40001
1.40001
1.40001
1.40001
1.40001
1.40001
1.40001
1.40001
1.40001
1.40001
1.40001
1.40001
1.40001
1.40001
1.40001
1.40001
1.40001
1.40001
1.40001
1.40001
1.40001
1.40001
1.40001
1.40001
1.40001
1.40001
1.40001
1.40001
1.40001
1.40001
1.40001
1.40001
1.40001
1.40001
1.40001
1.40001
1.40001
1.40001
1.40001
1.40001
1.40001
1.40001
1.40001
1.40004
1.43311
2.45255
4.77505
5.11928
5.06472
5.01378
4.98197
4.95286
4.92701
4.88696
4.83099
4.76367
4.6899
4.6141
4.539
4.46412
4.38669
4.30851
4.23168
4.15278
4.06644
3.97301
3.87747
3.7758
3.67448
3.57032
1.40001
1.40001
1.40001
1.40001
1.40001
1.40001
1.40001
1.40001
1.40001
1.40001
1.40001
1.40001
1.40001
1.40001
1.40001
1.40001
1.40001
1.40001
1.40001
1.40001
1.40001
1.40001
1.40001
1.40001
1.40001
1.40001
1.40001
1.40001
1.40001
1.40001
1.40001
1.40001
1.40001
1.40001
1.40001
1.40001
1.40001
1.40001
1.40001
1.40001
1.40001
1.40001
1.40001
1.40001
1.40001
1.40001
1.40001
1.40001
1.40001
1.40001
1.40001
1.40001
1.40001
1.40001
1.40001
1.40001
1.40001
1.40001
1.40001
1.40001
1.40001
1.40001
1.40001
1.40001
1.40001
1.40001
1.40001
1.40001
1.40001
1.40001
1.40012
1.45603
2.56218
4.78359
5.08969
5.02992
4.97016
4.92298
4.88763
4.85657
4.81581
4.76215
4.69819
4.62648
4.54927
4.46906
4.38886
4.31144
4.2352
4.15586
4.06927
3.97686
3.88525
3.79022
3.69934
3.60942
1.40001
1.40001
1.40001
1.40001
1.40001
1.40001
1.40001
1.40001
1.40001
1.40001
1.40001
1.40001
1.40001
1.40001
1.40001
1.40001
1.40001
1.40001
1.40001
1.40001
1.40001
1.40001
1.40001
1.40001
1.40001
1.40001
1.40001
1.40001
1.40001
1.40001
1.40001
1.40001
1.40001
1.40001
1.40001
1.40001
1.40001
1.40001
1.40001
1.40001
1.40001
1.40001
1.40001
1.40001
1.40001
1.40001
1.40001
1.40001
1.40001
1.40001
1.40001
1.40001
1.40001
1.40001
1.40001
1.40001
1.40001
1.40001
1.40001
1.40001
1.40001
1.40001
1.40001
1.40001
1.40001
1.40001
1.40001
1.40001
1.40001
1.40001
1.40001
1.40027
1.46947
2.56235
4.75182
5.05445
4.98953
4.9262
4.87484
4.83307
4.79462
4.75015
4.69618
4.63195
4.5581
4.47857
4.40032
4.32507
4.2493
4.17058
4.08549
3.99242
3.90099
3.80898
3.72272
3.64244
1.40001
1.40001
1.40001
1.40001
1.40001
1.40001
1.40001
1.40001
1.40001
1.40001
1.40001
1.40001
1.40001
1.40001
1.40001
1.40001
1.40001
1.40001
1.40001
1.40001
1.40001
1.40001
1.40001
1.40001
1.40001
1.40001
1.40001
1.40001
1.40001
1.40001
1.40001
1.40001
1.40001
1.40001
1.40001
1.40001
1.40001
1.40001
1.40001
1.40001
1.40001
1.40001
1.40001
1.40001
1.40001
1.40001
1.40001
1.40001
1.40001
1.40001
1.40001
1.40001
1.40001
1.40001
1.40001
1.40001
1.40001
1.40001
1.40001
1.40001
1.40001
1.40001
1.40001
1.40001
1.40001
1.40001
1.40001
1.40001
1.40001
1.40001
1.40001
1.40001
1.40038
1.46984
2.47937
4.67021
5.00032
4.94407
4.88391
4.83728
4.79119
4.74429
4.69295
4.63198
4.56117
4.4856
4.41176
4.34096
4.26911
4.19368
4.11248
4.02192
3.93045
3.84007
3.7534
3.67662
1.40001
1.40001
1.40001
1.40001
1.40001
1.40001
1.40001
1.40001
1.40001
1.40001
1.40001
1.40001
1.40001
1.40001
1.40001
1.40001
1.40001
1.40001
1.40001
1.40001
1.40001
1.40001
1.40001
1.40001
1.40001
1.40001
1.40001
1.40001
1.40001
1.40001
1.40001
1.40001
1.40001
1.40001
1.40001
1.40001
1.40001
1.40001
1.40001
1.40001
1.40001
1.40001
1.40001
1.40001
1.40001
1.40001
1.40001
1.40001
1.40001
1.40001
1.40001
1.40001
1.40001
1.40001
1.40001
1.40001
1.40001
1.40001
1.40001
1.40001
1.40001
1.40001
1.40001
1.40001
1.40001
1.40001
1.40001
1.40001
1.40001
1.40001
1.40001
1.40001
1.40001
1.4004
1.46049
2.37301
4.44813
4.94252
4.92284
4.86189
4.81018
4.75457
4.69492
4.63171
4.56442
4.49468
4.42415
4.35475
4.28568
4.21497
4.14093
4.05861
3.97102
3.88291
3.79369
3.71485
1.40001
1.40001
1.40001
1.40001
1.40001
1.40001
1.40001
1.40001
1.40001
1.40001
1.40001
1.40001
1.40001
1.40001
1.40001
1.40001
1.40001
1.40001
1.40001
1.40001
1.40001
1.40001
1.40001
1.40001
1.40001
1.40001
1.40001
1.40001
1.40001
1.40001
1.40001
1.40001
1.40001
1.40001
1.40001
1.40001
1.40001
1.40001
1.40001
1.40001
1.40001
1.40001
1.40001
1.40001
1.40001
1.40001
1.40001
1.40001
1.40001
1.40001
1.40001
1.40001
1.40001
1.40001
1.40001
1.40001
1.40001
1.40001
1.40001
1.40001
1.40001
1.40001
1.40001
1.40001
1.40001
1.40001
1.40001
1.40001
1.40001
1.40001
1.40001
1.40001
1.40001
1.40001
1.40033
1.44807
2.19148
4.11135
4.90532
4.89986
4.83092
4.76639
4.70663
4.64351
4.5782
4.51131
4.44261
4.37304
4.30421
4.23581
4.16783
4.0944
4.01233
3.9278
3.8387
3.75686
1.40001
1.40001
1.40001
1.40001
1.40001
1.40001
1.40001
1.40001
1.40001
1.40001
1.40001
1.40001
1.40001
1.40001
1.40001
1.40001
1.40001
1.40001
1.40001
1.40001
1.40001
1.40001
1.40001
1.40001
1.40001
1.40001
1.40001
1.40001
1.40001
1.40001
1.40001
1.40001
1.40001
1.40001
1.40001
1.40001
1.40001
1.40001
1.40001
1.40001
1.40001
1.40001
1.40001
1.40001
1.40001
1.40001
1.40001
1.40001
1.40001
1.40001
1.40001
1.40001
1.40001
1.40001
1.40001
1.40001
1.40001
1.40001
1.40001
1.40001
1.40001
1.40001
1.40001
1.40001
1.40001
1.40001
1.40001
1.40001
1.40001
1.40001
1.40001
1.40001
1.40001
1.40001
1.40001
1.40024
1.43096
1.97987
3.68605
4.85495
4.85481
4.79187
4.72802
4.67173
4.60862
4.54068
4.47112
4.40211
4.3338
4.2648
4.19787
4.12638
4.04719
3.96736
3.88314
3.80263
1.40001
1.40001
1.40001
1.40001
1.40001
1.40001
1.40001
1.40001
1.40001
1.40001
1.40001
1.40001
1.40001
1.40001
1.40001
1.40001
1.40001
1.40001
1.40001
1.40001
1.40001
1.40001
1.40001
1.40001
1.40001
1.40001
1.40001
1.40001
1.40001
1.40001
1.40001
1.40001
1.40001
1.40001
1.40001
1.40001
1.40001
1.40001
1.40001
1.40001
1.40001
1.40001
1.40001
1.40001
1.40001
1.40001
1.40001
1.40001
1.40001
1.40001
1.40001
1.40001
1.40001
1.40001
1.40001
1.40001
1.40001
1.40001
1.40001
1.40001
1.40001
1.40001
1.40001
1.40001
1.40001
1.40001
1.40001
1.40001
1.40001
1.40001
1.40001
1.40001
1.40001
1.40001
1.40001
1.40001
1.40012
1.41689
1.76958
3.17758
4.70792
4.82606
4.78877
4.7027
4.63752
4.57375
4.50845
4.4408
4.37208
4.30135
4.23036
4.15488
4.07896
4.0031
3.92598
3.85314
1.40001
1.40001
1.40001
1.40001
1.40001
1.40001
1.40001
1.40001
1.40001
1.40001
1.40001
1.40001
1.40001
1.40001
1.40001
1.40001
1.40001
1.40001
1.40001
1.40001
1.40001
1.40001
1.40001
1.40001
1.40001
1.40001
1.40001
1.40001
1.40001
1.40001
1.40001
1.40001
1.40001
1.40001
1.40001
1.40001
1.40001
1.40001
1.40001
1.40001
1.40001
1.40001
1.40001
1.40001
1.40001
1.40001
1.40001
1.40001
1.40001
1.40001
1.40001
1.40001
1.40001
1.40001
1.40001
1.40001
1.40001
1.40001
1.40001
1.40001
1.40001
1.40001
1.40001
1.40001
1.40001
1.40001
1.40001
1.40001
1.40001
1.40001
1.40001
1.40001
1.40001
1.40001
1.40001
1.40001
1.40001
1.40005
1.40717
1.59671
2.70614
4.40855
4.76967
4.72554
4.6566
4.59776
4.54186
4.48195
4.41509
4.34461
4.26912
4.19046
4.11541
4.042
3.97329
3.90649
1.40001
1.40001
1.40001
1.40001
1.40001
1.40001
1.40001
1.40001
1.40001
1.40001
1.40001
1.40001
1.40001
1.40001
1.40001
1.40001
1.40001
1.40001
1.40001
1.40001
1.40001
1.40001
1.40001
1.40001
1.40001
1.40001
1.40001
1.40001
1.40001
1.40001
1.40001
1.40001
1.40001
1.40001
1.40001
1.40001
1.40001
1.40001
1.40001
1.40001
1.40001
1.40001
1.40001
1.40001
1.40001
1.40001
1.40001
1.40001
1.40001
1.40001
1.40001
1.40001
1.40001
1.40001
1.40001
1.40001
1.40001
1.40001
1.40001
1.40001
1.40001
1.40001
1.40001
1.40001
1.40001
1.40001
1.40001
1.40001
1.40001
1.40001
1.40001
1.40001
1.40001
1.40001
1.40001
1.40001
1.40001
1.40001
1.40002
1.40231
1.49625
2.29932
3.87922
4.66777
4.69272
4.656
4.58446
4.52544
4.46383
4.39278
4.3133
4.23383
4.15998
4.0897
4.02829
3.9641
1.40001
1.40001
1.40001
1.40001
1.40001
1.40001
1.40001
1.40001
1.40001
1.40001
1.40001
1.40001
1.40001
1.40001
1.40001
1.40001
1.40001
1.40001
1.40001
1.40001
1.40001
1.40001
1.40001
1.40001
1.40001
1.40001
1.40001
1.40001
1.40001
1.40001
1.40001
1.40001
1.40001
1.40001
1.40001