/*--------------------------------*- C++ -*----------------------------------*\
  =========                 |
  \\      /  F ield         | OpenFOAM: The Open Source CFD Toolbox
   \\    /   O peration     | Website:  https://openfoam.org
    \\  /    A nd           | Version:  7
     \\/     M anipulation  |
\*---------------------------------------------------------------------------*/
FoamFile
{
    version     2.0;
    format      ascii;
    class       volScalarField;
    location    "0.6";
    object      T;
}
// * * * * * * * * * * * * * * * * * * * * * * * * * * * * * * * * * * * * * //

dimensions      [0 0 0 1 0 0 0];

internalField   nonuniform List<scalar> 
19968
(
1
1
1
1
1
1
1
1
1
1
1
1
1
1
1
1
1
1
1
1
1
1
1
1
1
1
1
1
1
1
1
1
1
1
1
1
1
1
1
1
1
1
1
1
1
1
1
1
1
1
1
1
1
1
1
1
1
1
1
2.10729
2.84392
2.83976
2.83374
2.83399
2.83723
2.84111
2.84461
2.84862
2.85853
2.86838
2.87308
2.87441
2.87494
2.87716
2.88053
2.89024
2.90423
2.91932
2.93249
2.94439
2.95732
2.96961
2.978
2.98435
2.99168
3.00519
3.03038
3.0709
3.12763
3.20019
3.2847
3.37187
3.4489
3.50447
3.53736
3.55232
1
1
1
1
1
1
1
1
1
1
1
1
1
1
1
1
1
1
1
1
1
1
1
1
1
1
1
1
1
1
1
1
1
1
1
1
1
1
1
1
1
1
1
1
1
1
1
1
1
1
1
1
1
1
1
1
1
1
1
2.0953
2.83994
2.83813
2.83321
2.83414
2.83776
2.84166
2.8447
2.84805
2.85733
2.86713
2.87222
2.87423
2.87535
2.87781
2.88121
2.89059
2.90412
2.91883
2.932
2.94411
2.95721
2.96939
2.97748
2.98381
2.99143
3.00549
3.0312
3.07195
3.12873
3.20131
3.28596
3.37329
3.45019
3.50525
3.53723
3.55145
1
1
1
1
1
1
1
1
1
1
1
1
1
1
1
1
1
1
1
1
1
1
1
1
1
1
1
1
1
1
1
1
1
1
1
1
1
1
1
1
1
1
1
1
1
1
1
1
1
1
1
1
1
1
1
1
1
1
1
2.0638
2.8355
2.83411
2.83111
2.83364
2.8382
2.84228
2.84447
2.84679
2.85498
2.86495
2.87087
2.87391
2.87624
2.87898
2.88205
2.89064
2.90332
2.91761
2.93105
2.94367
2.95714
2.96914
2.97671
2.98307
2.99117
3.00594
3.03235
3.07364
3.13099
3.20427
3.28951
3.37693
3.45304
3.50678
3.53686
3.54945
1
1
1
1
1
1
1
1
1
1
1
1
1
1
1
1
1
1
1
1
1
1
1
1
1
1
1
1
1
1
1
1
1
1
1
1
1
1
1
1
1
1
1
1
1
1
1
1
1
1
1
1
1
1
1
1
1
1
1
2.01443
2.82716
2.82811
2.82767
2.83259
2.83848
2.84258
2.8436
2.84456
2.85135
2.8617
2.86911
2.87339
2.8775
2.88069
2.88307
2.89051
2.90177
2.91528
2.92897
2.94235
2.95639
2.96836
2.97546
2.98181
2.99031
3.00564
3.03251
3.07417
3.13219
3.20652
3.29304
3.38101
3.45631
3.50842
3.53617
3.5467
1
1
1
1
1
1
1
1
1
1
1
1
1
1
1
1
1
1
1
1
1
1
1
1
1
1
1
1
1
1
1
1
1
1
1
1
1
1
1
1
1
1
1
1
1
1
1
1
1
1
1
1
1
1
1
1
1
1
1
1.94564
2.80736
2.82008
2.82314
2.83204
2.83877
2.84226
2.84177
2.84098
2.84687
2.85782
2.86719
2.87306
2.87879
2.88222
2.88391
2.89019
2.89956
2.9119
2.92563
2.93985
2.95461
2.96685
2.97371
2.97998
2.98854
3.00393
3.03065
3.07221
3.13073
3.20632
3.29437
3.38314
3.45814
3.50917
3.5349
3.54345
1
1
1
1
1
1
1
1
1
1
1
1
1
1
1
1
1
1
1
1
1
1
1
1
1
1
1
1
1
1
1
1
1
1
1
1
1
1
1
1
1
1
1
1
1
1
1
1
1
1
1
1
1
1
1
1
1
1
1
1.84988
2.76998
2.80975
2.8183
2.83201
2.84009
2.8411
2.83808
2.83508
2.84135
2.85412
2.86608
2.87377
2.88002
2.88296
2.88357
2.88876
2.89648
2.90774
2.9214
2.93605
2.95124
2.96399
2.97111
2.97752
2.98586
3.00053
3.02617
3.06704
3.12603
3.20319
3.29288
3.38275
3.45781
3.50804
3.53276
3.54013
1
1
1
1
1
1
1
1
1
1
1
1
1
1
1
1
1
1
1
1
1
1
1
1
1
1
1
1
1
1
1
1
1
1
1
1
1
1
1
1
1
1
1
1
1
1
1
1
1
1
1
1
1
1
1
1
1
1
1
1.69698
2.70018
2.79945
2.81529
2.83291
2.8401
2.83802
2.83156
2.82802
2.83567
2.85127
2.86604
2.87549
2.88091
2.88185
2.88143
2.88532
2.89211
2.90337
2.91713
2.93145
2.94605
2.95889
2.96713
2.97416
2.98231
2.99571
3.01934
3.05852
3.11729
3.19582
3.28763
3.37912
3.45467
3.5047
3.52948
3.53656
1
1
1
1
1
1
1
1
1
1
1
1
1
1
1
1
1
1
1
1
1
1
1
1
1
1
1
1
1
1
1
1
1
1
1
1
1
1
1
1
1
1
1
1
1
1
1
1
1
1
1
1
1
1
1
1
1
1
1
1.42578
2.56443
2.79256
2.81201
2.83206
2.83718
2.83375
2.8254
2.82187
2.83078
2.8487
2.86615
2.8769
2.881
2.87917
2.87725
2.87976
2.88633
2.89874
2.91291
2.92627
2.93913
2.95138
2.9612
2.96945
2.97787
2.98997
3.01098
3.04726
3.10461
3.18385
3.27763
3.37095
3.4477
3.49863
3.5244
3.53194
1
1
1
1
1
1
1
1
1
1
1
1
1
1
1
1
1
1
1
1
1
1
1
1
1
1
1
1
1
1
1
1
1
1
1
1
1
1
1
1
1
1
1
1
1
1
1
1
1
1
1
1
1
1
1
1
1
1
1
1.07169
2.36542
2.79451
2.81995
2.83338
2.83138
2.82485
2.81931
2.81835
2.8273
2.8457
2.86402
2.8749
2.87846
2.8756
2.87236
2.87325
2.8793
2.89276
2.90746
2.92004
2.931
2.94177
2.95263
2.96248
2.9716
2.98273
3.0011
3.03404
3.08904
3.1677
3.26224
3.35753
3.43667
3.48981
3.51729
3.52581
1
1
1
1
1
1
1
1
1
1
1
1
1
1
1
1
1
1
1
1
1
1
1
1
1
1
1
1
1
1
1
1
1
1
1
1
1
1
1
1
1
1
1
1
1
1
1
1
1
1
1
1
1
1
1
1
1
1
1
1.00033
2.15672
2.79229
2.8151
2.82136
2.81974
2.81838
2.81714
2.81831
2.82526
2.84113
2.85744
2.86734
2.87171
2.87063
2.86752
2.86694
2.87163
2.88445
2.89915
2.91167
2.92169
2.93094
2.94201
2.95301
2.96263
2.97323
2.98988
3.02015
3.07216
3.14825
3.24187
3.33855
3.42118
3.47772
3.50708
3.51685
1
1
1
1
1
1
1
1
1
1
1
1
1
1
1
1
1
1
1
1
1
1
1
1
1
1
1
1
1
1
1
1
1
1
1
1
1
1
1
1
1
1
1
1
1
1
1
1
1
1
1
1
1
1
1
1
1
1
1
1
1.89244
2.76245
2.80247
2.80021
2.80472
2.81119
2.81501
2.81906
2.82459
2.83484
2.84749
2.85627
2.86242
2.86521
2.86221
2.86087
2.8639
2.87349
2.88732
2.90016
2.91036
2.91931
2.92974
2.94035
2.95008
2.96058
2.97659
3.00485
3.05306
3.12485
3.21589
3.31383
3.40112
3.46227
3.49335
3.50442
1
1
1
1
1
1
1
1
1
1
1
1
1
1
1
1
1
1
1
1
1
1
1
1
1
1
1
1
1
1
1
1
1
1
1
1
1
1
1
1
1
1
1
1
1
1
1
1
1
1
1
1
1
1
1
1
1
1
1
1
1.45208
2.59695
2.78027
2.7881
2.79734
2.80622
2.8134
2.81642
2.81968
2.82398
2.83488
2.84472
2.85355
2.85895
2.85701
2.85465
2.85488
2.85991
2.87201
2.88523
2.89691
2.90686
2.91617
2.92569
2.93511
2.94569
2.96138
2.98788
3.03152
3.09707
3.18389
3.28295
3.37524
3.44127
3.47396
3.48576
1
1
1
1
1
1
1
1
1
1
1
1
1
1
1
1
1
1
1
1
1
1
1
1
1
1
1
1
1
1
1
1
1
1
1
1
1
1
1
1
1
1
1
1
1
1
1
1
1
1
1
1
1
1
1
1
1
1
1
1
1.01675
2.2834
2.77417
2.78713
2.796
2.80345
2.80739
2.8066
2.80657
2.80934
2.82121
2.83403
2.84575
2.85242
2.85162
2.84752
2.84422
2.84554
2.85323
2.86625
2.88019
2.89178
2.89991
2.90821
2.91715
2.92803
2.94304
2.96633
3.00312
3.05993
3.14144
3.24184
3.34066
3.41361
3.44861
3.46026
1
1
1
1
1
1
1
1
1
1
1
1
1
1
1
1
1
1
1
1
1
1
1
1
1
1
1
1
1
1
1
1
1
1
1
1
1
1
1
1
1
1
1
1
1
1
1
1
1
1
1
1
1
1
1
1
1
1
1
1
1.00003
1.76416
2.6723
2.77515
2.78519
2.79381
2.7953
2.79347
2.79255
2.79428
2.80507
2.82016
2.83433
2.84236
2.84331
2.83822
2.83271
2.83039
2.83364
2.84516
2.85942
2.87185
2.88051
2.88805
2.89724
2.90935
2.92429
2.94294
2.9705
3.01636
3.08989
3.18952
3.29438
3.37382
3.40986
3.41731
1
1
1
1
1
1
1
1
1
1
1
1
1
1
1
1
1
1
1
1
1
1
1
1
1
1
1
1
1
1
1
1
1
1
1
1
1
1
1
1
1
1
1
1
1
1
1
1
1
1
1
1
1
1
1
1
1
1
1
1
1
1.04824
2.32692
2.7688
2.77439
2.78042
2.78131
2.77733
2.77659
2.77686
2.78394
2.79807
2.81356
2.82428
2.82877
2.82574
2.8199
2.81535
2.81595
2.82233
2.83482
2.84739
2.85724
2.86399
2.87277
2.88463
2.89785
2.91077
2.92767
2.95869
3.01683
3.10692
3.21477
3.30606
3.35385
3.36448
1
1
1
1
1
1
1
1
1
1
1
1
1
1
1
1
1
1
1
1
1
1
1
1
1
1
1
1
1
1
1
1
1
1
1
1
1
1
1
1
1
1
1
1
1
1
1
1
1
1
1
1
1
1
1
1
1
1
1
1
1
1.00014
1.63303
2.59876
2.73721
2.74715
2.7555
2.75675
2.75991
2.76107
2.76666
2.77698
2.78931
2.79971
2.80575
2.80689
2.80311
2.79861
2.7966
2.79967
2.80757
2.81874
2.82881
2.83589
2.84253
2.85154
2.86163
2.8703
2.87939
2.89764
2.93896
3.01443
3.11817
3.22477
3.28525
3.33663
1
1
1
1
1
1
1
1
1
1
1
1
1
1
1
1
1
1
1
1
1
1
1
1
1
1
1
1
1
1
1
1
1
1
1
1
1
1
1
1
1
1
1
1
1
1
1
1
1
1
1
1
1
1
1
1
1
1
1
1
1
0.999998
1.03002
2.23322
2.72874
2.7305
2.73407
2.73914
2.74336
2.74533
2.74804
2.75398
2.76301
2.77414
2.78266
2.78761
2.78701
2.78407
2.78056
2.77983
2.78327
2.79101
2.80082
2.80824
2.81247
2.81679
2.82173
2.826
2.82805
2.83335
2.85001
2.8892
2.94775
2.9966
2.99578
2.9051
1
1
1
1
1
1
1
1
1
1
1
1
1
1
1
1
1
1
1
1
1
1
1
1
1
1
1
1
1
1
1
1
1
1
1
1
1
1
1
1
1
1
1
1
1
1
1
1
1
1
1
1
1
1
1
1
1
1
1
1
1
1
1.00006
1.58059
2.56997
2.70305
2.71275
2.72453
2.73092
2.73445
2.73434
2.73738
2.7432
2.75187
2.76083
2.76695
2.76913
2.76814
2.76578
2.76288
2.76262
2.76676
2.7748
2.78237
2.78501
2.7845
2.78338
2.78278
2.78011
2.77636
2.77448
2.78196
2.79378
2.80167
2.76448
2.64281
1
1
1
1
1
1
1
1
1
1
1
1
1
1
1
1
1
1
1
1
1
1
1
1
1
1
1
1
1
1
1
1
1
1
1
1
1
1
1
1
1
1
1
1
1
1
1
1
1
1
1
1
1
1
1
1
1
1
1
1
1
1
1
1.02986
2.18657
2.67926
2.69737
2.70708
2.71565
2.71978
2.71846
2.71817
2.72061
2.7276
2.73695
2.74381
2.74817
2.75034
2.74995
2.74679
2.74272
2.74243
2.74625
2.75204
2.75394
2.75095
2.74447
2.73863
2.73189
2.72226
2.70863
2.69419
2.67235
2.64431
2.58974
2.49625
1
1
1
1
1
1
1
1
1
1
1
1
1
1
1
1
1
1
1
1
1
1
1
1
1
1
1
1
1
1
1
1
1
1
1
1
1
1
1
1
1
1
1
1
1
1
1
1
1
1
1
1
1
1
1
1
1
1
1
1
1
1
1
1.00006
1.41118
2.48667
2.68009
2.68635
2.70073
2.70769
2.71086
2.70814
2.70542
2.70714
2.71188
2.71659
2.72253
2.72816
2.73143
2.7288
2.72397
2.71976
2.71844
2.71971
2.71972
2.7154
2.70643
2.69681
2.68651
2.6734
2.65471
2.62881
2.59059
2.54559
2.48668
2.41232
1
1
1
1
1
1
1
1
1
1
1
1
1
1
1
1
1
1
1
1
1
1
1
1
1
1
1
1
1
1
1
1
1
1
1
1
1
1
1
1
1
1
1
1
1
1
1
1
1
1
1
1
1
1
1
1
1
1
1
1
1
1
1
1
1.01133
1.97302
2.62204
2.66935
2.67693
2.68569
2.69247
2.69326
2.69046
2.68741
2.68887
2.69164
2.69756
2.70524
2.71035
2.70842
2.70387
2.69789
2.69206
2.68787
2.6841
2.67808
2.66901
2.65799
2.64534
2.62981
2.60907
2.58025
2.54098
2.49299
2.43644
2.37286
1
1
1
1
1
1
1
1
1
1
1
1
1
1
1
1
1
1
1
1
1
1
1
1
1
1
1
1
1
1
1
1
1
1
1
1
1
1
1
1
1
1
1
1
1
1
1
1
1
1
1
1
1
1
1
1
1
1
1
1
1
1
1
1
1.00001
1.12215
2.29471
2.65881
2.66317
2.66929
2.67662
2.68024
2.67678
2.67046
2.66521
2.66682
2.67149
2.67933
2.68581
2.68613
2.68281
2.6763
2.66799
2.6597
2.65114
2.64208
2.63234
2.6212
2.60784
2.59118
2.56956
2.54204
2.50752
2.46496
2.41638
2.35998
1
1
1
1
1
1
1
1
1
1
1
1
1
1
1
1
1
1
1
1
1
1
1
1
1
1
1
1
1
1
1
1
1
1
1
1
1
1
1
1
1
1
1
1
1
1
1
1
1
1
1
1
1
1
1
1
1
1
1
1
1
1
1
1
1
1.00086
1.49958
2.47061
2.63618
2.63746
2.64892
2.65941
2.66286
2.65904
2.65219
2.64776
2.64904
2.65297
2.6582
2.66054
2.65869
2.65386
2.64629
2.63635
2.62458
2.6119
2.59941
2.58698
2.57329
2.55684
2.53535
2.51083
2.48161
2.4455
2.40397
2.35609
1
1
1
1
1
1
1
1
1
1
1
1
1
1
1
1
1
1
1
1
1
1
1
1
1
1
1
1
1
1
1
1
1
1
1
1
1
1
1
1
1
1
1
1
1
1
1
1
1
1
1
1
1
1
1
1
1
1
1
1
1
1
1
1
1
1
1.0178
1.89273
2.56068
2.61705
2.61578
2.62485
2.636
2.64124
2.63754
2.63141
2.62711
2.62656
2.6286
2.63111
2.63166
2.62963
2.62403
2.61507
2.60321
2.58903
2.57355
2.55814
2.54265
2.52611
2.50663
2.48505
2.45906
2.42782
2.39243
2.3524
1
1
1
1
1
1
1
1
1
1
1
1
1
1
1
1
1
1
1
1
1
1
1
1
1
1
1
1
1
1
1
1
1
1
1
1
1
1
1
1
1
1
1
1
1
1
1
1
1
1
1
1
1
1
1
1
1
1
1
1
1
1
1
1
1
1
1.00003
1.09444
2.13178
2.59506
2.60163
2.59823
2.60601
2.61748
2.62099
2.61696
2.60939
2.6031
2.59995
2.59936
2.6003
2.60004
2.59686
2.59049
2.58154
2.56907
2.55347
2.53629
2.51845
2.5009
2.48258
2.46249
2.43849
2.41073
2.38022
2.34615
1
1
1
1
1
1
1
1
1
1
1
1
1
1
1
1
1
1
1
1
1
1
1
1
1
1
1
1
1
1
1
1
1
1
1
1
1
1
1
1
1
1
1
1
1
1
1
1
1
1
1
1
1
1
1
1
1
1
1
1
1
1
1
1
1
1
1
1.00052
1.21949
2.26116
2.57825
2.5815
2.58246
2.58973
2.59804
2.59955
2.5948
2.58692
2.57984
2.57496
2.572
2.56956
2.56607
2.56151
2.55501
2.54573
2.5329
2.51708
2.4996
2.48207
2.46439
2.44468
2.42301
2.39879
2.37193
2.34195
1
1
1
1
1
1
1
1
1
1
1
1
1
1
1
1
1
1
1
1
1
1
1
1
1
1
1
1
1
1
1
1
1
1
1
1
1
1
1
1
1
1
1
1
1
1
1
1
1
1
1
1
1
1
1
1
1
1
1
1
1
1
1
1
1
1
1
1
1.00278
1.36168
2.33362
2.5455
2.55608
2.56159
2.56878
2.57398
2.5748
2.5711
2.56476
2.55793
2.55161
2.54536
2.53902
2.53294
2.52701
2.5192
2.50922
2.49621
2.48095
2.46523
2.44919
2.4309
2.41097
2.38857
2.36433
2.33755
1
1
1
1
1
1
1
1
1
1
1
1
1
1
1
1
1
1
1
1
1
1
1
1
1
1
1
1
1
1
1
1
1
1
1
1
1
1
1
1
1
1
1
1
1
1
1
1
1
1
1
1
1
1
1
1
1
1
1
1
1
1
1
1
1
1
1
1
1
1.00831
1.54105
2.37879
2.52308
2.52906
2.53642
2.54247
2.54651
2.54741
2.54519
2.54037
2.53414
2.52695
2.51873
2.51012
2.50196
2.49364
2.48417
2.47333
2.46102
2.4477
2.4332
2.41651
2.39819
2.37763
2.35606
2.33251
1
1
1
1
1
1
1
1
1
1
1
1
1
1
1
1
1
1
1
1
1
1
1
1
1
1
1
1
1
1
1
1
1
1
1
1
1
1
1
1
1
1
1
1
1
1
1
1
1
1
1
1
1
1
1
1
1
1
1
1
1
1
1
1
1
1
1
1
1
1.00001
1.0214
1.65309
2.3933
2.50108
2.50466
2.51198
2.51653
2.517
2.51766
2.51638
2.51302
2.50777
2.50104
2.49288
2.48343
2.4732
2.4621
2.45099
2.44036
2.42907
2.41562
2.40008
2.3835
2.36501
2.34616
2.32617
1
1
1
1
1
1
1
1
1
1
1
1
1
1
1
1
1
1
1
1
1
1
1
1
1
1
1
1
1
1
1
1
1
1
1
1
1
1
1
1
1
1
1
1
1
1
1
1
1
1
1
1
1
1
1
1
1
1
1
1
1
1
1
1
1
1
1
1
1
1
1.00005
1.03686
1.69715
2.38657
2.47729
2.48236
2.48879
2.48971
2.48944
2.48857
2.48643
2.48352
2.4796
2.47402
2.46605
2.45577
2.44439
2.43336
2.4226
2.41097
2.39747
2.38237
2.36707
2.3504
2.33411
2.31755
1
1
1
1
1
1
1
1
1
1
1
1
1
1
1
1
1
1
1
1
1
1
1
1
1
1
1
1
1
1
1
1
1
1
1
1
1
1
1
1
1
1
1
1
1
1
1
1
1
1
1
1
1
1
1
1
1
1
1
1
1
1
1
1
1
1
1
1
1
1
1
1.00011
1.04579
1.69073
2.36185
2.45001
2.4599
2.46453
2.46392
2.46226
2.45981
2.45687
2.45396
2.45026
2.44449
2.43624
2.42674
2.41684
2.40633
2.39511
2.38248
2.36774
2.35279
2.33695
2.32176
2.30753
1
1
1
1
1
1
1
1
1
1
1
1
1
1
1
1
1
1
1
1
1
1
1
1
1
1
1
1
1
1
1
1
1
1
1
1
1
1
1
1
1
1
1
1
1
1
1
1
1
1
1
1
1
1
1
1
1
1
1
1
1
1
1
1
1
1
1
1
1
1
1
1
1.00017
1.04556
1.64444
2.31846
2.41835
2.43851
2.43981
2.43933
2.43659
2.43249
2.42825
2.4239
2.41889
2.41287
2.40607
2.39839
2.38934
2.37907
2.36756
2.35398
2.33975
2.325
2.31027
2.29728
1
1
1
1
1
1
1
1
1
1
1
1
1
1
1
1
1
1
1
1
1
1
1
1
1
1
1
1
1
1
1
1
1
1
1
1
1
1
1
1
1
1
1
1
1
1
1
1
1
1
1
1
1
1
1
1
1
1
1
1
1
1
1
1
1
1
1
1
1
1
1
1
1
1.00017
1.03832
1.58956
2.24691
2.38686
2.42073
2.4178
2.41602
2.41149
2.40453
2.3977
2.3924
2.38798
2.38325
2.37753
2.37028
2.3614
2.3513
2.33949
2.32663
2.3134
2.2992
2.28666
1
1
1
1
1
1
1
1
1
1
1
1
1
1
1
1
1
1
1
1
1
1
1
1
1
1
1
1
1
1
1
1
1
1
1
1
1
1
1
1
1
1
1
1
1
1
1
1
1
1
1
1
1
1
1
1
1
1
1
1
1
1
1
1
1
1
1
1
1
1
1
1
1
1
1.00014
1.03005
1.49546
2.14696
2.35601
2.39904
2.39332
2.38866
2.382
2.37375
2.36709
2.36302
2.35984
2.35595
2.35041
2.34287
2.33406
2.32383
2.31206
2.30007
2.28683
2.27471
1
1
1
1
1
1
1
1
1
1
1
1
1
1
1
1
1
1
1
1
1
1
1
1
1
1
1
1
1
1
1
1
1
1
1
1
1
1
1
1
1
1
1
1
1
1
1
1
1
1
1
1
1
1
1
1
1
1
1
1
1
1
1
1
1
1
1
1
1
1
1
1
1
1
1
1.00009
1.01863
1.37625
2.01182
2.31677
2.37261
2.36559
2.3576
2.35077
2.34448
2.34026
2.33764
2.33515
2.33127
2.3248
2.3166
2.30649
2.29477
2.28351
2.27171
2.26094
1
1
1
1
1
1
1
1
1
1
1
1
1
1
1
1
1
1
1
1
1
1
1
1
1
1
1
1
1
1
1
1
1
1
1
1
1
1
1
1
1
1
1
1
1
1
1
1
1
1
1
1
1
1
1
1
1
1
1
1
1
1
1
1
1
1
1
1
1
1
1
1
1
1
1
1
1.00005
1.00968
1.24475
1.83572
2.26877
2.33781
2.33583
2.32762
2.32358
2.32034
2.31783
2.3152
2.31152
2.30555
2.2973
2.28654
2.27516
2.26433
2.25422
2.24606
1
1
1
1
1
1
1
1
1
1
1
1
1
1
1
1
1
1
1
1
1
1
1
1
1
1
1
1
1
1
1
1
1
1
1
1
1
1
1
1
1
1
1
1
1
1
1
1
1
1
1
1
1
1
1
1
1
1
1
1
1
1
1
1
1
1
1
1
1
1
1
1
1
1
1
1
1
1.00002
1.00388
1.12455
1.67235
2.19608
2.28882
2.30797
2.30318
2.29925
2.29705
2.29423
2.28983
2.28399
2.27584
2.26549
2.25497
2.24498
2.23713
2.2309
1
1
1
1
1
1
1
1
1
1
1
1
1
1
1
1
1
1
1
1
1
1
1
1
1
1
1
1
1
1
1
1
1
1
1
1
1
1
1
1
1
1
1
1
1
1
1
1
1
1
1
1
1
1
1
1
1
1
1
1
1
1
1
1
1
1
1
1
1
1
1
1
1
1
1
1
1
1
1
1.00112
1.05763
1.52136
2.04392
2.24363
2.28623
2.28353
2.27558
2.27088
2.26667
2.26101
2.25303
2.24396
2.2354
2.22754
2.2221
2.21671
1
1
1
1
1
1
1
1
1
1
1
1
1
1
1
1
1
1
1
1
1
1
1
1
1
1
1
1
1
1
1
1
1
1
1
1
1
1
1
1
1
1
1
1
1
1
1
1
1
1
1
1
1
1
1
1
1
1
1
1
1
1
1
1
1
1
1
1
1
1
1
1
1
1
1
1
1
1
1
1
1.00031
1.02495
1.32164
1.84731
2.17948
2.24896
2.26054
2.2507
2.24432
2.23898
2.23145
2.22329
2.21663
2.2115
2.20726
2.20255
1
1
1
1
1
1
1
1
1
1
1
1
1
1
1
1
1
1
1
1
1
1
1
1
1
1
1
1
1
1
1
1
1
1
1
1
1
1
1
1
1
1
1
1
1
1
1
1
1
1
1
1
1
1
1
1
1
1
1
1
1
1
1
1
1
1
1
1
1
1
1
1
1
1
1
1
1
1
1
1
1
1.00008
1.00754
1.15114
1.6254
2.06088
2.1985
2.23216
2.22825
2.21685
2.20992
2.20533
2.20143
2.19691
2.19203
2.18792
1
1
1
1
1
1
1
1
1
1
1
1
1
1
1
1
1
1
1
1
1
1
1
1
1
1
1
1
1
1
1
1
1
1
1
1
1
1
1
1
1
1
1
1
1
1
1
1
1
1
1
1
1
1
1
1
1
1
1
1
1
1
1
1
1
1
1
1
1
1
1
1
1
1
1
1
1
1
1
1
1
1
1.00001
1.00172
1.05178
1.40298
1.84783
2.14195
2.20101
2.19799
2.19096
2.1858
2.18229
2.17878
2.1756
2.17107
1
1
1
1
1
1
1
1
1
1
1
1
1
1
1
1
1
1
1
1
1
1
1
1
1
1
1
1
1
1
1
1
1
1
1
1
1
1
1
1
1
1
1
1
1
1
1
1
1
1
1
1
1
1
1
1
1
1
1
1
1
1
1
1
1
1
1
1
1
1
1
1
1
1
1
1
1
1
1
1
1
1
1
1
1.00027
1.01445
1.1779
1.63618
2.01207
2.13292
2.17176
2.17314
2.16913
2.16459
2.15743
2.14785
1
1
1
1
1
1
1
1
1
1
1
1
1
1
1
1
1
1
1
1
1
1
1
1
1
1
1
1
1
1
1
1
1
1
1
1
1
1
1
1
1
1
1
1
1
1
1
1
1
1
1
1
1
1
1
1
1
1
1
1
1
1
1
1
1
1
1
1
1
1
1
1
1
1
1
1
1
1
1
1
1
1
1
1
1
1.00004
1.00253
1.05974
1.3786
1.7854
2.07346
2.12414
2.14285
2.14937
2.14266
2.13502
1
1
1
1
1
1
1
1
1
1
1
1
1
1
1
1
1
1
1
1
1
1
1
1
1
1
1
1
1
1
1
1
1
1
1
1
1
1
1
1
1
1
1
1
1
1
1
1
1
1
1
1
1
1
1
1
1
1
1
1
1
1
1
1
1
1
1
1
1
1
1
1
1
1
1
1
1
1
1
1
1
1
1
1
1
1
1
1.00035
1.01316
1.14974
1.53837
1.91727
2.06219
2.10046
2.12115
2.12354
1
1
1
1
1
1
1
1
1
1
1
1
1
1
1
1
1
1
1
1
1
1
1
1
1
1
1
1
1
1
1
1
1
1
1
1
1
1
1
1
1
1
1
1
1
1
1
1
1
1
1
1
1
1
1
1
1
1
1
1
1
1
1
1
1
1
1
1
1
1
1
1
1
1
1
1
1
1
1
1
1
1
1
1
1
1
1
1
1.00003
1.00199
1.0379
1.28584
1.66243
1.929
2.05423
2.10138
1
1
1
1
1
1
1
1
1
1
1
1
1
1
1
1
1
1
1
1
1
1
1
1
1
1
1
1
1
1
1
1
1
1
1
1
1
1
1
1
1
1
1
1
1
1
1
1
1
1
1
1
1
1
1
1
1
1
1
1
1
1
1
1
1
1
1
1
1
1
1
1
1
1
1
1
1
1
1
1
1
1
1
1
1
1
1
1
1
1
1.00018
1.00703
1.08585
1.36814
1.71978
1.97782
1
1
1
1
1
1
1
1
1
1
1
1
1
1
1
1
1
1
1
1
1
1
1
1
1
1
1
1
1
1
1
1
1
1
1
1
1
1
1
1
1
1
1
1
1
1
1
1
1
1
1
1
1
1
1
1
1
1
1
1
1
1
1
1
1
1
1
1
1
1
1
1
1
1
1
1
1
1
1
1
1
1
1
1
1
1
1
1
1
1
1
1.00001
1.0007
1.01491
1.13515
1.47502
1
1
1
1
1
1
1
1
1
1
1
1
1
1
1
1
1
1
1
1
1
1
1
1
1
1
1
1
1
1
1
1
1
1
1
1
1
1
1
1
1
1
1
1
1
1
1
1
1
1
1
1
1
1
1
1
1
1
1
1
1
1
1
1
1
1
1
1
1
1
1
1
1
1
1
1
1
1
1
1
1
1
1
1
1
1
1
1
1
1
1
1
1
1.00004
1.00182
1.02948
1
1
1
1
1
1
1
1
1
1
1
1
1
1
1
1
1
1
1
1
1
1
1
1
1
1
1
1
1
1
1
1
1
1
1
1
1
1
1
1
1
1
1
1
1
1
1
1
1
1
1
1
1
1
1
1
1
1
1
1
1
1
1
1
1
1
1
1
1
1
1
1
1
1
1
1
1
1
1
1
1
1
1
1
1
1
1
1
1
1
1
1
1
1
1
1.00012
1
1
1
1
1
1
1
1
1
1
1
1
1
1
1
1
1
1
1
1
1
1
1
1
1
1
1
1
1
1
1
1
1
1
1
1
1
1
1
1
1
1
1
1
1
1
1
1
1
1
1
1
1
1
1
1
1
1
1
1
1
1
1
1
1
1
1
1
1
1
1
1
1
1
1
1
1
1
1
1
1
1
1
1
1
1
1
1
1
1
1
1
1
1
1
1
1
1
1
1
1
1
1
1
1
1
1
1
1
1
1
1
1
1
1
1
1
1
1
1
1
1
1
1
1
1
1
1
1
1
1
1
1
1
1
1
1
1
1
1
1
1
1
1
1
1
1
1
1
1
1
1
1
1
1
1
1
1
1
1
1
1
1
1
1
1
1
1
1
1
1
1
1
1
1
1
1
1
1
1
1
1
1
1
1
1
1
1
1
1
1
1
1
1
1
1
1
1
1
1
1
1
1
1
1
1
1
1
1
1
1
1
1
1
1
1
1
1
1
1
1
1
1
1
1
1
1
1
1
1
1
1
1
1
1
1
1
1
1
1
1
1
1
1
1
1
1
1
1
1
1
1
1
1
1
1
1
1
1
1
1
1
1
1
1
1
1
1
1
1
1
1
1
1
1
1
1
1
1
1
1
1
1
1
1
1
1
1
1
1
1
1
1
1
1
1
1
1
1
1
1
1
1
1
1
1
1
1
1
1
1
1
1
1
1
1
1
1
1
1
1
1
1
1
1
1
1
1
1
1
1
1
1
1
1
1
1
1
1
1
1
1
1
1
1
1
1
1
1
1
1
1
1
1
1
1
1
1
1
1
1
1
1
1
1
1
1
1
1
1
1
1
1
1
1
1
1
1
1
1
1
1
1
1
1
1
1
1
1
1
1
1
1
1
1
1
1
1
1
1
1
1
1
1
1
1
1
1
1
1
1
1
1
1
1
1
1
1
1
1
1
1
1
1
1
1
1
1
1
1
1
1
1
1
1
1
1
1
1
1
1
1
1
1
1
1
1
1
1
1
1
1
1
1
1
1
1
1
1
1
1
1
1
1
1
1
1
1
1
1
1
1
1
1
1
1
1
1
1
1
1
1
1
1
1
1
1
1
1
1
1
1
1
1
1
1
1
1
1
1
1
1
1
1
1
1
1
1
1
1
1
1
1
1
1
1
1
1
1
1
1
1
1
1
1
1
1
1
1
1
1
1
1
1
1
1
1
1
1
1
1
1
1
1
1
1
1
1
1
1
1
1
1
1
1
1
1
1
1
1
1
1
1
1
1
1
1
1
1
1
1
1
1
1
1
1
1
1
1
1
1
1
1
1
1
1
1
1
1
1
1
1
1
1
1
1
1
1
1
1
1
1
1
1
1
1
1
1
1
1
1
1
1
1
1
1
1
1
1
1
1
1
1
1
1
1
1
1
1
1
1
1
1
1
1
1
1
1
1
1
1
1
1
1
1
1
1
1
1
1
1
1
1
1
1
1
1
1
1
1
1
1
1
1
1
1
1
1
1
1
1
1
1
1
1
1
1
1
1
1
1
1
1
1
1
1
1
1
1
1
1
1
1
1
1
1
1
1
1
1
1
1
1
1
1
1
1
1
1
1
1
1
1
1
1
1
1
1
1
1
1
1
1
1
1
1
1
1
1
1
1
1
1
1
1
1
1
1
1
1
1
1
1
1
1
1
1
1
1
1
1
1
1
1
1
1
1
1
1
1
1
1
1
1
1
1
1
1
1
1
1
1
1
1
1
1
1
1
1
1
1
1
1
1
1
1
1
1
1
1
1
1
1
1
1
1
1
1
1
1
1
1
1
1
1
1
1
1
1
1
1
1
1
1
1
1
1
1
1
1
1
1
1
1
1
1
1
1
1
1
1
1
1
1
1
1
1
1
1
1
1
1
1
1
1
1
1
1
1
1
1
1
1
1
1
1
1
1
1
1
1
1
1
1
1
1
1
1
1
1
1
1
1
1
1
1
1
1
1
1
1
1
1
1
1
1
1
1
1
1
1
1
1
1
1
1
1
1
1
1
1
1
1
1
1
1
1
1
1
1
1
1
1
1
1
1
1
1
1
1
1
1
1
1
1
1
1
1
1
1
1
1
1
1
1
1
1
1
1
1
1
1
1
1
1
1
1
1
1
1
1
1
1
1
1
1
1
1
1
1
1
1
1
1
1
1
1
1
1
1
1
1
1
1
1
1
1
1
1
1
1
1
1
1
1
1
1
1
1
1
1
1
1
1
1
1
1
1
1
1
1
1
1
1
1
1
1
1
1
1
1
1
1
1
1
1
1
1
1
1
1
1
1
1
1
1
1
1
1
1
1
1
1
1
1
1
1
1
1
1
1
1
1
1
1
1
1
1
1
1
1
1
1
1
1
1
1
1
1
1
1
1
1
1
1
1
1
1
1
1
1
1
1
1
1
1
1
1
1
1
1
1
1
1
1
1
1
1
1
1
1
1
1
1
1
1
1
1
1
1
1
1
1
1
1
1
1
1
1
1
1
1
1
1
1
1
1
1
1
1
1
1
1
1
1
1
1
1
1
1
1
1
1
1
1
1
1
1
1
1
1
1
1
1
1
1
1
1
1
1
1
1
1
1
1
1
1
1
1
1
1
1
1
1
1
1
1
1
1
1
1
1
1
1
1
1
1
1
1
1
1
1
1
1
1
1
1
1
1
1
1
1
1
1
1
1
1
1
1
1
1
1
1
1
1
1
1
1
1
1
1
1
1
1
1
1
1
1
1
1
1
1
1
1
1
1
1
1
1
1
1
1
1
1
1
1
1
1
1
1
1
1
1
1
1
1
1
1
1
1
1
1
1
1
1
1
1
1
1
1
1
1
1
1
1
1
1
1
1
1
1
1
1
1
1
1
1
1
1
1
1
1
1
1
1
1
1
1
1
1
1
1
1
1
1
1
1
1
1
1
1
1
1
1
1
1
1
1
1
1
1
1
1
1
1
1
1
1
1
1
1
1
1
1
1
1
1
1
1
1
1
1
1
1
1
1
1
1
1
1
1
1
1
1
1
1
1
1
1
1
1
1
1
1
1
1
1
1
1
1
1
1
1
1
1
1
1
1
1
1
1
1
1
1
1
1
1
1
1
1
1
1
1
1
1
1
1
1
1
1
1
1
1
1
1
1
1
1
1
1
1
1
1
1
1
1
1
1
1
1
1
1
1
1
1
1
1
1
1
1
1
1
1
1
1
1
1
1
1
1
1
1
1
1
1
1
1
1
1
1
1
1
1
1
1
1
1
1
1
1
1
1
1
1
1
1
1
1
1
1
1
1
1
1
1
1
1
1
1
1
1
1
1
1
1
1
1
1
1
1
1
1
1
1
1
1
1
1
1
1
1
1
1
1
1
1
1
1
1
1
1
1
1
1
1
1
1
1
1
1
1
1
1
1
1
1
1
1
1
1
1
1
1
1
1
1
1
1
1
1
1
1
1
1
1
1
1
1
1
1
1
1
1
1
1
1
1
1
1
1
1
1
1
1
1
1
1
1
1
1
1
1
1
1
1
1
1
1
1
1
1
1
1
1
1
1
1
1
1
1
1
1
1
1
1
1
1
1
1
1
1
1
1
1
1
1
1
1
1
1
1
1
1
1
1
1
1
1
1
1
1
1
1
1
1
1
1
1
1
1
1
1
1
1
1
1
1
1
1
1
1
1
1
1
1
1
1
1
1
1
1
1
1
1
1
1
1
1
1
1
1
1
1
1
1
1
1
1
1
1
1
1
1
1
1
1
1
1
1
1
1
1
1
1
1
1
1
1
1
1
1
1
1
1
1
1
1
1
1
1
1
1
1
1
1
1
1
1
1
1
1
1
1
1
1
1
1
1
1
1
1
1
1
1
1
1
1
1
1
1
1
1
1
1
1
1
1
1
1
1
1
1
1
1
1
1
1
1
1
1
1
1
1
1
1
1
1
1
1
1
1
1
1
1
1
1
1
1
1
1
1
1
1
1
1
1
1
1
1
1
1
1
1
1
1
1
1
1
1
1
1
1
1
1
1
1
1
1
1
1
1
1
1
1
1
1
1
1
1
1
1
1
1
1
1
1
1
1
1
1
1
1
1
1
1
1
1
1
1
1
1
1
1
1
1
1
1
1
1
1
1
1
1
1
1
1
1
1
1
1
1
1
1
1
1
1
1
1
1
1
1
1
1
1
1
1
1
1
1
1
1
1
1
1
1
1
1
1
1
1
1
1
1
1
1
1
1
1
1
1
1
1
1
1
1
1
1
1
1
1
1
1
1
1
1
1
1
1
1
1
1
1
1
1
1
1
1
1
1
1
1
1
1
1
1
1
1
1
1
1
1
1
1
1
1
1
1
1
1
1
1
1
1
1
1
1
1
1
1
1
1
1
1
1
1
1
1
1
1
1
1
1
1
1
1
1
1
1
1
1
1
1
1
1
1
1
1
1
1
1
1
1
1
1
1
1
1
1
1
1
1
1
1
1
1
1
1
1
1
1
1
1
1
1
1
1
1
1
1
1
1
1
1
1
1
1
1
1
1
1
1
1
1
1
1
1
1
1
1
1
1
1
1
1
1
1
1
1
1
1
1
1
1
1
1
1
1
1
1
1
1
1
1
1
1
1
1
1
1
1
1
1
1
1
1
1
1
1
1
1
1
1
1
1
1
1
1
1
1
1
1
1
1
1
1
1
1
1
1
1
1
1
1
1
1
1
1
1
1
1
1
1
1
1
1
1
1
1
1
1
1
1
1
1
1
1
1
1
1
1
1
1
1
1
1
1
1
1
1
1
1
1
1
1
1
1
1
1
1
1
1
1
1
1
1
1
1
1
1
1
1
1
1
1
1
1
1
1
1
1
1
1
1
1
1
1
1
1
1
1
1
1
1
1
1
1
1
1
1
1
1
1
1
1
1
1
1
1
1
1
1
1
1
1
1
1
1
1
1
1
1
1
1
1
1
1
1
1
1
1
1
1
1
1
1
1
1
1
1
1
1
1
1
1
1
1
1
1
1
1
1
1
1
1
1
1
1
1
1
1
1
1
1
1
1
1
1
1
1
1
1
1
1
1
1
1
1
1
1
1
1
1
1
1
1
1
1
1
1
1
1
1
1
1
1
1
1
1
1
1
1
1
1
1
1
1
1
1
1
1
1
1
1
1
1
1
1
1
1
1
1
1
1
1
1
1
1
1
1
1
1
1
1
1
1
1
1
1
1
1
1
1
1
1
1
1
1
1
1
1
1
1
1
1
1
1
1
1
1
1
1
1
1
1
1
1
1
1
1
1
1
1
1
1
1
1
1
1
1
1
1
1
1
1
1
1
1
1
1
1
1
1
1
1
1
1
1
1
1
1
1
1
1
1
1
1
1
1
1
1
1
1
1
1
1
1
1
1
1
1
1
1
1
1
1
1
1
1
1
1
1
1
1
1
1
1
1
1
1
1
1
1
1
1
1
1
1
1
1
1
1
1
1
1
1
1
1
1
1
1
1
1
1
1
1
1
1
1
1
1
1
1
1
1
1
1
1
1
1
1
1
1
1
1
1
1
1
1
1
1
1
1
1
1
1
1
1
1
1
1
1
1
1
1
1
1
1
1
1
1
1
1
1
1
1
1
1
1
1
1
1
1
1
1
1
1
1
1
1
1
1
1
1
1
1
1
1
1
1
1
1
1
1
1
1
1
1
1
1
1
1
1
1
1
1
1
1
1
1
1
1
1
1
1
1
1
1
1
1
1
1
1
1
1
1
1
1
1
1
1
1
1
1
1
1
1
1
1
1
1
1
1
1
1
1
1
1
1
1
1
1
1
1
1
1
1
1
1
1
1
1
1
1
1
1
1
1
1
1
1
1
1
1
1
1
1
1
1
1
1
1
1
1
1
1
1
1
1
1
1
1
1
1
1
1
1
1
1
1
1
1
1
1
1
1
1
1
1
1
1
1
1
1
1
1
1
1
1
1
1
1
1
1
1
1
1
1
1
1
1
1
1
1
1
1
1
1
1
1
1
1
1
1
1
1
1
1
1
1
1
1
1
1
1
1
1
1
1
1
1
1
1
1
1
1
1
1
1
1
1
1
1
1
1
1
1
1
1
1
1
1
1
1
1
1
1
1
1
1
1
1
1
1
1
1
1
1
1
1
1
1
1
1
1
1
1
1
1
1
1
1
1
1
1
1
1
1
1
1
1
1
1
1
1
1
1
1
1
1
1
1
1
1
1
1
1
1
1
1
1
1
1
1
1
1
1
1
1
1
1
1
1
1
1
1
1
1
1
1
1
1
1
1
1
1
1
1
1
1
1
1
1
1
1
1
1
1
1
1
1
1
1
1
1
1
1
1
1
1
1
1
1
1
1
1
1
1
1
1
1
1
1
1
1
1
1
1
1
1
1
1
1
1
1
1
1
1
1
1
1
1
1
1
1
1
1
1
1
1
1
1
1
1
1
1
1
1
1
1
1
1
1
1
1
1
1
1
1
1
1
1
1
1
1
1
1
1
1
1
1
1
1
1
1
1
1
1
1
1
1
1
1
1
1
1
1
1
1
1
1
1
1
1
1
1
1
1
1
1
1
1
1
1
1
1
1
1
1
1
1
1
1
1
1
1
1
1
1
1
1
1
1
1
1
1
1
1
1
1
1
1
1
1
1
1
1
1
1
1
1
1
1
1
1
1
1
1
1
1
1
1
1
1
1
1
1
1
1
1
1
1
1
1
1
1
1
1.91543
1.17546
0.680765
0.830771
1.1523
1.17791
1.24738
1.37505
1.51934
1.60579
1.67043
1.73678
1.80246
1.8075
1.82083
1.86304
1.94256
1.98869
1.97791
1.93683
1.9212
1.92925
1.95614
1.97852
1.97383
1.9543
1.91855
1.89686
1.89875
1.91832
1.9473
1.96063
1.96024
1.95281
1.93848
1.93303
1.93317
1.93575
1.93828
1.93744
1.93328
1.92727
1.92332
1.92081
1.91912
1.91772
1.91539
1.91035
1.90217
1.89353
1.88859
1.88754
1.88947
1.89347
1.89373
1.89328
1.89218
1.88931
1.88579
1.88502
1.88656
1.88976
1.89069
1.89059
1.89017
1.88851
1.88375
1.87564
1.86909
1.86517
1.8612
1.85695
1.852
1.84708
1.84279
1.83854
1.8332
1.82726
1.82513
1.82508
1.82546
1.82687
1.82871
1.83064
1.83142
1.83062
1.82776
1.82689
1.82911
1.83211
1.83527
1.83874
1.84182
1.84301
1.84275
1.8422
1.84217
1.84232
1.84276
1.84356
1.845
1.84558
1.84551
1.84526
1.84528
1.84515
1.84466
1.84408
1.84359
1.8429
1.84138
1.8398
1.83824
1.83612
1.8337
1.83188
1.82957
1.8258
1.82044
1.81368
1.80623
1.79848
1.78967
1.77829
1.7623
1.73938
1.70675
1.66199
1.60479
1.53786
1.46537
1.3887
1.30482
1.21105
1.11313
1.03236
0.994117
0.98742
0.987064
0.987023
0.98733
0.989213
0.992979
0.994775
0.99461
0.994882
0.99567
0.997784
0.999477
1.00037
1.00153
1.00242
1.00275
1.00285
1.00281
1.00265
1.00262
1.00295
1.00397
1.00536
1.00588
1.00578
1.00553
1.00535
1.00524
1.00517
1.00514
1.00513
1.00515
1.00542
1.00616
1.00746
1.00866
1.00899
1.009
1.00896
1.00888
1.00866
1.00821
1.00748
1.00666
1.00615
1.00599
1.00595
1.00591
1.00587
1.00578
1.00563
1.00536
1.00487
1.00402
1.00218
2.2027
1.76645
1.38917
1.39685
1.40905
1.31394
1.22637
1.23372
1.25181
1.28237
1.32453
1.35925
1.41019
1.47342
1.53543
1.59718
1.66068
1.71253
1.73673
1.75137
1.7687
1.7891
1.81406
1.8503
1.8733
1.87125
1.86076
1.851
1.85226
1.86356
1.87982
1.89054
1.89157
1.88838
1.88425
1.88437
1.8859
1.88979
1.89601
1.89929
1.89878
1.89728
1.89512
1.89219
1.88984
1.88743
1.88465
1.88068
1.87464
1.86843
1.86511
1.86502
1.86697
1.86993
1.87102
1.87096
1.87077
1.86995
1.86844
1.86813
1.86905
1.87068
1.87161
1.87182
1.8717
1.87067
1.86734
1.86132
1.85478
1.84953
1.8449
1.84043
1.83601
1.83169
1.8276
1.82381
1.81975
1.81423
1.80906
1.80803
1.80815
1.80934
1.81246
1.81604
1.81913
1.82133
1.82199
1.82129
1.82032
1.82166
1.82342
1.82474
1.82597
1.82706
1.82807
1.82917
1.83019
1.83113
1.83237
1.83386
1.83547
1.83634
1.83659
1.83662
1.83632
1.83556
1.83486
1.83387
1.83264
1.83096
1.82886
1.8267
1.82427
1.82278
1.82236
1.82202
1.82115
1.81887
1.81491
1.80963
1.80257
1.79449
1.78575
1.77518
1.76056
1.73904
1.7075
1.66363
1.60722
1.54096
1.46787
1.38993
1.3062
1.21365
1.11438
1.03035
0.991043
0.98502
0.984967
0.985038
0.985535
0.987272
0.990242
0.992641
0.993204
0.993602
0.994375
0.996345
0.998273
0.99923
1.00041
1.00135
1.00186
1.00215
1.0022
1.00218
1.00223
1.00261
1.00359
1.00495
1.00559
1.00552
1.0053
1.00514
1.00507
1.00504
1.00503
1.00503
1.00508
1.0054
1.00616
1.0074
1.00858
1.00896
1.00897
1.00894
1.00885
1.00864
1.00819
1.00746
1.00666
1.00618
1.00602
1.00597
1.00593
1.00587
1.00578
1.00562
1.00535
1.00488
1.00405
1.00221
2.23588
2.01899
1.80473
1.6835
1.57957
1.50013
1.41536
1.36756
1.33107
1.28959
1.27568
1.28053
1.29048
1.32628
1.3584
1.38271
1.40882
1.43832
1.47315
1.51869
1.56802
1.5994
1.6223
1.65329
1.69588
1.73285
1.75749
1.77241
1.77503
1.77682
1.7818
1.78563
1.78384
1.78031
1.78066
1.78512
1.79019
1.79449
1.80067
1.80639
1.81049
1.81475
1.81881
1.82011
1.81999
1.81834
1.81535
1.81215
1.80842
1.80714
1.80769
1.81023
1.81391
1.81503
1.81501
1.81468
1.81447
1.81431
1.81431
1.81564
1.81801
1.82007
1.82165
1.822
1.82167
1.82016
1.81683
1.81208
1.80716
1.803
1.79939
1.79586
1.79218
1.78831
1.78445
1.78127
1.77887
1.77613
1.77263
1.76957
1.76813
1.76798
1.76859
1.77072
1.77458
1.77915
1.78329
1.78593
1.78771
1.79025
1.79187
1.79158
1.79005
1.7884
1.78828
1.78917
1.79123
1.79292
1.79461
1.79646
1.79829
1.79938
1.79995
1.80054
1.80139
1.80267
1.80397
1.80422
1.80381
1.80227
1.79958
1.79526
1.79118
1.78947
1.78863
1.78789
1.78715
1.78557
1.78273
1.77906
1.77394
1.76716
1.75953
1.75119
1.74014
1.72298
1.69604
1.65679
1.60545
1.5437
1.47375
1.39856
1.31834
1.22924
1.13206
1.04441
0.997065
0.987824
0.987597
0.987626
0.987932
0.989357
0.992068
0.994002
0.994415
0.994957
0.995988
0.998173
0.999348
1.00025
1.00151
1.0024
1.00271
1.00279
1.00277
1.00275
1.00281
1.00313
1.00399
1.00523
1.00573
1.00561
1.00539
1.00525
1.00518
1.00516
1.00516
1.00516
1.00527
1.00561
1.00634
1.00753
1.00865
1.00899
1.00899
1.00895
1.00885
1.00863
1.00818
1.00744
1.00665
1.0062
1.00606
1.00601
1.00597
1.00591
1.00581
1.00564
1.00535
1.00484
1.00397
1.00213
2.24824
2.11198
1.99038
1.88096
1.76101
1.62896
1.56303
1.52234
1.48077
1.43369
1.41105
1.389
1.35531
1.33519
1.31717
1.31169
1.31571
1.3255
1.33432
1.34236
1.36543
1.40391
1.44878
1.48646
1.52539
1.56846
1.60518
1.63938
1.65286
1.65573
1.66214
1.67255
1.67853
1.68344
1.69153
1.70195
1.70359
1.70327
1.70486
1.70818
1.71216
1.71772
1.72432
1.72846
1.73089
1.73169
1.73147
1.7313
1.73097
1.73156
1.73438
1.73808
1.73954
1.7399
1.74017
1.74036
1.74074
1.74106
1.74178
1.7437
1.74505
1.74613
1.74764
1.7488
1.74879
1.74745
1.74383
1.73913
1.73525
1.73257
1.73064
1.72889
1.7268
1.72407
1.72083
1.71758
1.7149
1.71268
1.71034
1.70835
1.70785
1.70792
1.70841
1.70985
1.71201
1.71492
1.71797
1.71999
1.7218
1.72476
1.7274
1.72808
1.72802
1.72792
1.72814
1.72929
1.73137
1.73297
1.73446
1.73605
1.7377
1.73818
1.738
1.73758
1.7376
1.73811
1.7396
1.74139
1.74179
1.74159
1.74064
1.739
1.7369
1.73473
1.73336
1.73259
1.73148
1.72965
1.72738
1.72455
1.72062
1.71667
1.71257
1.70776
1.70163
1.69077
1.67134
1.64033
1.5969
1.54189
1.47727
1.40415
1.32463
1.23901
1.14743
1.05986
1.00349
0.988649
0.988022
0.988113
0.988401
0.989626
0.992279
0.993998
0.994296
0.994857
0.996248
0.99857
0.99948
1.00056
1.00195
1.00262
1.00275
1.00275
1.00266
1.00262
1.00271
1.00306
1.00397
1.00521
1.0056
1.00547
1.00527
1.0052
1.00516
1.00514
1.00513
1.00515
1.00533
1.00573
1.00648
1.00765
1.0087
1.00899
1.00899
1.00895
1.00884
1.00861
1.00815
1.00741
1.00665
1.00623
1.00611
1.00606
1.00602
1.00596
1.00585
1.00567
1.00537
1.00484
1.00394
1.00205
2.26167
2.14178
2.03319
1.95069
1.87263
1.78183
1.6831
1.61748
1.56534
1.52809
1.50662
1.47988
1.43689
1.39925
1.37824
1.35634
1.34312
1.33802
1.32693
1.31327
1.313
1.31716
1.32624
1.34059
1.36852
1.4161
1.46686
1.51254
1.5435
1.55985
1.56791
1.57945
1.58858
1.59645
1.60751
1.6216