/*--------------------------------*- C++ -*----------------------------------*\
  =========                 |
  \\      /  F ield         | OpenFOAM: The Open Source CFD Toolbox
   \\    /   O peration     | Website:  https://openfoam.org
    \\  /    A nd           | Version:  7
     \\/     M anipulation  |
\*---------------------------------------------------------------------------*/
FoamFile
{
    version     2.0;
    format      ascii;
    class       volVectorField;
    location    "0.6";
    object      U;
}
// * * * * * * * * * * * * * * * * * * * * * * * * * * * * * * * * * * * * * //

dimensions      [0 1 -1 0 0 0 0];

internalField   nonuniform List<vector> 
19968
(
(3 -2.04315e-16 0)
(3 -3.21072e-16 0)
(3 -5.70746e-16 0)
(3 -6.05987e-16 0)
(3 -8.66168e-16 0)
(3 -8.39582e-16 0)
(3 -7.18966e-16 0)
(3 -7.96163e-16 0)
(3 -1.37815e-15 0)
(3 -1.90451e-15 0)
(3 -1.36246e-15 0)
(3 -8.49839e-16 0)
(3 -5.6824e-16 0)
(3 -5.9337e-16 0)
(3 -6.97129e-16 0)
(3 -6.54227e-16 0)
(3 -7.96763e-16 0)
(3 -7.25888e-16 0)
(3 -7.68947e-16 0)
(3 -1.12361e-15 0)
(3 -8.98223e-16 0)
(3 -5.29172e-16 0)
(3 -2.95797e-16 0)
(3 -1.76357e-16 0)
(3 -4.34213e-16 0)
(3 -8.85264e-16 0)
(3 -7.03515e-16 0)
(3 -6.78877e-16 0)
(3 -1.099e-15 0)
(3 -1.03174e-15 0)
(3 -3.97505e-16 0)
(3 6.68951e-18 0)
(3 -2.52519e-17 0)
(3 -4.03731e-16 0)
(3 -9.62392e-16 0)
(3 -1.92179e-15 0)
(3 -1.87088e-15 0)
(3 -1.5e-15 0)
(3 -1.32709e-15 0)
(3 -1.8018e-15 0)
(3 -2.63099e-15 0)
(3 -1.976e-15 0)
(3 -1.65112e-15 0)
(3 -1.29129e-15 0)
(3 -1.26097e-15 0)
(3 -1.03222e-15 0)
(3 -4.34782e-16 0)
(3 -3.38245e-16 0)
(3 -3.08647e-16 0)
(3 -7.30619e-16 0)
(3 -5.92179e-16 0)
(3 4.22858e-16 0)
(3 -6.06541e-17 0)
(3 -2.12505e-16 0)
(3 -4.76797e-17 0)
(3 -3.15533e-16 0)
(3 -8.04893e-16 0)
(3 -1.91228e-15 0)
(3 -6.26814e-16 0)
(1.46797 0.00411777 0)
(0.71478 0.000526765 0)
(0.657747 0.018524 0)
(0.626213 0.0150896 0)
(0.603934 0.0118056 0)
(0.591114 0.0097629 0)
(0.584018 0.00998771 0)
(0.571843 0.0116853 0)
(0.551662 0.0121253 0)
(0.516624 0.0110205 0)
(0.479134 0.0104952 0)
(0.451381 0.0107799 0)
(0.434178 0.0110366 0)
(0.427305 0.0112737 0)
(0.42626 0.0120001 0)
(0.424506 0.0120189 0)
(0.413947 0.0120462 0)
(0.395608 0.0120482 0)
(0.37098 0.0121006 0)
(0.344725 0.0121859 0)
(0.320169 0.0122525 0)
(0.298817 0.0123065 0)
(0.279398 0.0124741 0)
(0.266108 0.0124634 0)
(0.256272 0.0123344 0)
(0.247444 0.0124241 0)
(0.235559 0.0125038 0)
(0.217114 0.0125204 0)
(0.191395 0.0125889 0)
(0.161336 0.013277 0)
(0.13128 0.0138521 0)
(0.104309 0.0145653 0)
(0.0813059 0.0153207 0)
(0.0613217 0.015763 0)
(0.0428562 0.0156242 0)
(0.0284187 0.015406 0)
(0.012378 0.0153431 0)
(3 -7.08396e-17 0)
(3 -5.77562e-16 0)
(3 -7.88103e-16 0)
(3 -1.34781e-15 0)
(3 -1.84419e-15 0)
(3 -2.24492e-15 0)
(3 -1.69523e-15 0)
(3 -1.61376e-15 0)
(3 -1.86604e-15 0)
(3 -2.2252e-15 0)
(3 -2.1052e-15 0)
(3 -5.61033e-16 0)
(3 1.81363e-16 0)
(3 6.4226e-16 0)
(3 4.40931e-16 0)
(3 -2.30462e-16 0)
(3 -5.25796e-16 0)
(3 -2.44507e-16 0)
(3 -3.30488e-16 0)
(3 -2.92115e-16 0)
(3 2.94262e-16 0)
(3 2.5529e-17 0)
(3 -2.3003e-16 0)
(3 -3.56165e-16 0)
(3 -9.99106e-16 0)
(3 -1.99964e-15 0)
(3 -1.24299e-15 0)
(3 -4.10978e-16 0)
(3 -3.27884e-16 0)
(3 -4.52952e-18 0)
(3 9.46413e-16 0)
(3 7.57816e-16 0)
(3 -3.67771e-16 0)
(3 -1.5088e-15 0)
(3 -2.21456e-15 0)
(3 -3.29894e-15 0)
(3 -3.33904e-15 0)
(3 -2.64128e-15 0)
(3 -2.15057e-15 0)
(3 -1.74145e-15 0)
(3 -2.21522e-15 0)
(3 -2.34625e-15 0)
(3 -2.71096e-15 0)
(3 -1.28426e-15 0)
(3 -7.80435e-16 0)
(3 -8.44876e-16 0)
(3 -5.85677e-16 0)
(3 -5.932e-16 0)
(3 -6.26637e-16 0)
(3 -6.43222e-16 0)
(3 -3.18439e-16 0)
(3 5.42415e-16 0)
(3 2.01936e-16 0)
(3 -7.98974e-17 0)
(3 -4.52883e-16 0)
(3 -6.75582e-16 0)
(3 -6.07477e-16 0)
(3 -1.88167e-15 0)
(3 -7.77044e-16 0)
(1.48931 0.0274403 0)
(0.708824 0.0170815 0)
(0.649709 0.0474843 0)
(0.620874 0.0434007 0)
(0.598601 0.0354997 0)
(0.585851 0.0286481 0)
(0.578113 0.0289898 0)
(0.566399 0.033963 0)
(0.546545 0.0360448 0)
(0.51184 0.0337369 0)
(0.474102 0.0323785 0)
(0.446728 0.0330711 0)
(0.42985 0.0333252 0)
(0.423142 0.0340094 0)
(0.422082 0.0354675 0)
(0.419846 0.0356969 0)
(0.408977 0.0359942 0)
(0.390375 0.0361327 0)
(0.365419 0.0366738 0)
(0.338789 0.0368993 0)
(0.313976 0.0369592 0)
(0.292408 0.0369683 0)
(0.272674 0.0374603 0)
(0.259221 0.037625 0)
(0.249133 0.0372672 0)
(0.240045 0.0373568 0)
(0.228076 0.0371935 0)
(0.209803 0.037012 0)
(0.184461 0.0373976 0)
(0.155115 0.0396292 0)
(0.126005 0.0418053 0)
(0.100019 0.0438765 0)
(0.0781337 0.0457612 0)
(0.0592715 0.0468805 0)
(0.0416976 0.0468655 0)
(0.0275048 0.0468616 0)
(0.0118952 0.0470964 0)
(3 1.41939e-16 0)
(3 3.80281e-17 0)
(3 -3.90571e-16 0)
(3 -7.16159e-16 0)
(3 -7.88594e-16 0)
(3 -9.68421e-16 0)
(3 -9.33089e-16 0)
(3 -9.38202e-16 0)
(3 -1.07041e-15 0)
(3 -1.02028e-15 0)
(3 -9.05525e-16 0)
(3 -7.29518e-16 0)
(3 4.95926e-17 0)
(3 1.23485e-15 0)
(3 2.11114e-15 0)
(3 1.6531e-15 0)
(3 1.1824e-15 0)
(3 9.22984e-16 0)
(3 1.00951e-15 0)
(3 1.1329e-15 0)
(3 1.66251e-15 0)
(3 2.26811e-15 0)
(3 2.37976e-15 0)
(3 6.95913e-16 0)
(3 -2.11576e-16 0)
(3 -4.30596e-16 0)
(3 -1.65623e-16 0)
(3 -1.98842e-17 0)
(3 1.11405e-15 0)
(3 1.74148e-15 0)
(3 1.43985e-15 0)
(3 1.39577e-15 0)
(3 1.30764e-15 0)
(3 7.334e-16 0)
(3 1.8848e-16 0)
(3 -7.82711e-16 0)
(3 -9.41357e-16 0)
(3 -1.57054e-15 0)
(3 -2.03163e-15 0)
(3 -1.53234e-15 0)
(3 -1.76357e-15 0)
(3 -2.44076e-15 0)
(3 -1.97578e-15 0)
(3 -1.74084e-15 0)
(3 -1.03824e-15 0)
(3 -7.12452e-18 0)
(3 -3.52418e-16 0)
(3 3.65241e-16 0)
(3 2.78904e-16 0)
(3 3.1894e-16 0)
(3 2.40402e-16 0)
(3 4.16358e-16 0)
(3 3.7517e-16 0)
(3 4.87701e-16 0)
(3 -1.44991e-16 0)
(3 -5.19276e-16 0)
(3 -1.43356e-15 0)
(3 -2.75655e-15 0)
(3 -8.04988e-15 0)
(1.55018 0.0517494 0)
(0.714264 0.0403567 0)
(0.648073 0.076986 0)
(0.619785 0.071765 0)
(0.597957 0.0603028 0)
(0.586399 0.0493649 0)
(0.577913 0.0498545 0)
(0.566644 0.0573026 0)
(0.546567 0.0609204 0)
(0.512088 0.0576211 0)
(0.473296 0.0559105 0)
(0.445975 0.0570179 0)
(0.429471 0.0573232 0)
(0.423259 0.0589611 0)
(0.42211 0.0609518 0)
(0.419315 0.0617414 0)
(0.408078 0.0622669 0)
(0.389067 0.0627411 0)
(0.363313 0.0635185 0)
(0.335789 0.0634751 0)
(0.31048 0.0634131 0)
(0.28858 0.0634938 0)
(0.268187 0.064198 0)
(0.254054 0.0645408 0)
(0.242857 0.0638769 0)
(0.232675 0.0638638 0)
(0.220213 0.0635076 0)
(0.202015 0.0632809 0)
(0.176981 0.0638925 0)
(0.147946 0.0670104 0)
(0.118967 0.0701137 0)
(0.0931838 0.0730011 0)
(0.0721188 0.0757021 0)
(0.0548231 0.0775412 0)
(0.0392146 0.0780218 0)
(0.0254939 0.0786159 0)
(0.0109078 0.0795581 0)
(3 -1.6605e-16 0)
(3 3.10338e-16 0)
(3 5.973e-17 0)
(3 1.68285e-16 0)
(3 1.94538e-16 0)
(3 -1.69744e-17 0)
(3 -4.01853e-16 0)
(3 -2.98703e-16 0)
(3 3.69817e-17 0)
(3 -6.23309e-16 0)
(3 -8.46845e-16 0)
(3 -1.40733e-15 0)
(3 8.29649e-17 0)
(3 3.28423e-16 0)
(3 4.08334e-16 0)
(3 7.79237e-16 0)
(3 7.22242e-16 0)
(3 6.26493e-16 0)
(3 7.59356e-16 0)
(3 1.05434e-15 0)
(3 1.37119e-15 0)
(3 2.27369e-15 0)
(3 2.80205e-15 0)
(3 1.99456e-15 0)
(3 1.52542e-15 0)
(3 1.12307e-15 0)
(3 2.29764e-16 0)
(3 2.93755e-16 0)
(3 1.17396e-15 0)
(3 1.49114e-15 0)
(3 8.46575e-16 0)
(3 9.86891e-16 0)
(3 9.5962e-16 0)
(3 4.69191e-16 0)
(3 -8.96994e-17 0)
(3 -2.15496e-16 0)
(3 4.05327e-16 0)
(3 3.94603e-16 0)
(3 -4.20292e-16 0)
(3 -1.29796e-15 0)
(3 -1.19793e-15 0)
(3 -1.38084e-15 0)
(3 -1.13814e-15 0)
(3 -6.55287e-16 0)
(3 -1.05485e-15 0)
(3 -1.38776e-15 0)
(3 -1.51937e-15 0)
(3 -7.323e-16 0)
(3 1.18923e-15 0)
(3 9.27219e-16 0)
(3 6.00343e-16 0)
(3 3.80939e-16 0)
(3 8.6697e-17 0)
(3 -1.38927e-16 0)
(3 -8.04043e-16 0)
(3 -1.54769e-15 0)
(3 -1.97171e-15 0)
(3 -1.86354e-15 0)
(3 -5.09309e-15 0)
(1.6432 0.0750352 0)
(0.725913 0.0716006 0)
(0.644875 0.106975 0)
(0.617705 0.0971489 0)
(0.598091 0.0822108 0)
(0.588965 0.0698507 0)
(0.581017 0.0718325 0)
(0.569833 0.0815609 0)
(0.549089 0.0862789 0)
(0.515216 0.0822299 0)
(0.476131 0.0805828 0)
(0.449383 0.0822709 0)
(0.433581 0.0827034 0)
(0.428652 0.0855761 0)
(0.427116 0.0876822 0)
(0.423952 0.0890778 0)
(0.412314 0.0900658 0)
(0.39271 0.0907888 0)
(0.366016 0.0920484 0)
(0.33777 0.0918427 0)
(0.312328 0.0917872 0)
(0.290392 0.092219 0)
(0.269298 0.0931385 0)
(0.254076 0.0936898 0)
(0.24127 0.0929779 0)
(0.229633 0.0930566 0)
(0.216486 0.0924 0)
(0.198236 0.092204 0)
(0.173295 0.0930074 0)
(0.144102 0.0964824 0)
(0.114695 0.100103 0)
(0.0885604 0.103018 0)
(0.0678863 0.105813 0)
(0.0518433 0.108072 0)
(0.0378961 0.109188 0)
(0.0242947 0.110342 0)
(0.0101327 0.112036 0)
(3 -1.30615e-16 0)
(3 3.92778e-17 0)
(3 5.0752e-16 0)
(3 9.82351e-16 0)
(3 1.58781e-15 0)
(3 1.79222e-15 0)
(3 1.30754e-15 0)
(3 9.65333e-16 0)
(3 1.14829e-15 0)
(3 1.00851e-15 0)
(3 3.5777e-16 0)
(3 -1.03686e-16 0)
(3 -9.16763e-17 0)
(3 5.50393e-17 0)
(3 -7.93931e-17 0)
(3 -1.48344e-16 0)
(3 -1.38236e-17 0)
(3 8.28367e-17 0)
(3 2.691e-16 0)
(3 9.89999e-16 0)
(3 1.44154e-15 0)
(3 1.08909e-15 0)
(3 7.4852e-16 0)
(3 4.69843e-16 0)
(3 5.9248e-16 0)
(3 4.6231e-16 0)
(3 2.52878e-16 0)
(3 1.94044e-16 0)
(3 -4.35609e-17 0)
(3 -2.24506e-17 0)
(3 -2.55323e-16 0)
(3 -7.38703e-16 0)
(3 -6.59096e-16 0)
(3 -1.1404e-16 0)
(3 6.69305e-16 0)
(3 8.41543e-16 0)
(3 6.84285e-16 0)
(3 6.1703e-16 0)
(3 2.56552e-16 0)
(3 -6.34974e-16 0)
(3 -7.55086e-16 0)
(3 -2.06422e-16 0)
(3 -3.6895e-16 0)
(3 -4.53909e-16 0)
(3 -9.41285e-16 0)
(3 -1.12329e-15 0)
(3 -1.74394e-15 0)
(3 -1.97263e-15 0)
(3 -1.14526e-15 0)
(3 -3.4371e-16 0)
(3 -6.46242e-17 0)
(3 -3.93652e-16 0)
(3 -6.28286e-16 0)
(3 -1.77192e-15 0)
(3 -2.64563e-15 0)
(3 -2.79165e-15 0)
(3 -2.1794e-15 0)
(3 -1.19919e-15 0)
(3 -2.16997e-15 0)
(1.7709 0.102252 0)
(0.738986 0.115145 0)
(0.639899 0.134492 0)
(0.61927 0.11801 0)
(0.603216 0.100944 0)
(0.594502 0.0904392 0)
(0.586336 0.0960271 0)
(0.573251 0.108023 0)
(0.551331 0.112312 0)
(0.518434 0.107723 0)
(0.48049 0.106011 0)
(0.454741 0.108557 0)
(0.43962 0.110242 0)
(0.435741 0.114338 0)
(0.43382 0.116633 0)
(0.430527 0.117869 0)
(0.418476 0.118952 0)
(0.398307 0.119822 0)
(0.370688 0.121874 0)
(0.341891 0.121811 0)
(0.316637 0.121914 0)
(0.29513 0.122874 0)
(0.273487 0.123884 0)
(0.257309 0.124625 0)
(0.243089 0.124104 0)
(0.230306 0.124497 0)
(0.216794 0.124029 0)
(0.198803 0.1241 0)
(0.174092 0.125093 0)
(0.144542 0.128279 0)
(0.114376 0.131429 0)
(0.087802 0.134236 0)
(0.0674248 0.137008 0)
(0.0522481 0.13951 0)
(0.039298 0.141163 0)
(0.0251089 0.142946 0)
(0.0101431 0.145542 0)
(3 1.5849e-16 0)
(3 -5.25664e-18 0)
(3 9.49923e-17 0)
(3 6.60344e-16 0)
(3 1.28424e-15 0)
(3 1.14244e-15 0)
(3 1.09201e-15 0)
(3 9.30078e-16 0)
(3 9.55128e-16 0)
(3 5.57685e-16 0)
(3 4.12554e-16 0)
(3 1.12566e-16 0)
(3 -1.0807e-15 0)
(3 -1.02071e-15 0)
(3 -6.31715e-16 0)
(3 -4.22411e-16 0)
(3 3.00477e-16 0)
(3 6.10003e-16 0)
(3 5.1404e-16 0)
(3 2.50923e-16 0)
(3 1.10672e-15 0)
(3 1.49598e-15 0)
(3 1.10353e-15 0)
(3 8.1551e-16 0)
(3 6.2269e-16 0)
(3 6.84178e-16 0)
(3 5.37319e-16 0)
(3 -2.22851e-16 0)
(3 -1.07247e-15 0)
(3 -1.98531e-15 0)
(3 -2.12555e-15 0)
(3 -2.35294e-15 0)
(3 -2.39461e-15 0)
(3 -2.07946e-15 0)
(3 -5.93019e-16 0)
(3 1.05767e-16 0)
(3 -4.18602e-16 0)
(3 -7.01527e-16 0)
(3 -4.08449e-16 0)
(3 -3.0217e-16 0)
(3 -9.92508e-16 0)
(3 -1.46275e-15 0)
(3 -1.62236e-15 0)
(3 -1.85897e-15 0)
(3 -1.62631e-15 0)
(3 -7.21891e-16 0)
(3 -6.84291e-16 0)
(3 -1.39157e-15 0)
(3 -2.92302e-15 0)
(3 -3.17318e-15 0)
(3 -3.02235e-15 0)
(3 -1.83731e-15 0)
(3 -1.15075e-15 0)
(3 -1.17861e-15 0)
(3 -9.20061e-16 0)
(3 -8.32436e-16 0)
(3 -6.60917e-16 0)
(3 -5.32611e-16 0)
(3 -1.94047e-15 0)
(1.94835 0.135068 0)
(0.75589 0.167142 0)
(0.638437 0.157361 0)
(0.627749 0.135688 0)
(0.613135 0.11809 0)
(0.602858 0.11351 0)
(0.592061 0.125102 0)
(0.574576 0.138035 0)
(0.553057 0.139189 0)
(0.522853 0.133903 0)
(0.487852 0.132259 0)
(0.46324 0.136466 0)
(0.448015 0.13989 0)
(0.443553 0.145177 0)
(0.440044 0.147848 0)
(0.436866 0.147595 0)
(0.424673 0.148941 0)
(0.404449 0.149654 0)
(0.376655 0.15253 0)
(0.347747 0.153193 0)
(0.322613 0.153902 0)
(0.301398 0.155669 0)
(0.279034 0.156688 0)
(0.262142 0.157328 0)
(0.247061 0.157035 0)
(0.233745 0.157851 0)
(0.220289 0.157951 0)
(0.202769 0.158717 0)
(0.178224 0.160095 0)
(0.147999 0.162881 0)
(0.116959 0.165528 0)
(0.0901955 0.167523 0)
(0.0701571 0.169898 0)
(0.055572 0.172533 0)
(0.0431282 0.17501 0)
(0.0285554 0.177451 0)
(0.0107815 0.180755 0)
(3 5.65653e-17 0)
(3 1.83446e-16 0)
(3 3.76222e-16 0)
(3 2.55664e-16 0)
(3 1.08885e-16 0)
(3 -2.81323e-17 0)
(3 2.00475e-16 0)
(3 3.68072e-16 0)
(3 2.07016e-16 0)
(3 1.46267e-16 0)
(3 4.8473e-16 0)
(3 -5.23526e-16 0)
(3 -2.01392e-15 0)
(3 -2.67228e-15 0)
(3 -2.95537e-15 0)
(3 -2.36047e-15 0)
(3 -2.01731e-15 0)
(3 -1.59286e-15 0)
(3 -1.52323e-15 0)
(3 -1.81817e-15 0)
(3 -1.70659e-15 0)
(3 -7.33956e-16 0)
(3 6.42569e-16 0)
(3 7.32357e-16 0)
(3 1.50803e-16 0)
(3 -2.61456e-16 0)
(3 -9.99957e-17 0)
(3 3.05063e-17 0)
(3 -1.19701e-17 0)
(3 -4.13622e-16 0)
(3 -6.25612e-16 0)
(3 -7.389e-16 0)
(3 -2.05694e-15 0)
(3 -2.90993e-15 0)
(3 -2.54799e-15 0)
(3 -1.52446e-15 0)
(3 -9.55034e-16 0)
(3 -1.56139e-15 0)
(3 -1.34595e-15 0)
(3 -9.47738e-16 0)
(3 -1.2006e-15 0)
(3 -2.70928e-15 0)
(3 -2.31474e-15 0)
(3 -1.80677e-15 0)
(3 -9.26986e-16 0)
(3 -6.64023e-16 0)
(3 -5.80899e-16 0)
(3 -6.77681e-16 0)
(3 -1.50495e-15 0)
(3 -1.95135e-15 0)
(3 -1.58112e-15 0)
(3 -5.50351e-16 0)
(3 2.23273e-16 0)
(3 1.18451e-15 0)
(3 1.34592e-15 0)
(3 1.30882e-15 0)
(3 2.93626e-16 0)
(3 -6.27241e-16 0)
(3 -2.4784e-15 0)
(2.21711 0.168041 0)
(0.783094 0.217888 0)
(0.648067 0.177766 0)
(0.643518 0.149727 0)
(0.624333 0.137272 0)
(0.60868 0.142334 0)
(0.593518 0.159759 0)
(0.573875 0.170462 0)
(0.556957 0.166981 0)
(0.530668 0.161064 0)
(0.498037 0.160626 0)
(0.473866 0.166703 0)
(0.458094 0.172597 0)
(0.450542 0.177611 0)
(0.445268 0.180379 0)
(0.441278 0.179073 0)
(0.429456 0.180021 0)
(0.410539 0.180591 0)
(0.383929 0.184009 0)
(0.355603 0.185831 0)
(0.330097 0.187512 0)
(0.30784 0.190309 0)
(0.284885 0.191612 0)
(0.267099 0.191929 0)
(0.252003 0.191603 0)
(0.239205 0.192852 0)
(0.226426 0.193713 0)
(0.2094 0.195309 0)
(0.184664 0.197328 0)
(0.153477 0.200092 0)
(0.121776 0.202502 0)
(0.0951898 0.204754 0)
(0.075698 0.206874 0)
(0.0614886 0.20933 0)
(0.048818 0.211847 0)
(0.0333889 0.214656 0)
(0.0121043 0.218196 0)
(3 -2.05702e-17 0)
(3 -2.94548e-16 0)
(3 -2.49065e-16 0)
(3 -2.72993e-16 0)
(3 -2.63679e-16 0)
(3 2.31065e-16 0)
(3 5.79128e-16 0)
(3 4.83741e-16 0)
(3 1.56841e-17 0)
(3 7.49662e-17 0)
(3 7.18345e-16 0)
(3 7.80047e-16 0)
(3 3.23595e-16 0)
(3 -3.13212e-16 0)
(3 -6.3778e-16 0)
(3 -8.27186e-16 0)
(3 -1.04967e-15 0)
(3 -1.61519e-15 0)
(3 -1.63699e-15 0)
(3 -1.40422e-15 0)
(3 -1.59601e-15 0)
(3 -1.67753e-15 0)
(3 -1.11482e-15 0)
(3 -1.37283e-15 0)
(3 -1.06212e-15 0)
(3 -1.02516e-15 0)
(3 -3.38394e-16 0)
(3 2.64438e-16 0)
(3 4.55465e-16 0)
(3 4.67501e-16 0)
(3 3.22957e-16 0)
(3 -8.75703e-17 0)
(3 -6.87127e-16 0)
(3 -1.23335e-15 0)
(3 -2.01946e-15 0)
(3 -2.11123e-15 0)
(3 -1.90368e-15 0)
(3 -1.61854e-15 0)
(3 -1.67575e-15 0)
(3 -1.69035e-15 0)
(3 -1.53049e-15 0)
(3 -1.19928e-15 0)
(3 -9.99786e-16 0)
(3 -6.18098e-16 0)
(3 -9.43235e-17 0)
(3 -3.09128e-16 0)
(3 -1.0699e-15 0)
(3 -1.55968e-15 0)
(3 -1.22118e-15 0)
(3 -9.79431e-16 0)
(3 -9.22881e-16 0)
(3 -4.06184e-16 0)
(3 5.46168e-17 0)
(3 6.43836e-16 0)
(3 1.47731e-15 0)
(3 1.53544e-15 0)
(3 9.11515e-16 0)
(3 -1.24817e-16 0)
(3 -1.11949e-15 0)
(2.62572 0.161417 0)
(0.862573 0.250334 0)
(0.669995 0.188933 0)
(0.658168 0.159841 0)
(0.632096 0.163387 0)
(0.61137 0.183752 0)
(0.591149 0.201634 0)
(0.572977 0.203473 0)
(0.562835 0.195784 0)
(0.540711 0.190955 0)
(0.51103 0.192047 0)
(0.486975 0.200101 0)
(0.47048 0.207723 0)
(0.458483 0.210662 0)
(0.45158 0.212822 0)
(0.445558 0.211752 0)
(0.434451 0.212125 0)
(0.418089 0.21333 0)
(0.393787 0.216886 0)
(0.366598 0.219547 0)
(0.340341 0.222267 0)
(0.31577 0.226014 0)
(0.291536 0.228275 0)
(0.272092 0.228893 0)
(0.257239 0.228182 0)
(0.24565 0.22997 0)
(0.233979 0.231616 0)
(0.217248 0.233663 0)
(0.191837 0.23655 0)
(0.159626 0.240027 0)
(0.127737 0.243189 0)
(0.102031 0.245477 0)
(0.0832571 0.248155 0)
(0.0688323 0.25044 0)
(0.0547179 0.252513 0)
(0.0375304 0.255092 0)
(0.0134917 0.258406 0)
(3 2.74733e-17 0)
(3 -7.84078e-17 0)
(3 -3.97546e-16 0)
(3 -6.65658e-16 0)
(3 -5.72476e-16 0)
(3 -2.28271e-16 0)
(3 -9.44695e-17 0)
(3 -3.88366e-16 0)
(3 -1.58959e-16 0)
(3 3.97346e-16 0)
(3 1.68847e-16 0)
(3 7.27e-16 0)
(3 1.32277e-15 0)
(3 1.43726e-15 0)
(3 1.37273e-15 0)
(3 1.24313e-15 0)
(3 9.48238e-16 0)
(3 6.34524e-16 0)
(3 4.28919e-16 0)
(3 4.07422e-16 0)
(3 2.8714e-16 0)
(3 -9.12008e-16 0)
(3 -1.55358e-15 0)
(3 -2.10189e-15 0)
(3 -4.48375e-16 0)
(3 5.4643e-17 0)
(3 1.62774e-16 0)
(3 3.16067e-16 0)
(3 2.92445e-16 0)
(3 3.04025e-16 0)
(3 3.27152e-16 0)
(3 4.22989e-17 0)
(3 -4.59109e-16 0)
(3 -7.52605e-16 0)
(3 -1.1694e-15 0)
(3 -1.64647e-15 0)
(3 -1.59371e-15 0)
(3 -1.20536e-15 0)
(3 -1.60354e-15 0)
(3 -1.70677e-15 0)
(3 -2.38334e-16 0)
(3 1.04818e-15 0)
(3 1.78254e-15 0)
(3 1.85534e-15 0)
(3 1.6605e-15 0)
(3 1.18741e-15 0)
(3 5.05704e-17 0)
(3 -9.32494e-16 0)
(3 -1.30597e-15 0)
(3 -1.16619e-15 0)
(3 -9.14931e-16 0)
(3 -1.21495e-15 0)
(3 -1.39801e-15 0)
(3 -1.59408e-15 0)
(3 -1.53447e-15 0)
(3 -8.36267e-16 0)
(3 -5.0228e-16 0)
(3 2.17997e-16 0)
(3 9.55589e-17 0)
(2.97209 0.0305377 0)
(1.01866 0.245464 0)
(0.702377 0.186368 0)
(0.674548 0.187381 0)
(0.636114 0.210724 0)
(0.604241 0.236546 0)
(0.585471 0.241115 0)
(0.579271 0.232734 0)
(0.575133 0.223131 0)
(0.55721 0.221179 0)
(0.528756 0.22694 0)
(0.501992 0.237002 0)
(0.48342 0.243211 0)
(0.468792 0.243516 0)
(0.460298 0.244433 0)
(0.452331 0.245754 0)
(0.441654 0.245782 0)
(0.427297 0.248428 0)
(0.405043 0.252195 0)
(0.379356 0.254739 0)
(0.352918 0.258259 0)
(0.325581 0.262579 0)
(0.299573 0.266359 0)
(0.277862 0.268503 0)
(0.262688 0.267939 0)
(0.252537 0.269993 0)
(0.242307 0.272041 0)
(0.226202 0.273824 0)
(0.200803 0.277479 0)
(0.168653 0.282457 0)
(0.137323 0.286931 0)
(0.112443 0.290897 0)
(0.0938492 0.294132 0)
(0.0777281 0.296664 0)
(0.0603627 0.297775 0)
(0.0400844 0.299295 0)
(0.0145618 0.302367 0)
(3 -9.33688e-17 0)
(3 5.7074e-16 0)
(3 6.82287e-16 0)
(3 7.6575e-16 0)
(3 6.80535e-16 0)
(3 2.56883e-16 0)
(3 7.12678e-17 0)
(3 3.22575e-16 0)
(3 2.7947e-16 0)
(3 2.48253e-16 0)
(3 -1.04402e-16 0)
(3 -4.39616e-16 0)
(3 -3.22887e-16 0)
(3 3.12593e-16 0)
(3 6.09272e-16 0)
(3 6.14356e-16 0)
(3 -9.13268e-19 0)
(3 -1.13095e-15 0)
(3 -1.29349e-15 0)
(3 -1.11108e-15 0)
(3 -1.09024e-15 0)
(3 -1.35252e-15 0)
(3 -2.12196e-15 0)
(3 -2.4773e-15 0)
(3 -1.96425e-15 0)
(3 -1.38691e-15 0)
(3 -7.6819e-16 0)
(3 -4.60376e-16 0)
(3 -6.35983e-16 0)
(3 -8.85504e-16 0)
(3 -8.26821e-16 0)
(3 -7.06192e-16 0)
(3 -1.0396e-15 0)
(3 -1.38385e-15 0)
(3 -1.67102e-15 0)
(3 -1.41238e-15 0)
(3 -1.37923e-15 0)
(3 -1.60766e-15 0)
(3 -1.61057e-15 0)
(3 -1.58417e-15 0)
(3 -1.01285e-15 0)
(3 -8.17989e-16 0)
(3 -1.13865e-15 0)
(3 -7.77052e-16 0)
(3 -5.19939e-17 0)
(3 1.14279e-16 0)
(3 -2.34209e-16 0)
(3 -7.30462e-16 0)
(3 -1.34144e-15 0)
(3 -1.42051e-15 0)
(3 -1.21157e-15 0)
(3 -1.17439e-15 0)
(3 -1.16724e-15 0)
(3 -2.42457e-15 0)
(3 -1.99559e-15 0)
(3 -1.55895e-15 0)
(3 -1.05526e-15 0)
(3 -1.11496e-15 0)
(3 -1.94493e-15 0)
(3.00033 0.000340676 0)
(1.34269 0.246277 0)
(0.721133 0.211032 0)
(0.659352 0.245051 0)
(0.626336 0.273477 0)
(0.604571 0.279711 0)
(0.598304 0.270966 0)
(0.600001 0.257428 0)
(0.592859 0.250441 0)
(0.576489 0.254707 0)
(0.545818 0.267115 0)
(0.513179 0.277706 0)
(0.491374 0.280938 0)
(0.477803 0.278624 0)
(0.468456 0.278139 0)
(0.461729 0.281471 0)
(0.450583 0.282616 0)
(0.437016 0.286078 0)
(0.415607 0.290571 0)
(0.391299 0.292517 0)
(0.366149 0.2961 0)
(0.337669 0.300657 0)
(0.310409 0.305691 0)
(0.286828 0.310187 0)
(0.269622 0.311339 0)
(0.259052 0.313818 0)
(0.249552 0.315894 0)
(0.23463 0.31733 0)
(0.210934 0.321796 0)
(0.180865 0.328152 0)
(0.15086 0.335332 0)
(0.12613 0.341804 0)
(0.105889 0.346505 0)
(0.0861429 0.34887 0)
(0.0639825 0.348774 0)
(0.0397548 0.348598 0)
(0.0148459 0.351775 0)
(3 -1.90497e-17 0)
(3 6.6074e-18 0)
(3 1.65005e-16 0)
(3 6.86241e-16 0)
(3 7.55081e-16 0)
(3 6.0209e-16 0)
(3 4.11849e-16 0)
(3 4.25667e-16 0)
(3 3.96628e-16 0)
(3 -1.45759e-16 0)
(3 -5.26584e-16 0)
(3 -7.03516e-16 0)
(3 -7.07315e-16 0)
(3 -7.51429e-16 0)
(3 -1.13471e-15 0)
(3 -1.45756e-15 0)
(3 -1.99066e-15 0)
(3 -1.9859e-15 0)
(3 -2.07109e-15 0)
(3 -2.06205e-15 0)
(3 -1.61521e-15 0)
(3 -1.41903e-15 0)
(3 -1.73072e-15 0)
(3 -9.31933e-16 0)
(3 -8.28588e-16 0)
(3 -1.39115e-15 0)
(3 -2.42965e-15 0)
(3 -2.56315e-15 0)
(3 -2.45886e-15 0)
(3 -2.10819e-15 0)
(3 -2.11409e-15 0)
(3 -1.86347e-15 0)
(3 -1.652e-15 0)
(3 -1.38265e-15 0)
(3 -1.24172e-15 0)
(3 -1.34015e-15 0)
(3 -1.64756e-15 0)
(3 -2.31574e-15 0)
(3 -1.71669e-15 0)
(3 -6.76708e-16 0)
(3 -8.25814e-17 0)
(3 -4.68115e-16 0)
(3 -1.59733e-15 0)
(3 -1.70072e-15 0)
(3 -1.87205e-15 0)
(3 -1.93582e-15 0)
(3 -6.53964e-16 0)
(3 -2.5945e-16 0)
(3 -5.75427e-16 0)
(3 -1.06869e-15 0)
(3 -1.23152e-15 0)
(3 -1.98039e-15 0)
(3 -2.48751e-15 0)
(3 -2.28848e-15 0)
(3 -2.10953e-15 0)
(3 -2.0891e-15 0)
(3 -2.241e-15 0)
(3 -2.44901e-15 0)
(3 -2.88877e-15 0)
(3 2.88509e-07 0)
(1.84446 0.272287 0)
(0.766476 0.277803 0)
(0.659631 0.306761 0)
(0.635267 0.312672 0)
(0.622307 0.301923 0)
(0.622591 0.287682 0)
(0.621246 0.279776 0)
(0.614118 0.28249 0)
(0.595598 0.293422 0)
(0.563869 0.309102 0)
(0.527405 0.31624 0)
(0.503043 0.315962 0)
(0.490408 0.314337 0)
(0.480465 0.31453 0)
(0.475675 0.318917 0)
(0.465367 0.32276 0)
(0.450449 0.325286 0)
(0.430277 0.33004 0)
(0.406661 0.33191 0)
(0.382613 0.335009 0)
(0.355724 0.340086 0)
(0.328629 0.345977 0)
(0.303439 0.35281 0)
(0.283079 0.357209 0)
(0.269137 0.360936 0)
(0.258456 0.363651 0)
(0.245222 0.365061 0)
(0.225695 0.369861 0)
(0.200151 0.378079 0)
(0.172463 0.388497 0)
(0.146711 0.397499 0)
(0.122257 0.404437 0)
(0.0961576 0.40728 0)
(0.0676277 0.406859 0)
(0.0386849 0.405323 0)
(0.0148481 0.409318 0)
(3 7.19547e-17 0)
(3 -3.06902e-17 0)
(3 -1.4257e-16 0)
(3 -3.67353e-16 0)
(3 -3.89244e-16 0)
(3 -2.62074e-16 0)
(3 -4.09469e-16 0)
(3 -7.63698e-16 0)
(3 -4.86078e-16 0)
(3 -4.16793e-16 0)
(3 -6.79607e-17 0)
(3 -2.32439e-16 0)
(3 -2.19138e-16 0)
(3 -3.25299e-16 0)
(3 -7.39258e-16 0)
(3 -1.24083e-15 0)
(3 -1.08717e-15 0)
(3 -4.8632e-16 0)
(3 6.56003e-17 0)
(3 -1.05811e-16 0)
(3 5.34697e-17 0)
(3 1.84111e-16 0)
(3 3.26166e-16 0)
(3 8.10112e-16 0)
(3 5.0218e-16 0)
(3 -3.65334e-16 0)
(3 -1.01188e-15 0)
(3 -6.20451e-16 0)
(3 -3.99155e-16 0)
(3 -3.99958e-16 0)
(3 -6.00968e-16 0)
(3 -1.04591e-15 0)
(3 -1.40403e-15 0)
(3 -1.36604e-15 0)
(3 -1.43162e-15 0)
(3 -2.15006e-15 0)
(3 -2.28152e-15 0)
(3 -2.34209e-15 0)
(3 -2.82013e-15 0)
(3 -1.4637e-15 0)
(3 -3.80232e-16 0)
(3 -3.60226e-16 0)
(3 -6.39705e-16 0)
(3 -1.01483e-15 0)
(3 -2.24167e-15 0)
(3 -2.1606e-15 0)
(3 -1.90157e-15 0)
(3 -1.15723e-15 0)
(3 -8.67904e-16 0)
(3 -1.61742e-15 0)
(3 -2.99505e-15 0)
(3 -3.50826e-15 0)
(3 -3.18949e-15 0)
(3 -2.59336e-15 0)
(3 -2.4149e-15 0)
(3 -2.20781e-15 0)
(3 -2.23283e-15 0)
(3 -2.30681e-15 0)
(3 -2.10036e-15 0)
(3 1.95242e-10 0)
(2.59152 0.216678 0)
(0.90552 0.349575 0)
(0.69899 0.34006 0)
(0.673685 0.324796 0)
(0.653587 0.325322 0)
(0.643061 0.321411 0)
(0.634529 0.320342 0)
(0.627271 0.32885 0)
(0.609674 0.339246 0)
(0.586191 0.346235 0)
(0.552133 0.348203 0)
(0.52546 0.346306 0)
(0.510792 0.349802 0)
(0.499856 0.354583 0)
(0.493171 0.359946 0)
(0.483891 0.365023 0)
(0.468226 0.366771 0)
(0.449564 0.370466 0)
(0.425828 0.373147 0)
(0.402031 0.376448 0)
(0.378054 0.382623 0)
(0.351716 0.389559 0)
(0.325457 0.397922 0)
(0.300923 0.406287 0)
(0.281062 0.41236 0)
(0.266613 0.417344 0)
(0.253844 0.420155 0)
(0.238845 0.426496 0)
(0.219246 0.436844 0)
(0.195117 0.449168 0)
(0.167943 0.461468 0)
(0.137962 0.470299 0)
(0.104974 0.474167 0)
(0.0708339 0.474545 0)
(0.0376886 0.472458 0)
(0.0143111 0.477883 0)
(3 -1.23145e-16 0)
(3 -1.71712e-16 0)
(3 -5.18641e-16 0)
(3 -9.10253e-16 0)
(3 -1.24963e-15 0)
(3 -1.05874e-15 0)
(3 -7.97174e-16 0)
(3 -6.98363e-16 0)
(3 -8.38918e-16 0)
(3 -1.18772e-15 0)
(3 -8.85479e-16 0)
(3 -9.50115e-17 0)
(3 3.42762e-16 0)
(3 5.08627e-16 0)
(3 6.20356e-16 0)
(3 -2.18325e-16 0)
(3 -3.66024e-16 0)
(3 -3.50533e-16 0)
(3 -2.57304e-16 0)
(3 1.99874e-16 0)
(3 2.8161e-16 0)
(3 3.08762e-16 0)
(3 1.91114e-16 0)
(3 1.05039e-16 0)
(3 8.55564e-17 0)
(3 -6.92901e-17 0)
(3 1.11275e-16 0)
(3 6.00984e-17 0)
(3 2.02614e-16 0)
(3 -2.78208e-16 0)
(3 -2.32455e-16 0)
(3 -4.54783e-16 0)
(3 -4.10898e-16 0)
(3 -1.88594e-16 0)
(3 -2.88383e-16 0)
(3 -7.67759e-16 0)
(3 -8.88204e-16 0)
(3 -4.43004e-16 0)
(3 3.30687e-16 0)
(3 1.30671e-16 0)
(3 -5.91857e-18 0)
(3 1.23721e-16 0)
(3 -2.69015e-16 0)
(3 -7.84806e-16 0)
(3 -1.24786e-15 0)
(3 -1.84177e-15 0)
(3 -2.05362e-15 0)
(3 -1.71027e-15 0)
(3 -6.66254e-16 0)
(3 -4.81257e-16 0)
(3 -6.8026e-16 0)
(3 -8.89062e-16 0)
(3 -8.55547e-16 0)
(3 -5.71305e-16 0)
(3 -3.98309e-16 0)
(3 -7.90009e-16 0)
(3 -7.71371e-16 0)
(3 -6.78693e-16 0)
(3 -6.12447e-16 0)
(3 2.07061e-13 0)
(3.02096 0.0122929 0)
(1.24802 0.396257 0)
(0.748264 0.365434 0)
(0.700944 0.358897 0)
(0.671812 0.367797 0)
(0.653912 0.372953 0)
(0.643645 0.377565 0)
(0.637515 0.379829 0)
(0.629414 0.378229 0)
(0.61596 0.37376 0)
(0.587732 0.375226 0)
(0.558434 0.379142 0)
(0.538165 0.389467 0)
(0.524319 0.400522 0)
(0.512808 0.404652 0)
(0.504964 0.407373 0)
(0.490653 0.410557 0)
(0.472517 0.412502 0)
(0.449997 0.416776 0)
(0.426701 0.422015 0)
(0.405004 0.42973 0)
(0.380355 0.438018 0)
(0.354846 0.446683 0)
(0.328436 0.457768 0)
(0.304269 0.466895 0)
(0.286313 0.475226 0)
(0.273383 0.482081 0)
(0.261949 0.489341 0)
(0.248867 0.500499 0)
(0.229967 0.514968 0)
(0.202648 0.529365 0)
(0.16724 0.541785 0)
(0.126456 0.550697 0)
(0.0846513 0.55545 0)
(0.0439115 0.554529 0)
(0.0156369 0.561985 0)
(3 -5.22382e-17 0)
(3 -6.98881e-17 0)
(3 -4.26096e-16 0)
(3 -6.17078e-16 0)
(3 -1.01552e-15 0)
(3 -1.00741e-15 0)
(3 -7.89358e-16 0)
(3 -2.31578e-16 0)
(3 -8.76829e-18 0)
(3 2.28164e-16 0)
(3 4.10219e-16 0)
(3 5.23165e-16 0)
(3 7.59149e-16 0)
(3 6.16717e-16 0)
(3 3.88426e-16 0)
(3 4.55911e-16 0)
(3 2.87366e-16 0)
(3 3.32661e-16 0)
(3 3.20699e-16 0)
(3 2.00214e-16 0)
(3 1.60858e-16 0)
(3 5.4777e-16 0)
(3 6.6861e-16 0)
(3 5.29437e-16 0)
(3 3.96528e-16 0)
(3 1.83588e-16 0)
(3 -2.19699e-16 0)
(3 -9.74684e-16 0)
(3 -1.54503e-15 0)
(3 -1.1056e-15 0)
(3 -6.15033e-16 0)
(3 -1.18997e-17 0)
(3 8.84873e-16 0)
(3 1.35462e-15 0)
(3 1.90783e-15 0)
(3 2.10525e-15 0)
(3 2.03692e-15 0)
(3 2.29424e-15 0)
(3 2.63844e-15 0)
(3 2.42958e-15 0)
(3 2.09614e-15 0)
(3 1.7529e-15 0)
(3 7.0688e-16 0)
(3 4.75035e-16 0)
(3 -4.02099e-16 0)
(3 -1.23705e-15 0)
(3 -1.70088e-15 0)
(3 -1.7423e-15 0)
(3 -1.00903e-15 0)
(3 1.703e-17 0)
(3 1.04302e-15 0)
(3 1.43798e-15 0)
(3 1.51596e-15 0)
(3 1.21162e-15 0)
(3 1.01695e-15 0)
(3 4.31237e-16 0)
(3 -2.92112e-17 0)
(3 9.74617e-17 0)
(3 7.39882e-16 0)
(3 1.99167e-15 0)
(3.00022 3.04051e-05 0)
(2.08351 0.369651 0)
(0.825528 0.418483 0)
(0.72325 0.406509 0)
(0.702162 0.397833 0)
(0.684095 0.405197 0)
(0.671132 0.413854 0)
(0.662702 0.416376 0)
(0.655327 0.415684 0)
(0.644903 0.412923 0)
(0.621336 0.416668 0)
(0.593243 0.425343 0)
(0.569065 0.436194 0)
(0.552949 0.446709 0)
(0.538618 0.448301 0)
(0.531194 0.447756 0)
(0.519299 0.452934 0)
(0.500905 0.457559 0)
(0.48212 0.463331 0)
(0.459225 0.471838 0)
(0.437839 0.481454 0)
(0.415811 0.490978 0)
(0.391248 0.499746 0)
(0.365935 0.512159 0)
(0.340181 0.524759 0)
(0.318242 0.537526 0)
(0.301405 0.549629 0)
(0.288477 0.560878 0)
(0.276561 0.575459 0)
(0.259099 0.594146 0)
(0.230035 0.614717 0)
(0.189703 0.635196 0)
(0.144443 0.652326 0)
(0.0999697 0.662282 0)
(0.055895 0.662946 0)
(0.0169307 0.67195 0)
(3 2.26152e-17 0)
(3 4.19017e-17 0)
(3 8.03445e-17 0)
(3 1.15909e-16 0)
(3 1.92391e-16 0)
(3 -7.73383e-17 0)
(3 -3.42801e-16 0)
(3 -5.39962e-17 0)
(3 4.18379e-16 0)
(3 8.79017e-16 0)
(3 7.08029e-16 0)
(3 2.84973e-16 0)
(3 -2.88395e-17 0)
(3 3.14083e-17 0)
(3 5.61442e-17 0)
(3 1.97323e-16 0)
(3 3.25436e-16 0)
(3 5.60074e-16 0)
(3 6.69086e-16 0)
(3 5.136e-16 0)
(3 1.75954e-16 0)
(3 3.55463e-16 0)
(3 9.06977e-16 0)
(3 7.39942e-16 0)
(3 5.10089e-16 0)
(3 4.21732e-17 0)
(3 -3.17454e-16 0)
(3 -5.01255e-16 0)
(3 -6.20327e-16 0)
(3 -1.91365e-16 0)
(3 2.29161e-16 0)
(3 1.97734e-15 0)
(3 2.31541e-15 0)
(3 2.06307e-15 0)
(3 2.55359e-15 0)
(3 2.89255e-15 0)
(3 3.29719e-15 0)
(3 3.34539e-15 0)
(3 3.35327e-15 0)
(3 3.11237e-15 0)
(3 2.71964e-15 0)
(3 2.78381e-15 0)
(3 2.47395e-15 0)
(3 2.03451e-15 0)
(3 1.6345e-15 0)
(3 3.11385e-16 0)
(3 -1.6741e-16 0)
(3 -6.50454e-16 0)
(3 -1.2605e-15 0)
(3 1.92861e-16 0)
(3 1.26861e-15 0)
(3 2.00954e-15 0)
(3 2.40186e-15 0)
(3 1.9807e-15 0)
(3 9.40255e-16 0)
(3 1.01128e-15 0)
(3 7.66159e-16 0)
(3 9.53355e-16 0)
(3 1.43902e-15 0)
(3 1.05696e-15 0)
(3 7.4737e-08 0)
(3.02108 0.0353846 0)
(1.22189 0.470049 0)
(0.782531 0.430751 0)
(0.743993 0.421985 0)
(0.716074 0.442574 0)
(0.687097 0.457922 0)
(0.671583 0.465054 0)
(0.666233 0.463736 0)
(0.664174 0.460657 0)
(0.652747 0.461721 0)
(0.632568 0.468125 0)
(0.607767 0.475873 0)
(0.588624 0.484433 0)
(0.571865 0.489704 0)
(0.55949 0.492347 0)
(0.548848 0.499864 0)
(0.535266 0.508745 0)
(0.51919 0.513851 0)
(0.501863 0.522676 0)
(0.481417 0.534287 0)
(0.46057 0.546581 0)
(0.43601 0.558244 0)
(0.413652 0.572395 0)
(0.390393 0.588935 0)
(0.367237 0.606208 0)
(0.347444 0.624481 0)
(0.332874 0.64187 0)
(0.322737 0.660939 0)
(0.310405 0.684255 0)
(0.287417 0.709663 0)
(0.252297 0.734493 0)
(0.211172 0.756336 0)
(0.165108 0.781813 0)
(0.105377 0.803805 0)
(0.0390904 0.831997 0)
(3 -7.86337e-17 0)
(3 -2.16516e-16 0)
(3 -9.96383e-17 0)
(3 -1.60156e-17 0)
(3 2.27126e-16 0)
(3 2.25773e-16 0)
(3 1.94132e-16 0)
(3 -7.43533e-17 0)
(3 -1.61958e-16 0)
(3 -4.15634e-16 0)
(3 -6.96667e-16 0)
(3 -6.82585e-16 0)
(3 -6.33349e-16 0)
(3 -6.763e-16 0)
(3 -8.37061e-16 0)
(3 -1.06051e-15 0)
(3 -1.02825e-15 0)
(3 -1.00872e-15 0)
(3 -1.06408e-15 0)
(3 1.9331e-17 0)
(3 8.40081e-16 0)
(3 7.59361e-16 0)
(3 6.26047e-16 0)
(3 -2.92247e-16 0)
(3 -2.48758e-16 0)
(3 4.65096e-16 0)
(3 6.77113e-16 0)
(3 1.23053e-15 0)
(3 1.68242e-15 0)
(3 1.51923e-15 0)
(3 1.38216e-15 0)
(3 1.09137e-15 0)
(3 1.09138e-15 0)
(3 1.27945e-15 0)