/*--------------------------------*- C++ -*----------------------------------*\
  =========                 |
  \\      /  F ield         | OpenFOAM: The Open Source CFD Toolbox
   \\    /   O peration     | Website:  https://openfoam.org
    \\  /    A nd           | Version:  7
     \\/     M anipulation  |
\*---------------------------------------------------------------------------*/
FoamFile
{
    version     2.0;
    format      ascii;
    class       volScalarField;
    location    "0.18";
    object      T;
}
// * * * * * * * * * * * * * * * * * * * * * * * * * * * * * * * * * * * * * //

dimensions      [0 0 0 1 0 0 0];

internalField   nonuniform List<scalar> 
1000
(
2.49931e-223
4.6093e-223
1.29386e-222
4.12666e-222
1.3523e-221
4.45446e-221
1.46866e-220
4.8428e-220
1.59682e-219
5.26487e-219
1.73576e-218
5.72214e-218
1.88624e-217
6.21731e-217
2.04916e-216
6.75334e-216
2.22551e-215
7.33342e-215
2.4163e-214
7.96094e-214
2.62267e-213
8.63956e-213
2.84581e-212
9.37317e-212
3.08698e-211
1.0166e-210
3.34757e-210
1.10224e-209
3.62902e-209
1.19473e-208
3.93291e-208
1.29457e-207
4.26089e-207
1.4023e-206
4.61476e-206
1.51852e-205
4.99641e-205
1.64384e-204
5.40787e-204
1.77892e-203
5.85129e-203
1.92447e-202
6.32899e-202
2.08124e-201
6.84341e-201
2.25002e-200
7.39715e-200
2.43167e-199
7.99299e-199
2.6271e-198
8.63386e-198
2.83725e-197
9.32291e-197
3.06315e-196
1.00634e-195
3.30587e-195
1.0859e-194
3.56658e-194
1.17132e-193
3.84646e-193
1.26301e-192
4.14682e-192
1.36139e-191
4.46901e-191
1.4669e-190
4.81447e-190
1.58e-189
5.18471e-189
1.70119e-188
5.58134e-188
1.83098e-187
6.00605e-187
1.96993e-186
6.46061e-186
2.11862e-185
6.9469e-185
2.27765e-184
7.46689e-184
2.44766e-183
8.02267e-183
2.62932e-182
8.61639e-182
2.82335e-181
9.25036e-181
3.03047e-180
9.92697e-180
3.25147e-179
1.06487e-178
3.48715e-178
1.14182e-177
3.73837e-177
1.22383e-176
4.00602e-176
1.31117e-175
4.29101e-175
1.40415e-174
4.59432e-174
1.50308e-173
4.91696e-173
1.60828e-172
5.25995e-172
1.7201e-171
5.6244e-171
1.83887e-170
6.01143e-170
1.96497e-169
6.42221e-169
2.09876e-168
6.85794e-168
2.24065e-167
7.31988e-167
2.39102e-166
7.80932e-166
2.5503e-165
8.32758e-165
2.71891e-164
8.87604e-164
2.89729e-163
9.45609e-163
3.08588e-162
1.00692e-161
3.28515e-161
1.07168e-160
3.49557e-160
1.14004e-159
3.71763e-159
1.21215e-158
3.9518e-158
1.28818e-157
4.19858e-157
1.36828e-156
4.45849e-156
1.4526e-155
4.73203e-155
1.54132e-154
5.01972e-154
1.63459e-153
5.32206e-153
1.73258e-152
5.63959e-152
1.83545e-151
5.97281e-151
1.94337e-150
6.32224e-150
2.05649e-149
6.68839e-149
2.17498e-148
7.07177e-148
2.299e-147
7.47287e-147
2.4287e-146
7.89217e-146
2.56422e-145
8.33013e-145
2.70573e-144
8.78721e-144
2.85334e-143
9.26384e-143
3.00721e-142
9.76043e-142
3.16744e-141
1.02773e-140
3.33416e-140
1.08149e-139
3.50746e-139
1.13735e-138
3.68745e-138
1.19533e-137
3.8742e-137
1.25546e-136
4.06777e-136
1.31776e-135
4.26822e-135
1.38224e-134
4.47557e-134
1.44891e-133
4.68985e-133
1.51776e-132
4.91104e-132
1.5888e-131
5.13912e-131
1.66201e-130
5.37404e-130
1.73737e-129
5.61572e-129
1.81485e-128
5.86406e-128
1.89442e-127
6.11894e-127
1.97604e-126
6.38019e-126
2.05964e-125
6.64764e-125
2.14517e-124
6.92105e-124
2.23254e-123
7.20019e-123
2.32169e-122
7.48477e-122
2.4125e-121
7.77446e-121
2.50487e-120
8.0689e-120
2.59869e-119
8.36771e-119
2.69382e-118
8.67045e-118
2.79013e-117
8.97666e-117
2.88744e-116
9.28581e-116
2.98561e-115
9.59737e-115
3.08445e-114
9.91075e-114
3.18376e-113
1.02253e-112
3.28334e-112
1.05404e-111
3.38298e-111
1.08553e-110
3.48244e-110
1.11693e-109
3.58149e-109
1.14816e-108
3.67988e-108
1.17913e-107
3.77734e-107
1.20977e-106
3.8736e-106
1.23999e-105
3.96838e-105
1.26969e-104
4.06139e-104
1.29879e-103
4.15233e-103
1.32719e-102
4.2409e-102
1.35478e-101
4.32678e-101
1.38148e-100
4.40968e-100
1.40718e-99
4.48926e-99
1.43179e-98
4.56521e-98
1.45519e-97
4.63721e-97
1.4773e-96
4.70496e-96
1.49801e-95
4.76812e-95
1.51723e-94
4.82641e-94
1.53485e-93
4.87951e-93
1.55079e-92
4.92715e-92
1.56496e-91
4.96903e-91
1.57726e-90
5.00489e-90
1.58762e-89
5.03449e-89
1.59596e-88
5.05759e-88
1.60221e-87
5.07398e-87
1.60631e-86
5.08345e-86
1.60819e-85
5.08585e-85
1.60781e-84
5.08103e-84
1.60513e-83
5.06887e-83
1.60011e-82
5.04928e-82
1.59274e-81
5.02221e-81
1.58299e-80
4.98762e-80
1.57086e-79
4.94553e-79
1.55637e-78
4.89597e-78
1.53953e-77
4.83901e-77
1.52036e-76
4.77478e-76
1.49891e-75
4.70341e-75
1.47523e-74
4.62508e-74
1.44939e-73
4.54001e-73
1.42145e-72
4.44846e-72
1.39151e-71
4.35071e-71
1.35966e-70
4.24709e-70
1.326e-69
4.13793e-69
1.29065e-68
4.02363e-68
1.25374e-67
3.9046e-67
1.2154e-66
3.78127e-66
1.17578e-65
3.6541e-65
1.13501e-64
3.52358e-64
1.09327e-63
3.3902e-63
1.0507e-62
3.25446e-62
1.00746e-61
3.11691e-61
9.6374e-61
2.97806e-60
9.1969e-60
2.83845e-59
8.75484e-59
2.69861e-58
8.31289e-58
2.55906e-57
7.8727e-57
2.42034e-56
7.4359e-56
2.28293e-55
7.00407e-55
2.14734e-54
6.57872e-54
2.01403e-53
6.1613e-53
1.88345e-52
5.75318e-52
1.75601e-51
5.35563e-51
1.63211e-50
4.96984e-50
1.5121e-49
4.59687e-49
1.3963e-48
4.23768e-48
1.285e-47
3.89309e-47
1.17843e-46
3.56383e-46
1.0768e-45
3.25046e-45
9.8027e-45
2.95344e-44
8.88969e-44
2.67309e-43
8.02973e-43
2.40959e-42
7.22321e-42
2.163e-41
6.47014e-41
1.93328e-40
5.77016e-40
1.72023e-39
5.12252e-39
1.52359e-38
4.52616e-38
1.34295e-37
3.9797e-37
1.17785e-36
3.48149e-36
1.02771e-35
3.02963e-35
8.91898e-35
2.62201e-34
7.69721e-34
2.25632e-33
6.60426e-33
1.93014e-32
5.63226e-32
1.64093e-31
4.77307e-31
1.38608e-30
4.01835e-30
1.16295e-29
3.35975e-29
9.68883e-29
2.78892e-28
8.01274e-28
2.29767e-27
6.57561e-27
1.87804e-26
5.35269e-26
1.52236e-25
4.32028e-25
1.22331e-24
3.45593e-24
9.74021e-24
2.73855e-23
7.68058e-23
2.14861e-22
5.99485e-22
1.66812e-21
4.62877e-21
1.28074e-20
3.53326e-20
9.71784e-20
2.66442e-19
7.28163e-19
1.98338e-18
5.38374e-18
1.45618e-17
3.92413e-17
1.05345e-16
2.8169e-16
7.50152e-16
1.98922e-15
5.25175e-15
1.38019e-14
3.60999e-14
9.39561e-14
2.4328e-13
6.2655e-13
1.60462e-12
4.08554e-12
1.03388e-11
2.59962e-11
6.49292e-11
1.61033e-10
3.96442e-10
9.68438e-10
2.34644e-09
5.63636e-09
1.34162e-08
3.16279e-08
7.38027e-08
1.70358e-07
3.88724e-07
8.76156e-07
1.94905e-06
4.27535e-06
9.2383e-06
1.96428e-05
4.10468e-05
8.41858e-05
0.000169218
0.000332816
0.000639388
0.00119763
0.00218293
0.00386422
0.00663084
0.011011
0.0176712
0.0273871
0.0409819
0.0592395
0.0828051
0.112093
0.14722
0.187969
0.233804
0.283902
0.337231
0.392626
0.448881
0.504824
0.559389
0.61166
0.660899
0.706565
0.748303
0.785934
0.819431
0.848892
0.874512
0.896555
0.915331
0.931173
0.94442
0.955402
0.964433
0.971802
0.977772
0.982574
0.98641
0.989456
0.99186
0.993746
0.995216
0.996358
0.997239
0.997915
0.998432
0.998826
0.999124
0.999349
0.999517
0.999644
0.999738
0.999808
0.999859
0.999898
0.999926
0.999946
0.999961
0.999972
0.99998
0.999986
0.99999
0.999993
0.999995
0.999996
0.999997
0.999998
0.999999
0.999999
0.999999
1
1
1
1
1
1
1
1
1
1
1
1
1
1
1
1
1
1
1
1
0.999999
0.999998
0.999996
0.999991
0.99998
0.999959
0.999916
0.999831
0.999667
0.999361
0.998802
0.997817
0.996136
0.993369
0.988989
0.982329
0.972613
0.959018
0.94076
0.917195
0.887907
0.85278
0.812031
0.766196
0.716098
0.662769
0.607374
0.551119
0.495176
0.440611
0.38834
0.339101
0.293435
0.251697
0.214066
0.180569
0.151108
0.125488
0.103445
0.0846688
0.0688267
0.0555802
0.0445982
0.0355672
0.0281978
0.0222282
0.0174264
0.0135896
0.0105435
0.00813992
0.00625437
0.00478351
0.00364229
0.00276143
0.00208489
0.00156776
0.00117431
0.000876281
0.000651495
0.000482654
0.000356339
0.000262203
0.00019231
0.000140603
0.000102485
7.44781e-05
5.39685e-05
3.89967e-05
2.81012e-05
2.01959e-05
1.44768e-05
1.0351e-05
7.38283e-06
5.25312e-06
3.72901e-06
2.64105e-06
1.86634e-06
1.31601e-06
9.25984e-07
6.50199e-07
4.55626e-07
3.18646e-07
2.22417e-07
1.54955e-07
1.07755e-07
7.47969e-08
5.18274e-08
3.58494e-08
2.47552e-08
1.70659e-08
1.17459e-08
8.07138e-09
5.53773e-09
3.79359e-09
2.59488e-09
1.77233e-09
1.20877e-09
8.23249e-10
5.59905e-10
3.80282e-10
2.57938e-10
1.74725e-10
1.18205e-10
7.98672e-11
5.38965e-11
3.63264e-11
2.44547e-11
1.64434e-11
1.10438e-11
7.40888e-12
4.96477e-12
3.32329e-12
2.22212e-12
1.48425e-12
9.90353e-13
6.60126e-13
4.39566e-13
2.92407e-13
1.94324e-13
1.29017e-13
8.55763e-14
5.67093e-14
3.75453e-14
2.48349e-14
1.64127e-14
1.08372e-14
7.14954e-15
4.71268e-15
3.10378e-15
2.04247e-15
1.34296e-15
8.82313e-16
5.79211e-16
3.79936e-16
2.49028e-16
1.63101e-16
1.06743e-16
6.98069e-17
4.56185e-17
2.979e-17
1.94398e-17
1.26767e-17
8.26081e-18
5.37949e-18
3.50079e-18
2.27669e-18
1.47963e-18
9.61001e-19
6.23757e-19
4.04605e-19
2.62287e-19
1.69924e-19
1.10019e-19
7.119e-20
4.60376e-20
2.97544e-20
1.92193e-20
1.24073e-20
8.00511e-21
5.16198e-21
3.32678e-21
2.14287e-21
1.37953e-21
8.8764e-22
5.70837e-22
3.66911e-22
2.35714e-22
1.51352e-22
9.71343e-23
6.23075e-23
3.99478e-23
2.55997e-23
1.63971e-23
1.04976e-23
6.71753e-24
4.29661e-24
2.7469e-24
1.75533e-24
1.12119e-24
7.15825e-25
4.56816e-25
2.91397e-25
1.85798e-25
1.18416e-25
7.54386e-26
4.80392e-26
3.05785e-26
1.94562e-26
1.23744e-26
7.86708e-27
4.99953e-27
3.17595e-27
2.01673e-27
1.28013e-27
8.12252e-28
5.15185e-28
3.26643e-28
2.07024e-28
1.31161e-28
8.30679e-29
5.259e-29
3.32825e-29
2.1056e-29
1.33162e-29
8.4185e-30
5.32033e-30
3.36119e-30
2.12275e-30
1.34017e-30
8.45815e-31
5.33638e-31
3.36571e-31
2.12209e-31
1.33756e-31
8.42796e-32
5.30878e-32
3.34296e-32
2.10442e-32
1.32434e-32
8.33169e-33
5.24005e-33
3.29464e-33
2.07086e-33
1.30127e-33
8.17435e-34
5.13352e-34
3.22293e-34
2.02285e-34
1.26927e-34
7.96198e-35
4.99307e-35
3.13036e-35
1.96202e-35
1.2294e-35
7.70132e-36
4.82305e-36
3.0197e-36
1.89013e-36
1.18278e-36
7.39957e-37
4.62803e-37
2.89385e-37
1.80903e-37
1.13059e-37
7.06412e-38
4.41269e-38
2.75577e-38
1.72058e-38
1.074e-38
6.70237e-39
4.18167e-39
2.60836e-39
1.62662e-39
1.01415e-39
6.32146e-40
3.93944e-40
2.45444e-40
1.52887e-40
9.52127e-41
5.92818e-41
3.69021e-41
2.29661e-41
1.42899e-41
8.88946e-42
5.52878e-42
3.43788e-42
2.13728e-42
1.32844e-42
8.25523e-43
5.12894e-43
3.18594e-43
1.9786e-43
1.22855e-43
7.62672e-44
4.73366e-44
2.93745e-44
1.82246e-44
1.13047e-44
7.01099e-45
4.34724e-45
2.69504e-45
1.67045e-45
1.03519e-45
6.41397e-46
3.9733e-46
2.46091e-46
1.52391e-46
9.43504e-47
5.84049e-47
3.61474e-47
2.2368e-47
1.38388e-47
8.56042e-48
5.29437e-48
3.27384e-48
2.02407e-48
1.25118e-48
7.73284e-49
4.77842e-49
2.95227e-49
1.82371e-49
1.12637e-49
6.95563e-50
4.29457e-50
2.65113e-50
1.63634e-50
1.00982e-50
6.23081e-51
3.84394e-51
2.37104e-51
1.46229e-51
9.01696e-52
5.55929e-52
3.42697e-52
2.1122e-52
1.30165e-52
8.02021e-53
4.94097e-53
3.0435e-53
1.87443e-53
1.15426e-53
7.10673e-54
4.37496e-54
2.69287e-54
1.65727e-54
1.01979e-54
6.27425e-55
3.8597e-55
2.37401e-55
1.46e-55
8.97759e-56
5.5196e-56
3.39309e-56
2.08556e-56
1.28171e-56
7.87591e-57
4.83895e-57
2.97265e-57
1.8259e-57
1.12138e-57
6.8861e-58
4.228e-58
2.59562e-58
1.59327e-58
9.77872e-59
6.00093e-59
3.68214e-59
2.25905e-59
1.38579e-59
8.49991e-60
5.21287e-60
3.19658e-60
1.95993e-60
1.20155e-60
7.36528e-61
4.51424e-61
2.76648e-61
1.69519e-61
1.03862e-61
6.36273e-62
3.89743e-62
2.38706e-62
1.46183e-62
8.95115e-63
5.48038e-63
3.35501e-63
2.05365e-63
1.25692e-63
7.69205e-64
4.70681e-64
2.8798e-64
1.76177e-64
1.07768e-64
6.59142e-65
4.03108e-65
2.465e-65
1.50718e-65
9.21438e-66
5.63275e-66
3.44293e-66
2.10421e-66
1.28589e-66
7.85729e-67
4.80061e-67
2.93275e-67
1.79146e-67
1.0942e-67
6.68249e-68
4.08072e-68
2.49167e-68
1.52125e-68
9.28682e-69
5.66878e-69
3.45994e-69
2.11156e-69
1.28854e-69
7.86225e-70
4.79683e-70
2.9263e-70
1.78501e-70
1.08874e-70
6.63989e-71
4.0491e-71
2.46896e-71
1.50532e-71
9.17703e-72
5.59416e-72
3.40978e-72
2.07816e-72
1.26646e-72
7.71723e-73
4.70211e-73
2.86474e-73
1.74517e-73
1.06304e-73
6.47476e-74
3.94329e-74
2.40134e-74
1.46222e-74
8.90289e-75
5.42015e-75
3.29955e-75
2.00844e-75
1.22244e-75
7.43971e-76
4.52739e-76
2.75488e-76
1.67618e-76
1.01977e-76
6.20363e-77
3.77358e-77
2.29522e-77
1.39592e-77
8.48906e-78
5.16205e-78
3.1387e-78
1.90828e-78
1.16011e-78
7.05211e-79
4.28652e-79
2.60529e-79
1.58333e-79
9.62175e-80
5.84657e-80
3.55233e-80
2.1582e-80
1.3111e-80
7.96429e-81
4.83753e-81
2.9381e-81
1.78434e-81
1.08356e-81
6.57954e-82
3.9949e-82
2.42541e-82
1.47245e-82
8.93952e-83
5.43042e-83
3.31017e-83
2.05654e-83
1.40742e-83
)
;

boundaryField
{
    sides
    {
        type            zeroGradient;
    }
    empty
    {
        type            empty;
    }
}


// ************************************************************************* //
