-4.995 	348.432 	7.5854e-13 	100000
-4.994 	348.432 	7.87793e-13 	100000
-4.993 	348.432 	7.87556e-13 	100000
-4.992 	348.432 	9.25781e-13 	100000
-4.991 	348.432 	1.09352e-12 	100000
-4.99 	348.432 	1.36214e-12 	100000
-4.98901 	348.432 	1.43819e-12 	100000
-4.98801 	348.432 	1.50011e-12 	100000
-4.98701 	348.432 	1.67775e-12 	100000
-4.98601 	348.432 	1.64142e-12 	100000
-4.98501 	348.432 	1.655e-12 	100000
-4.98401 	348.432 	1.74217e-12 	100000
-4.98301 	348.432 	1.59443e-12 	100000
-4.98201 	348.432 	1.54249e-12 	100000
-4.98101 	348.432 	1.59296e-12 	100000
-4.98001 	348.432 	1.65783e-12 	100000
-4.97901 	348.432 	1.80301e-12 	100000
-4.97802 	348.432 	1.66563e-12 	100000
-4.97702 	348.432 	1.7448e-12 	100000
-4.97602 	348.432 	1.89734e-12 	100000
-4.97502 	348.432 	1.76874e-12 	100000
-4.97402 	348.432 	1.74015e-12 	100000
-4.97302 	348.432 	1.73235e-12 	100000
-4.97202 	348.432 	1.67573e-12 	100000
-4.97102 	348.432 	1.73526e-12 	100000
-4.97002 	348.432 	1.87586e-12 	100000
-4.96902 	348.432 	1.93658e-12 	100000
-4.96802 	348.432 	1.94974e-12 	100000
-4.96703 	348.432 	2.11222e-12 	100000
-4.96603 	348.432 	2.19425e-12 	100000
-4.96503 	348.432 	2.32077e-12 	100000
-4.96403 	348.432 	2.39476e-12 	100000
-4.96303 	348.432 	2.40354e-12 	100000
-4.96203 	348.432 	2.24572e-12 	100000
-4.96103 	348.432 	2.19018e-12 	100000
-4.96003 	348.432 	2.18137e-12 	100000
-4.95903 	348.432 	2.06194e-12 	100000
-4.95803 	348.432 	2.2445e-12 	100000
-4.95703 	348.432 	2.20767e-12 	100000
-4.95604 	348.432 	2.1094e-12 	100000
-4.95504 	348.432 	2.11305e-12 	100000
-4.95404 	348.432 	2.06327e-12 	100000
-4.95304 	348.432 	1.98277e-12 	100000
-4.95204 	348.432 	1.99846e-12 	100000
-4.95104 	348.432 	1.9313e-12 	100000
-4.95004 	348.432 	1.75875e-12 	100000
-4.94904 	348.432 	1.59485e-12 	100000
-4.94804 	348.432 	1.49161e-12 	100000
-4.94704 	348.432 	1.34419e-12 	100000
-4.94604 	348.432 	1.25193e-12 	100000
-4.94505 	348.432 	1.24386e-12 	100000
-4.94405 	348.432 	1.11005e-12 	100000
-4.94305 	348.432 	8.54471e-13 	100000
-4.94205 	348.432 	6.51223e-13 	100000
-4.94105 	348.432 	5.61408e-13 	100000
-4.94005 	348.432 	4.28809e-13 	100000
-4.93905 	348.432 	3.18774e-13 	100000
-4.93805 	348.432 	1.97119e-13 	100000
-4.93705 	348.432 	1.36294e-13 	100000
-4.93605 	348.432 	1.47422e-13 	100000
-4.93505 	348.432 	1.05262e-13 	100000
-4.93405 	348.432 	2.80704e-13 	100000
-4.93306 	348.432 	5.72128e-13 	100000
-4.93206 	348.432 	7.67862e-13 	100000
-4.93106 	348.432 	8.72415e-13 	100000
-4.93006 	348.432 	9.77508e-13 	100000
-4.92906 	348.432 	1.24165e-12 	100000
-4.92806 	348.432 	1.34078e-12 	100000
-4.92706 	348.432 	1.4367e-12 	100000
-4.92606 	348.432 	1.51174e-12 	100000
-4.92506 	348.432 	1.57739e-12 	100000
-4.92406 	348.432 	1.455e-12 	100000
-4.92306 	348.432 	1.54504e-12 	100000
-4.92207 	348.432 	1.58118e-12 	100000
-4.92107 	348.432 	1.69604e-12 	100000
-4.92007 	348.432 	1.91725e-12 	100000
-4.91907 	348.432 	1.76813e-12 	100000
-4.91807 	348.432 	1.48545e-12 	100000
-4.91707 	348.432 	1.44849e-12 	100000
-4.91607 	348.432 	1.25639e-12 	100000
-4.91507 	348.432 	1.02093e-12 	100000
-4.91407 	348.432 	8.90883e-13 	100000
-4.91307 	348.432 	5.74636e-13 	100000
-4.91207 	348.432 	4.33424e-13 	100000
-4.91108 	348.432 	1.96752e-13 	100000
-4.91008 	348.432 	2.84374e-13 	100000
-4.90908 	348.432 	2.12035e-13 	100000
-4.90808 	348.432 	3.85598e-13 	100000
-4.90708 	348.432 	4.92935e-13 	100000
-4.90608 	348.432 	5.86072e-13 	100000
-4.90508 	348.432 	7.5202e-13 	100000
-4.90408 	348.432 	8.18706e-13 	100000
-4.90308 	348.432 	1.00401e-12 	100000
-4.90208 	348.432 	1.03438e-12 	100000
-4.90108 	348.432 	1.14162e-12 	100000
-4.90009 	348.432 	1.1737e-12 	100000
-4.89909 	348.432 	1.22488e-12 	100000
-4.89809 	348.432 	1.03732e-12 	100000
-4.89709 	348.432 	9.59328e-13 	100000
-4.89609 	348.432 	8.31693e-13 	100000
-4.89509 	348.432 	6.31777e-13 	100000
-4.89409 	348.432 	4.40934e-13 	100000
-4.89309 	348.432 	2.95022e-13 	100000
-4.89209 	348.432 	3.09038e-13 	100000
-4.89109 	348.432 	2.20608e-13 	100000
-4.89009 	348.432 	9.89531e-14 	100000
-4.8891 	348.432 	7.88384e-14 	100000
-4.8881 	348.432 	1.9941e-13 	100000
-4.8871 	348.432 	4.52817e-13 	100000
-4.8861 	348.432 	6.59704e-13 	100000
-4.8851 	348.432 	7.73127e-13 	100000
-4.8841 	348.432 	7.20601e-13 	100000
-4.8831 	348.432 	7.35011e-13 	100000
-4.8821 	348.432 	8.17138e-13 	100000
-4.8811 	348.432 	8.45301e-13 	100000
-4.8801 	348.432 	1.06738e-12 	100000
-4.8791 	348.432 	1.11473e-12 	100000
-4.87811 	348.432 	1.114e-12 	100000
-4.87711 	348.432 	1.08656e-12 	100000
-4.87611 	348.432 	1.05446e-12 	100000
-4.87511 	348.432 	1.16185e-12 	100000
-4.87411 	348.432 	1.31971e-12 	100000
-4.87311 	348.432 	1.50607e-12 	100000
-4.87211 	348.432 	1.26096e-12 	100000
-4.87111 	348.432 	1.16868e-12 	100000
-4.87011 	348.432 	9.77717e-13 	100000
-4.86911 	348.432 	6.58989e-13 	100000
-4.86811 	348.432 	4.1407e-13 	100000
-4.86712 	348.432 	2.65867e-13 	100000
-4.86612 	348.432 	8.17861e-14 	100000
-4.86512 	348.432 	3.18131e-13 	100000
-4.86412 	348.432 	5.69732e-13 	100000
-4.86312 	348.432 	7.91975e-13 	100000
-4.86212 	348.432 	1.19102e-12 	100000
-4.86112 	348.432 	1.47181e-12 	100000
-4.86012 	348.432 	1.64958e-12 	100000
-4.85912 	348.432 	1.91123e-12 	100000
-4.85812 	348.432 	1.86298e-12 	100000
-4.85712 	348.432 	1.76162e-12 	100000
-4.85613 	348.432 	1.756e-12 	100000
-4.85513 	348.432 	1.5497e-12 	100000
-4.85413 	348.432 	1.59046e-12 	100000
-4.85313 	348.432 	1.43328e-12 	100000
-4.85213 	348.432 	1.38789e-12 	100000
-4.85113 	348.432 	1.32042e-12 	100000
-4.85013 	348.432 	1.1166e-12 	100000
-4.84913 	348.432 	8.79866e-13 	100000
-4.84813 	348.432 	7.53583e-13 	100000
-4.84713 	348.432 	4.04558e-13 	100000
-4.84613 	348.432 	2.94937e-13 	100000
-4.84514 	348.432 	6.22882e-14 	100000
-4.84414 	348.432 	1.28739e-13 	100000
-4.84314 	348.432 	1.81797e-13 	100000
-4.84214 	348.432 	1.46707e-13 	100000
-4.84114 	348.432 	2.58022e-13 	100000
-4.84014 	348.432 	2.38327e-13 	100000
-4.83914 	348.432 	5.83492e-13 	100000
-4.83814 	348.432 	6.88137e-13 	100000
-4.83714 	348.432 	7.70855e-13 	100000
-4.83614 	348.432 	7.76113e-13 	100000
-4.83514 	348.432 	9.88206e-13 	100000
-4.83414 	348.432 	7.33593e-13 	100000
-4.83315 	348.432 	7.71611e-13 	100000
-4.83215 	348.432 	7.56708e-13 	100000
-4.83115 	348.432 	5.65432e-13 	100000
-4.83015 	348.432 	6.53685e-13 	100000
-4.82915 	348.432 	6.67996e-13 	100000
-4.82815 	348.432 	6.97144e-13 	100000
-4.82715 	348.432 	8.35566e-13 	100000
-4.82615 	348.432 	5.62556e-13 	100000
-4.82515 	348.432 	3.33998e-13 	100000
-4.82415 	348.432 	7.96591e-14 	100000
-4.82315 	348.432 	2.25401e-13 	100000
-4.82216 	348.432 	2.85766e-13 	100000
-4.82116 	348.432 	4.04145e-13 	100000
-4.82016 	348.432 	7.43552e-13 	100000
-4.81916 	348.432 	8.84194e-13 	100000
-4.81816 	348.432 	1.19087e-12 	100000
-4.81716 	348.432 	1.29118e-12 	100000
-4.81616 	348.432 	1.49658e-12 	100000
-4.81516 	348.432 	1.386e-12 	100000
-4.81416 	348.432 	1.34613e-12 	100000
-4.81316 	348.432 	1.22546e-12 	100000
-4.81216 	348.432 	1.14202e-12 	100000
-4.81117 	348.432 	9.58023e-13 	100000
-4.81017 	348.432 	1.00651e-12 	100000
-4.80917 	348.432 	8.9966e-13 	100000
-4.80817 	348.432 	7.58757e-13 	100000
-4.80717 	348.432 	5.98637e-13 	100000
-4.80617 	348.432 	3.75213e-13 	100000
-4.80517 	348.432 	1.75619e-13 	100000
-4.80417 	348.432 	1.06667e-13 	100000
-4.80317 	348.432 	1.26782e-13 	100000
-4.80217 	348.432 	1.82716e-13 	100000
-4.80117 	348.432 	5.12171e-13 	100000
-4.80018 	348.432 	9.01314e-13 	100000
-4.79918 	348.432 	1.19917e-12 	100000
-4.79818 	348.432 	1.51573e-12 	100000
-4.79718 	348.432 	1.87339e-12 	100000
-4.79618 	348.432 	1.90658e-12 	100000
-4.79518 	348.432 	2.19101e-12 	100000
-4.79418 	348.432 	2.40192e-12 	100000
-4.79318 	348.432 	2.62173e-12 	100000
-4.79218 	348.432 	2.656e-12 	100000
-4.79118 	348.432 	2.87535e-12 	100000
-4.79018 	348.432 	3.06481e-12 	100000
-4.78919 	348.432 	3.1212e-12 	100000
-4.78819 	348.432 	3.14425e-12 	100000
-4.78719 	348.432 	3.52646e-12 	100000
-4.78619 	348.432 	3.45906e-12 	100000
-4.78519 	348.432 	3.37616e-12 	100000
-4.78419 	348.432 	3.31685e-12 	100000
-4.78319 	348.432 	3.12986e-12 	100000
-4.78219 	348.432 	2.73901e-12 	100000
-4.78119 	348.432 	2.63139e-12 	100000
-4.78019 	348.432 	2.46643e-12 	100000
-4.77919 	348.432 	2.26669e-12 	100000
-4.7782 	348.432 	1.95287e-12 	100000
-4.7772 	348.432 	1.96893e-12 	100000
-4.7762 	348.432 	1.66913e-12 	100000
-4.7752 	348.432 	1.71524e-12 	100000
-4.7742 	348.432 	1.60743e-12 	100000
-4.7732 	348.432 	1.42802e-12 	100000
-4.7722 	348.432 	1.10438e-12 	100000
-4.7712 	348.432 	8.87475e-13 	100000
-4.7702 	348.432 	7.63346e-13 	100000
-4.7692 	348.432 	9.85394e-13 	100000
-4.7682 	348.432 	8.53042e-13 	100000
-4.76721 	348.432 	8.61413e-13 	100000
-4.76621 	348.432 	8.22843e-13 	100000
-4.76521 	348.432 	8.96147e-13 	100000
-4.76421 	348.432 	7.93924e-13 	100000
-4.76321 	348.432 	9.78635e-13 	100000
-4.76221 	348.432 	8.87941e-13 	100000
-4.76121 	348.432 	8.8523e-13 	100000
-4.76021 	348.432 	8.02302e-13 	100000
-4.75921 	348.432 	7.43572e-13 	100000
-4.75821 	348.432 	7.02626e-13 	100000
-4.75721 	348.432 	8.21025e-13 	100000
-4.75622 	348.432 	4.79261e-13 	100000
-4.75522 	348.432 	4.11136e-13 	100000
-4.75422 	348.432 	1.93495e-13 	100000
-4.75322 	348.432 	2.85391e-13 	100000
-4.75222 	348.432 	2.94024e-13 	100000
-4.75122 	348.432 	3.23921e-13 	100000
-4.75022 	348.432 	4.73227e-13 	100000
-4.74922 	348.432 	5.05034e-13 	100000
-4.74822 	348.432 	5.68931e-13 	100000
-4.74722 	348.432 	4.88281e-13 	100000
-4.74622 	348.432 	7.61054e-13 	100000
-4.74523 	348.432 	7.01287e-13 	100000
-4.74423 	348.432 	5.91271e-13 	100000
-4.74323 	348.432 	4.80028e-13 	100000
-4.74223 	348.432 	3.66127e-13 	100000
-4.74123 	348.432 	1.59213e-13 	100000
-4.74023 	348.432 	1.40371e-13 	100000
-4.73923 	348.432 	1.6883e-13 	100000
-4.73823 	348.432 	1.0821e-13 	100000
-4.73723 	348.432 	1.84691e-13 	100000
-4.73623 	348.432 	1.46858e-13 	100000
-4.73523 	348.432 	2.01275e-13 	100000
-4.73423 	348.432 	2.79798e-13 	100000
-4.73324 	348.432 	5.16346e-13 	100000
-4.73224 	348.432 	7.59282e-13 	100000
-4.73124 	348.432 	6.9759e-13 	100000
-4.73024 	348.432 	9.01064e-13 	100000
-4.72924 	348.432 	8.41448e-13 	100000
-4.72824 	348.432 	1.15868e-12 	100000
-4.72724 	348.432 	9.38195e-13 	100000
-4.72624 	348.432 	1.25221e-12 	100000
-4.72524 	348.432 	1.18564e-12 	100000
-4.72424 	348.432 	1.52207e-12 	100000
-4.72324 	348.432 	1.32181e-12 	100000
-4.72225 	348.432 	1.42731e-12 	100000
-4.72125 	348.432 	1.02461e-12 	100000
-4.72025 	348.432 	9.07229e-13 	100000
-4.71925 	348.432 	6.49089e-13 	100000
-4.71825 	348.432 	5.79717e-13 	100000
-4.71725 	348.432 	4.01184e-13 	100000
-4.71625 	348.432 	2.48181e-13 	100000
-4.71525 	348.432 	1.05846e-13 	100000
-4.71425 	348.432 	8.73532e-14 	100000
-4.71325 	348.432 	2.1388e-13 	100000
-4.71225 	348.432 	4.84683e-13 	100000
-4.71126 	348.432 	5.78942e-13 	100000
-4.71026 	348.432 	7.17948e-13 	100000
-4.70926 	348.432 	7.58973e-13 	100000
-4.70826 	348.432 	7.50032e-13 	100000
-4.70726 	348.432 	8.81725e-13 	100000
-4.70626 	348.432 	9.97163e-13 	100000
-4.70526 	348.432 	1.18726e-12 	100000
-4.70426 	348.432 	1.2566e-12 	100000
-4.70326 	348.432 	1.1336e-12 	100000
-4.70226 	348.432 	1.10494e-12 	100000
-4.70126 	348.432 	8.52911e-13 	100000
-4.70027 	348.432 	7.84792e-13 	100000
-4.69927 	348.432 	1.0916e-12 	100000
-4.69827 	348.432 	1.06625e-12 	100000
-4.69727 	348.432 	1.15008e-12 	100000
-4.69627 	348.432 	1.10415e-12 	100000
-4.69527 	348.432 	1.15458e-12 	100000
-4.69427 	348.432 	1.20741e-12 	100000
-4.69327 	348.432 	1.18285e-12 	100000
-4.69227 	348.432 	1.16433e-12 	100000
-4.69127 	348.432 	1.36018e-12 	100000
-4.69027 	348.432 	1.71143e-12 	100000
-4.68928 	348.432 	1.75289e-12 	100000
-4.68828 	348.432 	2.01631e-12 	100000
-4.68728 	348.432 	2.00813e-12 	100000
-4.68628 	348.432 	2.0275e-12 	100000
-4.68528 	348.432 	2.35976e-12 	100000
-4.68428 	348.432 	2.41857e-12 	100000
-4.68328 	348.432 	2.27921e-12 	100000
-4.68228 	348.432 	2.2072e-12 	100000
-4.68128 	348.432 	2.19318e-12 	100000
-4.68028 	348.432 	1.98792e-12 	100000
-4.67928 	348.432 	2.27536e-12 	100000
-4.67829 	348.432 	2.14961e-12 	100000
-4.67729 	348.432 	2.22573e-12 	100000
-4.67629 	348.432 	2.0888e-12 	100000
-4.67529 	348.432 	2.17136e-12 	100000
-4.67429 	348.432 	1.87495e-12 	100000
-4.67329 	348.432 	1.96706e-12 	100000
-4.67229 	348.432 	1.8034e-12 	100000
-4.67129 	348.432 	1.85928e-12 	100000
-4.67029 	348.432 	1.94314e-12 	100000
-4.66929 	348.432 	1.89142e-12 	100000
-4.66829 	348.432 	1.71437e-12 	100000
-4.6673 	348.432 	1.93344e-12 	100000
-4.6663 	348.432 	1.80316e-12 	100000
-4.6653 	348.432 	1.78767e-12 	100000
-4.6643 	348.432 	1.53401e-12 	100000
-4.6633 	348.432 	1.31286e-12 	100000
-4.6623 	348.432 	1.345e-12 	100000
-4.6613 	348.432 	1.44133e-12 	100000
-4.6603 	348.432 	1.36787e-12 	100000
-4.6593 	348.432 	1.52085e-12 	100000
-4.6583 	348.432 	1.26861e-12 	100000
-4.6573 	348.432 	1.31725e-12 	100000
-4.65631 	348.432 	1.01012e-12 	100000
-4.65531 	348.432 	8.87436e-13 	100000
-4.65431 	348.432 	8.05624e-13 	100000
-4.65331 	348.432 	7.72556e-13 	100000
-4.65231 	348.432 	7.64514e-13 	100000
-4.65131 	348.432 	4.95266e-13 	100000
-4.65031 	348.432 	4.9904e-13 	100000
-4.64931 	348.432 	2.76325e-13 	100000
-4.64831 	348.432 	2.86232e-13 	100000
-4.64731 	348.432 	1.00181e-13 	100000
-4.64631 	348.432 	1.99831e-13 	100000
-4.64532 	348.432 	1.35586e-13 	100000
-4.64432 	348.432 	2.027e-13 	100000
-4.64332 	348.432 	1.68693e-13 	100000
-4.64232 	348.432 	3.43484e-13 	100000
-4.64132 	348.432 	4.08372e-13 	100000
-4.64032 	348.432 	4.76549e-13 	100000
-4.63932 	348.432 	2.26307e-13 	100000
-4.63832 	348.432 	3.86038e-13 	100000
-4.63732 	348.432 	3.60468e-13 	100000
-4.63632 	348.432 	3.74904e-13 	100000
-4.63532 	348.432 	2.23944e-13 	100000
-4.63432 	348.432 	2.47984e-13 	100000
-4.63333 	348.432 	2.88634e-13 	100000
-4.63233 	348.432 	4.63689e-13 	100000
-4.63133 	348.432 	4.22014e-13 	100000
-4.63033 	348.432 	6.04743e-13 	100000
-4.62933 	348.432 	5.23337e-13 	100000
-4.62833 	348.432 	6.19304e-13 	100000
-4.62733 	348.432 	4.89318e-13 	100000
-4.62633 	348.432 	7.39055e-13 	100000
-4.62533 	348.432 	7.36698e-13 	100000
-4.62433 	348.432 	8.67865e-13 	100000
-4.62333 	348.432 	9.31572e-13 	100000
-4.62234 	348.432 	6.90605e-13 	100000
-4.62134 	348.432 	6.84736e-13 	100000
-4.62034 	348.432 	8.80714e-13 	100000
-4.61934 	348.432 	7.23188e-13 	100000
-4.61834 	348.432 	4.92856e-13 	100000
-4.61734 	348.432 	2.34001e-13 	100000
-4.61634 	348.432 	1.37286e-13 	100000
-4.61534 	348.432 	6.98904e-14 	100000
-4.61434 	348.432 	3.55518e-13 	100000
-4.61334 	348.432 	3.20001e-13 	100000
-4.61234 	348.432 	3.73473e-13 	100000
-4.61135 	348.432 	3.03103e-13 	100000
-4.61035 	348.432 	5.11711e-13 	100000
-4.60935 	348.432 	4.8658e-13 	100000
-4.60835 	348.432 	7.69602e-13 	100000
-4.60735 	348.432 	9.12849e-13 	100000
-4.60635 	348.432 	1.36465e-12 	100000
-4.60535 	348.432 	1.38177e-12 	100000
-4.60435 	348.432 	1.70509e-12 	100000
-4.60335 	348.432 	1.76892e-12 	100000
-4.60235 	348.432 	1.73018e-12 	100000
-4.60135 	348.432 	1.85233e-12 	100000
-4.60036 	348.432 	1.7777e-12 	100000
-4.59936 	348.432 	1.87772e-12 	100000
-4.59836 	348.432 	2.01306e-12 	100000
-4.59736 	348.432 	1.92966e-12 	100000
-4.59636 	348.432 	1.94854e-12 	100000
-4.59536 	348.432 	1.89052e-12 	100000
-4.59436 	348.432 	1.73869e-12 	100000
-4.59336 	348.432 	1.5714e-12 	100000
-4.59236 	348.432 	1.5002e-12 	100000
-4.59136 	348.432 	1.19484e-12 	100000
-4.59036 	348.432 	1.07231e-12 	100000
-4.58937 	348.432 	8.94329e-13 	100000
-4.58837 	348.432 	5.95046e-13 	100000
-4.58737 	348.432 	2.70443e-13 	100000
-4.58637 	348.432 	1.37057e-13 	100000
-4.58537 	348.432 	2.72478e-13 	100000
-4.58437 	348.432 	8.84849e-13 	100000
-4.58337 	348.432 	7.26142e-13 	100000
-4.58237 	348.432 	1.18493e-12 	100000
-4.58137 	348.432 	1.12535e-12 	100000
-4.58037 	348.432 	1.25099e-12 	100000
-4.57937 	348.432 	1.29447e-12 	100000
-4.57838 	348.432 	1.06851e-12 	100000
-4.57738 	348.432 	1.07961e-12 	100000
-4.57638 	348.432 	9.77349e-13 	100000
-4.57538 	348.432 	9.57779e-13 	100000
-4.57438 	348.432 	8.39846e-13 	100000
-4.57338 	348.432 	9.90745e-13 	100000
-4.57238 	348.432 	8.68279e-13 	100000
-4.57138 	348.432 	7.82357e-13 	100000
-4.57038 	348.432 	5.35424e-13 	100000
-4.56938 	348.432 	5.88862e-13 	100000
-4.56838 	348.432 	4.40501e-13 	100000
-4.56739 	348.432 	6.6384e-13 	100000
-4.56639 	348.432 	5.50779e-13 	100000
-4.56539 	348.432 	9.50984e-13 	100000
-4.56439 	348.432 	7.86453e-13 	100000
-4.56339 	348.432 	1.12322e-12 	100000
-4.56239 	348.432 	1.14252e-12 	100000
-4.56139 	348.432 	1.31103e-12 	100000
-4.56039 	348.432 	1.45452e-12 	100000
-4.55939 	348.432 	1.77965e-12 	100000
-4.55839 	348.432 	1.78276e-12 	100000
-4.55739 	348.432 	1.85203e-12 	100000
-4.5564 	348.432 	2.22186e-12 	100000
-4.5554 	348.432 	2.32169e-12 	100000
-4.5544 	348.432 	2.82347e-12 	100000
-4.5534 	348.432 	2.67607e-12 	100000
-4.5524 	348.432 	2.94609e-12 	100000
-4.5514 	348.432 	2.60841e-12 	100000
-4.5504 	348.432 	3.05196e-12 	100000
-4.5494 	348.432 	2.58728e-12 	100000
-4.5484 	348.432 	2.88862e-12 	100000
-4.5474 	348.432 	2.70901e-12 	100000
-4.5464 	348.432 	2.29599e-12 	100000
-4.54541 	348.432 	2.6271e-12 	100000
-4.54441 	348.432 	2.57856e-12 	100000
-4.54341 	348.432 	2.00561e-12 	100000
-4.54241 	348.432 	2.19035e-12 	100000
-4.54141 	348.432 	1.96017e-12 	100000
-4.54041 	348.432 	2.32062e-12 	100000
-4.53941 	348.432 	2.48898e-12 	100000
-4.53841 	348.432 	2.58066e-12 	100000
-4.53741 	348.432 	2.60192e-12 	100000
-4.53641 	348.432 	2.91181e-12 	100000
-4.53541 	348.432 	2.43495e-12 	100000
-4.53441 	348.432 	2.84486e-12 	100000
-4.53342 	348.432 	2.41579e-12 	100000
-4.53242 	348.432 	2.80686e-12 	100000
-4.53142 	348.432 	2.57801e-12 	100000
-4.53042 	348.432 	2.85436e-12 	100000
-4.52942 	348.432 	2.78078e-12 	100000
-4.52842 	348.432 	2.56672e-12 	100000
-4.52742 	348.432 	2.72668e-12 	100000
-4.52642 	348.432 	2.69734e-12 	100000
-4.52542 	348.432 	2.53372e-12 	100000
-4.52442 	348.432 	2.80109e-12 	100000
-4.52342 	348.432 	2.42874e-12 	100000
-4.52243 	348.432 	2.17084e-12 	100000
-4.52143 	348.432 	2.29156e-12 	100000
-4.52043 	348.432 	1.91897e-12 	100000
-4.51943 	348.432 	1.6421e-12 	100000
-4.51843 	348.432 	1.55259e-12 	100000
-4.51743 	348.432 	1.45025e-12 	100000
-4.51643 	348.432 	1.52564e-12 	100000
-4.51543 	348.432 	1.4372e-12 	100000
-4.51443 	348.432 	1.35377e-12 	100000
-4.51343 	348.432 	1.52866e-12 	100000
-4.51243 	348.432 	1.6788e-12 	100000
-4.51144 	348.432 	1.49353e-12 	100000
-4.51044 	348.432 	1.5671e-12 	100000
-4.50944 	348.432 	1.44779e-12 	100000
-4.50844 	348.432 	1.49619e-12 	100000
-4.50744 	348.432 	1.40658e-12 	100000
-4.50644 	348.432 	1.48241e-12 	100000
-4.50544 	348.432 	1.1859e-12 	100000
-4.50444 	348.432 	1.47096e-12 	100000
-4.50344 	348.432 	1.202e-12 	100000
-4.50244 	348.432 	1.31961e-12 	100000
-4.50144 	348.432 	1.69853e-12 	100000
-4.50045 	348.432 	2.0584e-12 	100000
-4.49945 	348.432 	2.09535e-12 	100000
-4.49845 	348.432 	2.24644e-12 	100000
-4.49745 	348.432 	2.00274e-12 	100000
-4.49645 	348.432 	2.33224e-12 	100000
-4.49545 	348.432 	2.04293e-12 	100000
-4.49445 	348.432 	2.31465e-12 	100000
-4.49345 	348.432 	1.96821e-12 	100000
-4.49245 	348.432 	2.49603e-12 	100000
-4.49145 	348.432 	1.95634e-12 	100000
-4.49045 	348.432 	2.26501e-12 	100000
-4.48946 	348.432 	1.75994e-12 	100000
-4.48846 	348.432 	2.25779e-12 	100000
-4.48746 	348.432 	1.87902e-12 	100000
-4.48646 	348.432 	2.13029e-12 	100000
-4.48546 	348.432 	1.82914e-12 	100000
-4.48446 	348.432 	2.29369e-12 	100000
-4.48346 	348.432 	2.03848e-12 	100000
-4.48246 	348.432 	2.29419e-12 	100000
-4.48146 	348.432 	2.03907e-12 	100000
-4.48046 	348.432 	2.33025e-12 	100000
-4.47946 	348.432 	2.24327e-12 	100000
-4.47847 	348.432 	2.54267e-12 	100000
-4.47747 	348.432 	2.28319e-12 	100000
-4.47647 	348.432 	2.905e-12 	100000
-4.47547 	348.432 	2.53819e-12 	100000
-4.47447 	348.432 	2.52913e-12 	100000
-4.47347 	348.432 	2.24644e-12 	100000
-4.47247 	348.432 	2.24815e-12 	100000
-4.47147 	348.432 	2.29776e-12 	100000
-4.47047 	348.432 	2.05401e-12 	100000
-4.46947 	348.432 	1.9578e-12 	100000
-4.46847 	348.432 	2.07177e-12 	100000
-4.46748 	348.432 	2.08887e-12 	100000
-4.46648 	348.432 	2.20338e-12 	100000
-4.46548 	348.432 	2.22985e-12 	100000
-4.46448 	348.432 	2.15205e-12 	100000
-4.46348 	348.432 	2.4898e-12 	100000
-4.46248 	348.432 	2.28537e-12 	100000
-4.46148 	348.432 	2.75474e-12 	100000
-4.46048 	348.432 	2.65134e-12 	100000
-4.45948 	348.432 	3.22967e-12 	100000
-4.45848 	348.432 	2.75091e-12 	100000
-4.45748 	348.432 	3.2447e-12 	100000
-4.45649 	348.432 	2.73281e-12 	100000
-4.45549 	348.432 	3.06374e-12 	100000
-4.45449 	348.432 	3.09118e-12 	100000
-4.45349 	348.432 	2.98969e-12 	100000
-4.45249 	348.432 	2.93271e-12 	100000
-4.45149 	348.432 	2.98647e-12 	100000
-4.45049 	348.432 	2.61458e-12 	100000
-4.44949 	348.432 	2.96995e-12 	100000
-4.44849 	348.432 	2.28865e-12 	100000
-4.44749 	348.432 	2.08342e-12 	100000
-4.44649 	348.432 	1.70594e-12 	100000
-4.4455 	348.432 	1.57485e-12 	100000
-4.4445 	348.432 	1.45885e-12 	100000
-4.4435 	348.432 	1.48767e-12 	100000
-4.4425 	348.432 	1.41477e-12 	100000
-4.4415 	348.432 	1.3273e-12 	100000
-4.4405 	348.432 	1.22532e-12 	100000
-4.4395 	348.432 	1.19617e-12 	100000
-4.4385 	348.432 	1.21073e-12 	100000
-4.4375 	348.432 	1.63283e-12 	100000
-4.4365 	348.432 	1.44474e-12 	100000
-4.4355 	348.432 	2.06886e-12 	100000
-4.4345 	348.432 	2.0714e-12 	100000
-4.43351 	348.432 	2.25992e-12 	100000
-4.43251 	348.432 	1.97126e-12 	100000
-4.43151 	348.432 	2.05614e-12 	100000
-4.43051 	348.432 	2.08573e-12 	100000
-4.42951 	348.432 	2.66397e-12 	100000
-4.42851 	348.432 	2.51068e-12 	100000
-4.42751 	348.432 	2.8696e-12 	100000
-4.42651 	348.432 	2.52785e-12 	100000
-4.42551 	348.432 	2.9987e-12 	100000
-4.42451 	348.432 	3.06252e-12 	100000
-4.42351 	348.432 	3.322e-12 	100000
-4.42252 	348.432 	3.52691e-12 	100000
-4.42152 	348.432 	3.31496e-12 	100000
-4.42052 	348.432 	3.59794e-12 	100000
-4.41952 	348.432 	3.60306e-12 	100000
-4.41852 	348.432 	3.17391e-12 	100000
-4.41752 	348.432 	3.56562e-12 	100000
-4.41652 	348.432 	2.97418e-12 	100000
-4.41552 	348.432 	3.44625e-12 	100000
-4.41452 	348.432 	3.27191e-12 	100000
-4.41352 	348.432 	3.26756e-12 	100000
-4.41252 	348.432 	3.32446e-12 	100000
-4.41153 	348.432 	2.94215e-12 	100000
-4.41053 	348.432 	2.88945e-12 	100000
-4.40953 	348.432 	2.1222e-12 	100000
-4.40853 	348.432 	2.25648e-12 	100000
-4.40753 	348.432 	1.56716e-12 	100000
-4.40653 	348.432 	2.09801e-12 	100000
-4.40553 	348.432 	1.57805e-12 	100000
-4.40453 	348.432 	1.88563e-12 	100000
-4.40353 	348.432 	1.37435e-12 	100000
-4.40253 	348.432 	1.93451e-12 	100000
-4.40153 	348.432 	1.32102e-12 	100000
-4.40054 	348.432 	1.87509e-12 	100000
-4.39954 	348.432 	1.26385e-12 	100000
-4.39854 	348.432 	2.09651e-12 	100000
-4.39754 	348.432 	1.72289e-12 	100000
-4.39654 	348.432 	2.16925e-12 	100000
-4.39554 	348.432 	2.1881e-12 	100000
-4.39454 	348.432 	2.56582e-12 	100000
-4.39354 	348.432 	2.69377e-12 	100000
-4.39254 	348.432 	2.85225e-12 	100000
-4.39154 	348.432 	3.55664e-12 	100000
-4.39054 	348.432 	3.63029e-12 	100000
-4.38955 	348.432 	3.49299e-12 	100000
-4.38855 	348.432 	3.66721e-12 	100000
-4.38755 	348.432 	3.84278e-12 	100000
-4.38655 	348.432 	3.83716e-12 	100000
-4.38555 	348.432 	4.29423e-12 	100000
-4.38455 	348.432 	3.91594e-12 	100000
-4.38355 	348.432 	4.08864e-12 	100000
-4.38255 	348.432 	4.33419e-12 	100000
-4.38155 	348.432 	4.01535e-12 	100000
-4.38055 	348.432 	4.38349e-12 	100000
-4.37955 	348.432 	4.03296e-12 	100000
-4.37856 	348.432 	4.24576e-12 	100000
-4.37756 	348.432 	4.19066e-12 	100000
-4.37656 	348.432 	3.87023e-12 	100000
-4.37556 	348.432 	3.74113e-12 	100000
-4.37456 	348.432 	3.65199e-12 	100000
-4.37356 	348.432 	3.67425e-12 	100000
-4.37256 	348.432 	3.21016e-12 	100000
-4.37156 	348.432 	3.4401e-12 	100000
-4.37056 	348.432 	3.36147e-12 	100000
-4.36956 	348.432 	3.2048e-12 	100000
-4.36856 	348.432 	3.14003e-12 	100000
-4.36757 	348.432 	3.38171e-12 	100000
-4.36657 	348.432 	2.97655e-12 	100000
-4.36557 	348.432 	2.81054e-12 	100000
-4.36457 	348.432 	2.56963e-12 	100000
-4.36357 	348.432 	2.13171e-12 	100000
-4.36257 	348.432 	2.14128e-12 	100000
-4.36157 	348.432 	1.79186e-12 	100000
-4.36057 	348.432 	1.73798e-12 	100000
-4.35957 	348.432 	1.53293e-12 	100000
-4.35857 	348.432 	1.34135e-12 	100000
-4.35757 	348.432 	1.31394e-12 	100000
-4.35658 	348.432 	1.08351e-12 	100000
-4.35558 	348.432 	1.36138e-12 	100000
-4.35458 	348.432 	1.08957e-12 	100000
-4.35358 	348.432 	1.3339e-12 	100000
-4.35258 	348.432 	1.16848e-12 	100000
-4.35158 	348.432 	1.1524e-12 	100000
-4.35058 	348.432 	1.0451e-12 	100000
-4.34958 	348.432 	1.43767e-12 	100000
-4.34858 	348.432 	1.0182e-12 	100000
-4.34758 	348.432 	1.13783e-12 	100000
-4.34658 	348.432 	9.92081e-13 	100000
-4.34559 	348.432 	1.07077e-12 	100000
-4.34459 	348.432 	1.45279e-12 	100000
-4.34359 	348.432 	1.66107e-12 	100000
-4.34259 	348.432 	1.98361e-12 	100000
-4.34159 	348.432 	1.84022e-12 	100000
-4.34059 	348.432 	2.182e-12 	100000
-4.33959 	348.432 	1.99172e-12 	100000
-4.33859 	348.432 	2.0223e-12 	100000
-4.33759 	348.432 	2.33219e-12 	100000
-4.33659 	348.432 	2.42928e-12 	100000
-4.33559 	348.432 	2.64753e-12 	100000
-4.33459 	348.432 	2.59026e-12 	100000
-4.3336 	348.432 	2.67427e-12 	100000
-4.3326 	348.432 	2.81582e-12 	100000
-4.3316 	348.432 	2.71147e-12 	100000
-4.3306 	348.432 	3.02739e-12 	100000
-4.3296 	348.432 	3.11588e-12 	100000
-4.3286 	348.432 	2.9642e-12 	100000
-4.3276 	348.432 	2.86797e-12 	100000
-4.3266 	348.432 	2.87221e-12 	100000
-4.3256 	348.432 	2.71669e-12 	100000
-4.3246 	348.432 	2.71172e-12 	100000
-4.3236 	348.432 	2.90911e-12 	100000
-4.32261 	348.432 	2.89292e-12 	100000
-4.32161 	348.432 	3.17498e-12 	100000
-4.32061 	348.432 	3.22222e-12 	100000
-4.31961 	348.432 	3.24981e-12 	100000
-4.31861 	348.432 	3.23998e-12 	100000
-4.31761 	348.432 	3.08263e-12 	100000
-4.31661 	348.432 	3.15409e-12 	100000
-4.31561 	348.432 	2.98411e-12 	100000
-4.31461 	348.432 	2.89653e-12 	100000
-4.31361 	348.432 	2.91414e-12 	100000
-4.31261 	348.432 	2.74959e-12 	100000
-4.31162 	348.432 	2.86973e-12 	100000
-4.31062 	348.432 	2.8754e-12 	100000
-4.30962 	348.432 	2.71921e-12 	100000
-4.30862 	348.432 	2.8787e-12 	100000
-4.30762 	348.432 	2.54314e-12 	100000
-4.30662 	348.432 	2.85379e-12 	100000
-4.30562 	348.432 	2.40284e-12 	100000
-4.30462 	348.432 	2.80787e-12 	100000
-4.30362 	348.432 	2.68177e-12 	100000
-4.30262 	348.432 	3.25564e-12 	100000
-4.30162 	348.432 	3.09788e-12 	100000
-4.30063 	348.432 	3.8797e-12 	100000
-4.29963 	348.432 	3.44899e-12 	100000
-4.29863 	348.432 	3.72609e-12 	100000
-4.29763 	348.432 	3.47292e-12 	100000
-4.29663 	348.432 	3.37721e-12 	100000
-4.29563 	348.432 	3.35698e-12 	100000
-4.29463 	348.432 	3.65932e-12 	100000
-4.29363 	348.432 	3.36325e-12 	100000
-4.29263 	348.432 	3.89324e-12 	100000
-4.29163 	348.432 	3.46419e-12 	100000
-4.29063 	348.432 	4.20484e-12 	100000
-4.28964 	348.432 	3.89103e-12 	100000
-4.28864 	348.432 	4.59036e-12 	100000
-4.28764 	348.432 	4.34674e-12 	100000
-4.28664 	348.432 	4.50239e-12 	100000
-4.28564 	348.432 	4.2478e-12 	100000
-4.28464 	348.432 	4.22624e-12 	100000
-4.28364 	348.432 	4.26792e-12 	100000
-4.28264 	348.432 	3.8985e-12 	100000
-4.28164 	348.432 	3.924e-12 	100000
-4.28064 	348.432 	3.60125e-12 	100000
-4.27964 	348.432 	3.94407e-12 	100000
-4.27865 	348.432 	3.4879e-12 	100000
-4.27765 	348.432 	3.58565e-12 	100000
-4.27665 	348.432 	3.43104e-12 	100000
-4.27565 	348.432 	3.62253e-12 	100000
-4.27465 	348.432 	3.33864e-12 	100000
-4.27365 	348.432 	3.35655e-12 	100000
-4.27265 	348.432 	3.53071e-12 	100000
-4.27165 	348.432 	3.8068e-12 	100000
-4.27065 	348.432 	3.67799e-12 	100000
-4.26965 	348.432 	3.90615e-12 	100000
-4.26865 	348.432 	3.74345e-12 	100000
-4.26766 	348.432 	3.71749e-12 	100000
-4.26666 	348.432 	3.68283e-12 	100000
-4.26566 	348.432 	3.9834e-12 	100000
-4.26466 	348.432 	3.96699e-12 	100000
-4.26366 	348.432 	4.3826e-12 	100000
-4.26266 	348.432 	4.56177e-12 	100000
-4.26166 	348.432 	4.5192e-12 	100000
-4.26066 	348.432 	4.94778e-12 	100000
-4.25966 	348.432 	4.9471e-12 	100000
-4.25866 	348.432 	5.199e-12 	100000
-4.25766 	348.432 	5.26362e-12 	100000
-4.25667 	348.432 	5.27819e-12 	100000
-4.25567 	348.432 	5.34143e-12 	100000
-4.25467 	348.432 	5.37784e-12 	100000
-4.25367 	348.432 	5.47982e-12 	100000
-4.25267 	348.432 	5.62067e-12 	100000
-4.25167 	348.432 	5.39093e-12 	100000
-4.25067 	348.432 	5.39945e-12 	100000
-4.24967 	348.432 	5.19434e-12 	100000
-4.24867 	348.432 	5.48736e-12 	100000
-4.24767 	348.432 	5.13567e-12 	100000
-4.24667 	348.432 	5.21586e-12 	100000
-4.24568 	348.432 	5.02279e-12 	100000
-4.24468 	348.432 	5.13053e-12 	100000
-4.24368 	348.432 	4.97179e-12 	100000
-4.24268 	348.432 	5.1584e-12 	100000
-4.24168 	348.432 	5.15975e-12 	100000
-4.24068 	348.432 	4.64667e-12 	100000
-4.23968 	348.432 	4.97898e-12 	100000
-4.23868 	348.432 	4.45541e-12 	100000
-4.23768 	348.432 	4.68763e-12 	100000
-4.23668 	348.432 	4.61515e-12 	100000
-4.23568 	348.432 	4.19954e-12 	100000
-4.23468 	348.432 	4.19684e-12 	100000
-4.23369 	348.432 	4.19198e-12 	100000
-4.23269 	348.432 	4.10351e-12 	100000
-4.23169 	348.432 	4.45178e-12 	100000
-4.23069 	348.432 	4.28808e-12 	100000
-4.22969 	348.432 	4.71508e-12 	100000
-4.22869 	348.432 	4.9465e-12 	100000
-4.22769 	348.432 	4.91528e-12 	100000
-4.22669 	348.432 	4.9249e-12 	100000
-4.22569 	348.432 	4.94228e-12 	100000
-4.22469 	348.432 	4.53357e-12 	100000
-4.22369 	348.432 	4.68118e-12 	100000