/*--------------------------------*- C++ -*----------------------------------*\
  =========                 |
  \\      /  F ield         | OpenFOAM: The Open Source CFD Toolbox
   \\    /   O peration     | Website:  https://openfoam.org
    \\  /    A nd           | Version:  7
     \\/     M anipulation  |
\*---------------------------------------------------------------------------*/
FoamFile
{
    version     2.0;
    format      ascii;
    class       volScalarField;
    location    "7.1";
    object      rho;
}
// * * * * * * * * * * * * * * * * * * * * * * * * * * * * * * * * * * * * * //

dimensions      [1 -3 0 0 0 0 0];

internalField   nonuniform List<scalar> 
19968
(
1.40001
1.40001
1.40001
1.40001
1.40001
1.40001
1.40001
1.40001
1.40001
1.40001
1.40001
1.40001
1.40001
1.40001
1.40001
1.40001
1.40001
1.40001
1.40001
1.40001
1.40001
1.40001
1.40001
1.40001
1.40001
1.40001
1.40001
1.40001
1.40001
1.40001
1.40001
1.40001
1.40001
1.40001
1.40001
1.40001
1.40001
1.40001
1.40001
1.40001
1.40001
1.40001
1.40001
1.40001
1.40001
1.40001
1.40001
1.40001
1.7198
4.59509
5.43304
5.4306
5.45479
5.47658
5.50067
5.52414
5.5461
5.56666
5.58632
5.6055
5.62451
5.643
5.66068
5.67819
5.69638
5.71476
5.73239
5.74895
5.76446
5.77917
5.79334
5.80742
5.82188
5.83664
5.85121
5.86513
5.87805
5.88977
5.90035
5.91025
5.9202
5.93071
5.94157
5.9519
5.96085
5.96823
5.97461
5.98083
5.98743
5.99425
6.00051
6.00533
6.00841
6.00938
6.00914
6.00827
1.40001
1.40001
1.40001
1.40001
1.40001
1.40001
1.40001
1.40001
1.40001
1.40001
1.40001
1.40001
1.40001
1.40001
1.40001
1.40001
1.40001
1.40001
1.40001
1.40001
1.40001
1.40001
1.40001
1.40001
1.40001
1.40001
1.40001
1.40001
1.40001
1.40001
1.40001
1.40001
1.40001
1.40001
1.40001
1.40001
1.40001
1.40001
1.40001
1.40001
1.40001
1.40001
1.40001
1.40001
1.40001
1.40001
1.40001
1.40001
1.70012
4.56429
5.42419
5.43252
5.4557
5.47749
5.50112
5.52429
5.54588
5.56613
5.58571
5.60471
5.62367
5.64209
5.65994
5.67752
5.69556
5.71367
5.73109
5.74753
5.76301
5.77771
5.79192
5.80607
5.82057
5.8353
5.8498
5.8636
5.87642
5.88807
5.89864
5.9086
5.91863
5.92916
5.93995
5.95014
5.95898
5.96635
5.97281
5.97914
5.98574
5.99241
5.99838
6.0029
6.00576
6.00666
6.00647
6.00567
1.40001
1.40001
1.40001
1.40001
1.40001
1.40001
1.40001
1.40001
1.40001
1.40001
1.40001
1.40001
1.40001
1.40001
1.40001
1.40001
1.40001
1.40001
1.40001
1.40001
1.40001
1.40001
1.40001
1.40001
1.40001
1.40001
1.40001
1.40001
1.40001
1.40001
1.40001
1.40001
1.40001
1.40001
1.40001
1.40001
1.40001
1.40001
1.40001
1.40001
1.40001
1.40001
1.40001
1.40001
1.40001
1.40001
1.40001
1.40001
1.65796
4.50369
5.41976
5.43207
5.45525
5.47726
5.50025
5.52253
5.54327
5.56309
5.58271
5.60179
5.62122
5.64001
5.6582
5.67585
5.69355
5.71113
5.72816
5.74447
5.76003
5.77486
5.78917
5.80339
5.81788
5.83252
5.84688
5.86053
5.87322
5.88483
5.89545
5.90554
5.91569
5.92621
5.93679
5.94673
5.95542
5.96288
5.96962
5.97626
5.98304
5.98963
5.99532
5.99944
6.00192
6.00267
6.00251
6.00179
1.40001
1.40001
1.40001
1.40001
1.40001
1.40001
1.40001
1.40001
1.40001
1.40001
1.40001
1.40001
1.40001
1.40001
1.40001
1.40001
1.40001
1.40001
1.40001
1.40001
1.40001
1.40001
1.40001
1.40001
1.40001
1.40001
1.40001
1.40001
1.40001
1.40001
1.40001
1.40001
1.40001
1.40001
1.40001
1.40001
1.40001
1.40001
1.40001
1.40001
1.40001
1.40001
1.40001
1.40001
1.40001
1.40001
1.40001
1.40001
1.59822
4.40612
5.41581
5.43325
5.4554
5.47731
5.49911
5.51997
5.53953
5.55881
5.5785
5.59789
5.61792
5.63713
5.65557
5.67314
5.69031
5.7072
5.72378
5.74001
5.75571
5.7707
5.78512
5.79939
5.81385
5.82839
5.84257
5.85602
5.86853
5.88003
5.8907
5.90095
5.91124
5.92171
5.932
5.94152
5.94993
5.95735
5.96424
5.97107
5.97792
5.98441
5.98982
5.9936
5.99575
5.99643
5.99637
5.99581
1.40001
1.40001
1.40001
1.40001
1.40001
1.40001
1.40001
1.40001
1.40001
1.40001
1.40001
1.40001
1.40001
1.40001
1.40001
1.40001
1.40001
1.40001
1.40001
1.40001
1.40001
1.40001
1.40001
1.40001
1.40001
1.40001
1.40001
1.40001
1.40001
1.40001
1.40001
1.40001
1.40001
1.40001
1.40001
1.40001
1.40001
1.40001
1.40001
1.40001
1.40001
1.40001
1.40001
1.40001
1.40001
1.40001
1.40001
1.40001
1.52558
4.28099
5.41479
5.4344
5.45351
5.4744
5.49488
5.51474
5.53366
5.5529
5.57314
5.59317
5.61381
5.63336
5.65175
5.66903
5.6855
5.70168
5.71789
5.73415
5.75008
5.76525
5.77979
5.79413
5.80862
5.82312
5.83721
5.85049
5.8628
5.8742
5.88494
5.89543
5.90596
5.91646
5.9265
5.93566
5.94378
5.9511
5.95799
5.96478
5.97142
5.97746
5.98227
5.98536
5.98684
5.98709
5.98677
5.98616
1.40001
1.40001
1.40001
1.40001
1.40001
1.40001
1.40001
1.40001
1.40001
1.40001
1.40001
1.40001
1.40001
1.40001
1.40001
1.40001
1.40001
1.40001
1.40001
1.40001
1.40001
1.40001
1.40001
1.40001
1.40001
1.40001
1.40001
1.40001
1.40001
1.40001
1.40001
1.40001
1.40001
1.40001
1.40001
1.40001
1.40001
1.40001
1.40001
1.40001
1.40001
1.40001
1.40001
1.40001
1.40001
1.40001
1.40001
1.40001
1.41144
4.09276
5.40978
5.4329
5.45099
5.47151
5.49132
5.51072
5.52939
5.54865
5.56906
5.58946
5.61037
5.62983
5.64756
5.66395
5.6794
5.69488
5.7108
5.72707
5.74298
5.75792
5.77212
5.78614
5.80037
5.81466
5.82851
5.84147
5.85339
5.86446
5.87507
5.88567
5.89643
5.90703
5.91693
5.92581
5.9337
5.94092
5.94788
5.95479
5.96154
5.96762
5.97238
5.97531
5.97648
5.97647
5.97589
5.97524
1.40001
1.40001
1.40001
1.40001
1.40001
1.40001
1.40001
1.40001
1.40001
1.40001
1.40001
1.40001
1.40001
1.40001
1.40001
1.40001
1.40001
1.40001
1.40001
1.40001
1.40001
1.40001
1.40001
1.40001
1.40001
1.40001
1.40001
1.40001
1.40001
1.40001
1.40001
1.40001
1.40001
1.40001
1.40001
1.40001
1.40001
1.40001
1.40001
1.40001
1.40001
1.40001
1.40001
1.40001
1.40001
1.40001
1.40001
1.40001
1.40009
3.8077
5.37499
5.41402
5.43231
5.45398
5.47464
5.49482
5.51428
5.53426
5.55502
5.57583
5.5969
5.61646
5.63385
5.64996
5.66515
5.6805
5.69652
5.71303
5.72904
5.74381
5.75771
5.7715
5.78571
5.80015
5.81422
5.82728
5.83909
5.84994
5.86047
5.87127
5.88244
5.8934
5.90342
5.91217
5.91983
5.92684
5.93365
5.9405
5.94725
5.95337
5.95819
5.96106
5.96201
5.96172
5.96077
5.96003
1.40001
1.40001
1.40001
1.40001
1.40001
1.40001
1.40001
1.40001
1.40001
1.40001
1.40001
1.40001
1.40001
1.40001
1.40001
1.40001
1.40001
1.40001
1.40001
1.40001
1.40001
1.40001
1.40001
1.40001
1.40001
1.40001
1.40001
1.40001
1.40001
1.40001
1.40001
1.40001
1.40001
1.40001
1.40001
1.40001
1.40001
1.40001
1.40001
1.40001
1.40001
1.40001
1.40001
1.40001
1.40001
1.40001
1.40001
1.40001
1.40001
3.4235
5.32171
5.4011
5.42089
5.44473
5.46659
5.48768
5.50787
5.52818
5.54855
5.56855
5.58833
5.60704
5.62367
5.6394
5.65438
5.66945
5.68509
5.70116
5.71661
5.73061
5.74371
5.75684
5.77073
5.78514
5.79933
5.81241
5.82398
5.83439
5.84449
5.85511
5.86641
5.87762
5.88776
5.89635
5.90361
5.91012
5.91644
5.92291
5.92943
5.93548
5.94031
5.9432
5.94406
5.9436
5.94234
5.94151
1.40001
1.40001
1.40001
1.40001
1.40001
1.40001
1.40001
1.40001
1.40001
1.40001
1.40001
1.40001
1.40001
1.40001
1.40001
1.40001
1.40001
1.40001
1.40001
1.40001
1.40001
1.40001
1.40001
1.40001
1.40001
1.40001
1.40001
1.40001
1.40001
1.40001
1.40001
1.40001
1.40001
1.40001
1.40001
1.40001
1.40001
1.40001
1.40001
1.40001
1.40001
1.40001
1.40001
1.40001
1.40001
1.40001
1.40001
1.40001
1.40001
2.95318
5.23436
5.39364
5.41294
5.43796
5.46015
5.48164
5.50216
5.52238
5.54204
5.56088
5.57891
5.59628
5.61207
5.62732
5.64211
5.65688
5.67194
5.68701
5.70122
5.71377
5.72558
5.73779
5.75121
5.76547
5.77964
5.79262
5.80381
5.81357
5.82296
5.83309
5.84426
5.85562
5.86588
5.87435
5.8812
5.88713
5.89289
5.89892
5.90522
5.91125
5.91627
5.91946
5.92055
5.92031
5.91906
5.91827
1.40001
1.40001
1.40001
1.40001
1.40001
1.40001
1.40001
1.40001
1.40001
1.40001
1.40001
1.40001
1.40001
1.40001
1.40001
1.40001
1.40001
1.40001
1.40001
1.40001
1.40001
1.40001
1.40001
1.40001
1.40001
1.40001
1.40001
1.40001
1.40001
1.40001
1.40001
1.40001
1.40001
1.40001
1.40001
1.40001
1.40001
1.40001
1.40001
1.40001
1.40001
1.40001
1.40001
1.40001
1.40001
1.40001
1.40001
1.40001
1.40001
2.41364
5.05768
5.3961
5.41575
5.44062
5.46212
5.48282
5.50242
5.5211
5.53876
5.55543
5.57109
5.58638
5.60114
5.61584
5.6304
5.64482
5.65924
5.67308
5.68581
5.69676
5.70713
5.71823
5.73084
5.74439
5.7578
5.76993
5.78013
5.78872
5.79688
5.80596
5.81651
5.82771
5.83808
5.84656
5.85319
5.85865
5.86378
5.86911
5.87477
5.88029
5.88504
5.88825
5.88955
5.88959
5.88847
5.8878
1.40001
1.40001
1.40001
1.40001
1.40001
1.40001
1.40001
1.40001
1.40001
1.40001
1.40001
1.40001
1.40001
1.40001
1.40001
1.40001
1.40001
1.40001
1.40001
1.40001
1.40001
1.40001
1.40001
1.40001
1.40001
1.40001
1.40001
1.40001
1.40001
1.40001
1.40001
1.40001
1.40001
1.40001
1.40001
1.40001
1.40001
1.40001
1.40001
1.40001
1.40001
1.40001
1.40001
1.40001
1.40001
1.40001
1.40001
1.40001
1.40001
1.88134
4.73934
5.41378
5.40937
5.43464
5.45285
5.47296
5.4923
5.51074
5.52804
5.54437
5.55949
5.5736
5.5876
5.60183
5.61633
5.63075
5.64487
5.65773
5.66927
5.67911
5.68853
5.69883
5.71058
5.72327
5.73561
5.74655
5.75541
5.76247
5.76882
5.7759
5.78452
5.79418
5.8034
5.81093
5.81652
5.82081
5.82474
5.829
5.8338
5.83889
5.84366
5.84729
5.84927
5.84998
5.84932
5.84908
1.40001
1.40001
1.40001
1.40001
1.40001
1.40001
1.40001
1.40001
1.40001
1.40001
1.40001
1.40001
1.40001
1.40001
1.40001
1.40001
1.40001
1.40001
1.40001
1.40001
1.40001
1.40001
1.40001
1.40001
1.40001
1.40001
1.40001
1.40001
1.40001
1.40001
1.40001
1.40001
1.40001
1.40001
1.40001
1.40001
1.40001
1.40001
1.40001
1.40001
1.40001
1.40001
1.40001
1.40001
1.40001
1.40001
1.40001
1.40001
1.40001
1.4245
4.09433
5.40927
5.41816
5.43404
5.45015
5.46731
5.4847
5.50187
5.51807
5.53337
5.54748
5.56014
5.57286
5.58584
5.59889
5.61194
5.62483
5.63639
5.6466
5.6553
5.66343
5.67255
5.68297
5.69434
5.70533
5.71502
5.72275
5.72864
5.73351
5.73868
5.74516
5.75299
5.76108
5.76803
5.77313
5.77676
5.7797
5.78268
5.7858
5.78907
5.79206
5.79389
5.79432
5.79398
5.79287
5.79257
1.40001
1.40001
1.40001
1.40001
1.40001
1.40001
1.40001
1.40001
1.40001
1.40001
1.40001
1.40001
1.40001
1.40001
1.40001
1.40001
1.40001
1.40001
1.40001
1.40001
1.40001
1.40001
1.40001
1.40001
1.40001
1.40001
1.40001
1.40001
1.40001
1.40001
1.40001
1.40001
1.40001
1.40001
1.40001
1.40001
1.40001
1.40001
1.40001
1.40001
1.40001
1.40001
1.40001
1.40001
1.40001
1.40001
1.40001
1.40001
1.40001
1.40005
3.20563
5.2479
5.36803
5.39107
5.41314
5.43115
5.44901
5.4668
5.48392
5.49989
5.51486
5.52808
5.54028
5.55257
5.56499
5.57737
5.58988
5.60135
5.61121
5.61978
5.62748
5.63591
5.64532
5.65538
5.66512
5.67376
5.68074
5.68586
5.68946
5.69249
5.696
5.70068
5.70608
5.71088
5.71382
5.71489
5.7149
5.71454
5.71435
5.71534
5.71714
5.71901
5.71994
5.72039
5.71988
5.72024
1.40001
1.40001
1.40001
1.40001
1.40001
1.40001
1.40001
1.40001
1.40001
1.40001
1.40001
1.40001
1.40001
1.40001
1.40001
1.40001
1.40001
1.40001
1.40001
1.40001
1.40001
1.40001
1.40001
1.40001
1.40001
1.40001
1.40001
1.40001
1.40001
1.40001
1.40001
1.40001
1.40001
1.40001
1.40001
1.40001
1.40001
1.40001
1.40001
1.40001
1.40001
1.40001
1.40001
1.40001
1.40001
1.40001
1.40001
1.40001
1.40001
1.4
2.17852
4.89026
5.37052
5.37841
5.40176
5.41849
5.43449
5.4504
5.46627
5.48133
5.49561
5.50841
5.51939
5.52998
5.54073
5.55151
5.56255
5.57312
5.58183
5.58918
5.59529
5.60152
5.60841
5.61575
5.62304
5.62961
5.635
5.63859
5.6403
5.64052
5.64016
5.6404
5.64178
5.64352
5.64419
5.64325
5.64048
5.63683
5.63386
5.63217
5.63031
5.62727
5.62111
5.61308
5.60446
5.59713
1.40001
1.40001
1.40001
1.40001
1.40001
1.40001
1.40001
1.40001
1.40001
1.40001
1.40001
1.40001
1.40001
1.40001
1.40001
1.40001
1.40001
1.40001
1.40001
1.40001
1.40001
1.40001
1.40001
1.40001
1.40001
1.40001
1.40001
1.40001
1.40001
1.40001
1.40001
1.40001
1.40001
1.40001
1.40001
1.40001
1.40001
1.40001
1.40001
1.40001
1.40001
1.40001
1.40001
1.40001
1.40001
1.40001
1.40001
1.40001
1.40001
1.40001
1.44376
3.97966
5.38456
5.39596
5.39893
5.40781
5.41753
5.43
5.4439
5.45763
5.47
5.48083
5.48979
5.49785
5.50627
5.51486
5.52376
5.53284
5.54063
5.54683
5.55158
5.55537
5.55919
5.56339
5.56772
5.57178
5.57509
5.57712
5.57725
5.57467
5.5703
5.56549
5.56158
5.55819
5.55378
5.54656
5.53582
5.52227
5.50745
5.49234
5.47673
5.46038
5.44558
5.43189
5.42481
5.42123
1.40001
1.40001
1.40001
1.40001
1.40001
1.40001
1.40001
1.40001
1.40001
1.40001
1.40001
1.40001
1.40001
1.40001
1.40001
1.40001
1.40001
1.40001
1.40001
1.40001
1.40001
1.40001
1.40001
1.40001
1.40001
1.40001
1.40001
1.40001
1.40001
1.40001
1.40001
1.40001
1.40001
1.40001
1.40001
1.40001
1.40001
1.40001
1.40001
1.40001
1.40001
1.40001
1.40001
1.40001
1.40001
1.40001
1.40001
1.40001
1.40001
1.40001
1.40006
2.62469
5.06328
5.34313
5.35081
5.36813
5.38123
5.39579
5.41072
5.42497
5.43738
5.44758
5.45567
5.46211
5.46827
5.47474
5.48144
5.48826
5.49455
5.49948
5.50301
5.50503
5.5059
5.50628
5.50633
5.50638
5.50612
5.50538
5.50289
5.49722
5.48834
5.47781
5.46683
5.4556
5.44303
5.42731
5.40722
5.38308
5.3567
5.33047
5.30526
5.28022
5.24698
5.20716
5.14866
5.16748
1.40001
1.40001
1.40001
1.40001
1.40001
1.40001
1.40001
1.40001
1.40001
1.40001
1.40001
1.40001
1.40001
1.40001
1.40001
1.40001
1.40001
1.40001
1.40001
1.40001
1.40001
1.40001
1.40001
1.40001
1.40001
1.40001
1.40001
1.40001
1.40001
1.40001
1.40001
1.40001
1.40001
1.40001
1.40001
1.40001
1.40001
1.40001
1.40001
1.40001
1.40001
1.40001
1.40001
1.40001
1.40001
1.40001
1.40001
1.40001
1.40001
1.40001
1.40001
1.54578
4.34416
5.38512
5.3665
5.3721
5.38027
5.38934
5.39941
5.40923
5.41767
5.42402
5.42872
5.43236
5.43572
5.43954
5.4433
5.44676
5.45019
5.45311
5.45508
5.45591
5.45479
5.45194
5.44804
5.44385
5.43949
5.43493
5.42899
5.4196
5.4067
5.39087
5.37286
5.35306
5.33095
5.305
5.27286
5.23308
5.1842
5.12651
5.0542
4.96038
4.81659
4.59145
4.1822
3.28558
1.40001
1.40001
1.40001
1.40001
1.40001
1.40001
1.40001
1.40001
1.40001
1.40001
1.40001
1.40001
1.40001
1.40001
1.40001
1.40001
1.40001
1.40001
1.40001
1.40001
1.40001
1.40001
1.40001
1.40001
1.40001
1.40001
1.40001
1.40001
1.40001
1.40001
1.40001
1.40001
1.40001
1.40001
1.40001
1.40001
1.40001
1.40001
1.40001
1.40001
1.40001
1.40001
1.40001
1.40001
1.40001
1.40001
1.40001
1.40001
1.40001
1.40001
1.40001
1.40115
3.21073
5.2088
5.31455
5.3319
5.34593
5.35707
5.36849
5.3788
5.38719
5.39334
5.3973
5.40003
5.40246
5.40531
5.40815
5.41016
5.41084
5.41032
5.40944
5.40851
5.40649
5.40236
5.39614
5.38864
5.38036
5.37161
5.36156
5.34868
5.33222
5.31197
5.28801
5.26065
5.22944
5.19354
5.14925
5.09459
5.02405
4.93859
4.82773
4.68951
4.4881
4.21815
3.68768
2.92368
1.40001
1.40001
1.40001
1.40001
1.40001
1.40001
1.40001
1.40001
1.40001
1.40001
1.40001
1.40001
1.40001
1.40001
1.40001
1.40001
1.40001
1.40001
1.40001
1.40001
1.40001
1.40001
1.40001
1.40001
1.40001
1.40001
1.40001
1.40001
1.40001
1.40001
1.40001
1.40001
1.40001
1.40001
1.40001
1.40001
1.40001
1.40001
1.40001
1.40001
1.40001
1.40001
1.40001
1.40001
1.40001
1.40001
1.40001
1.40001
1.40001
1.40001
1.40001
1.4
1.94808
4.74234
5.34003
5.3269
5.33442
5.34324
5.354
5.36354
5.37063
5.3751
5.3769
5.37718
5.37726
5.37803
5.37922
5.37975
5.378
5.37408
5.36962
5.36532
5.36083
5.35403
5.34451
5.33321
5.32079
5.30763
5.29311
5.27607
5.25522
5.23011
5.19996
5.16534
5.12521
5.07952
5.02379
4.95588
4.86902
4.76234
4.6292
4.46081
4.24549
3.93238
3.48927
2.97294
1.40001
1.40001
1.40001
1.40001
1.40001
1.40001
1.40001
1.40001
1.40001
1.40001
1.40001
1.40001
1.40001
1.40001
1.40001
1.40001
1.40001
1.40001
1.40001
1.40001
1.40001
1.40001
1.40001
1.40001
1.40001
1.40001
1.40001
1.40001
1.40001
1.40001
1.40001
1.40001
1.40001
1.40001
1.40001
1.40001
1.40001
1.40001
1.40001
1.40001
1.40001
1.40001
1.40001
1.40001
1.40001
1.40001
1.40001
1.40001
1.40001
1.40001
1.40001
1.4
1.42279
3.55438
5.25569
5.30505
5.31662
5.32468
5.335
5.34424
5.35098
5.35505
5.3564
5.35525
5.35227
5.34916
5.34702
5.34531
5.34203
5.33668
5.32989
5.32272
5.31509
5.30478
5.29143
5.27609
5.25961
5.24239
5.22374
5.20275
5.17742
5.14733
5.11099
5.06941
5.02142
4.96721
4.90295
4.82552
4.72948
4.61148
4.46836
4.29079
4.07053
3.7894
3.45772
3.07144
1.40001
1.40001
1.40001
1.40001
1.40001
1.40001
1.40001
1.40001
1.40001
1.40001
1.40001
1.40001
1.40001
1.40001
1.40001
1.40001
1.40001
1.40001
1.40001
1.40001
1.40001
1.40001
1.40001
1.40001
1.40001
1.40001
1.40001
1.40001
1.40001
1.40001
1.40001
1.40001
1.40001
1.40001
1.40001
1.40001
1.40001
1.40001
1.40001
1.40001
1.40001
1.40001
1.40001
1.40001
1.40001
1.40001
1.40001
1.40001
1.40001
1.40001
1.40001
1.40001
1.39999
2.10845
4.83
5.30021
5.29746
5.30549
5.31452
5.32353
5.33006
5.33398
5.33567
5.33446
5.32965
5.32344
5.31758
5.3125
5.3074
5.30155
5.29381
5.28441
5.27344
5.25892
5.24114
5.22138
5.20053
5.17936
5.15679
5.13207
5.10265
5.06786
5.02595
4.97792
4.92326
4.8621
4.79188
4.70917
4.60987
4.48946
4.34927
4.1723
3.97077
3.73159
3.47092
3.17596
1.40001
1.40001
1.40001
1.40001
1.40001
1.40001
1.40001
1.40001
1.40001
1.40001
1.40001
1.40001
1.40001
1.40001
1.40001
1.40001
1.40001
1.40001
1.40001
1.40001
1.40001
1.40001
1.40001
1.40001
1.40001
1.40001
1.40001
1.40001
1.40001
1.40001
1.40001
1.40001
1.40001
1.40001
1.40001
1.40001
1.40001
1.40001
1.40001
1.40001
1.40001
1.40001
1.40001
1.40001
1.40001
1.40001
1.40001
1.40001
1.40001
1.40001
1.40001
1.40001
1.4
1.43598
3.61659
5.22496
5.27456
5.28669
5.29417
5.3015
5.30652
5.30882
5.31042
5.30999
5.30542
5.29859
5.29051
5.28227
5.27481
5.26778
5.25876
5.24715
5.23308
5.21494
5.1935
5.17008
5.145
5.11946
5.09251
5.06379
5.03096
4.99276
4.9472
4.89433
4.83427
4.76745
4.69247
4.60714
4.50834
4.39186
4.25792
4.09612
3.91951
3.71575
3.50492
3.26549
1.40001
1.40001
1.40001
1.40001
1.40001
1.40001
1.40001
1.40001
1.40001
1.40001
1.40001
1.40001
1.40001
1.40001
1.40001
1.40001
1.40001
1.40001
1.40001
1.40001
1.40001
1.40001
1.40001
1.40001
1.40001
1.40001
1.40001
1.40001
1.40001
1.40001
1.40001
1.40001
1.40001
1.40001
1.40001
1.40001
1.40001
1.40001
1.40001
1.40001
1.40001
1.40001
1.40001
1.40001
1.40001
1.40001
1.40001
1.40001
1.40001
1.40001
1.40001
1.40001
1.4
1.40003
2.03954
4.77441
5.26683
5.26751
5.27334
5.27752
5.27783
5.27601
5.27611
5.27436
5.2691
5.26317
5.25684
5.24939
5.24186
5.23426
5.22386
5.20979
5.19224
5.17069
5.14627
5.12051
5.09279
5.06375
5.03269
4.99955
4.96324
4.92251
4.87528
4.82028
4.75744
4.68723
4.60921
4.52243
4.42591
4.31418
4.18908
4.04703
3.89209
3.72006
3.53799
3.34126
1.40001
1.40001
1.40001
1.40001
1.40001
1.40001
1.40001
1.40001
1.40001
1.40001
1.40001
1.40001
1.40001
1.40001
1.40001
1.40001
1.40001
1.40001
1.40001
1.40001
1.40001
1.40001
1.40001
1.40001
1.40001
1.40001
1.40001
1.40001
1.40001
1.40001
1.40001
1.40001
1.40001
1.40001
1.40001
1.40001
1.40001
1.40001
1.40001
1.40001
1.40001
1.40001
1.40001
1.40001
1.40001
1.40001
1.40001
1.40001
1.40001
1.40001
1.40001
1.40001
1.40001
1.40001
1.42672
3.37994
5.12948
5.2392
5.24418
5.2504
5.2522
5.25188
5.25116
5.24662
5.23914
5.23194
5.22578
5.21849
5.21059
5.20183
5.18997
5.17391
5.15365
5.12979
5.10291
5.07523
5.04573
5.01432
4.9799
4.94228
4.90172
4.85797
4.80939
4.75402
4.69092
4.62005
4.54192
4.45432
4.36075
4.25253
4.13737
4.01087
3.87525
3.72571
3.57081
3.40269
1.40001
1.40001
1.40001
1.40001
1.40001
1.40001
1.40001
1.40001
1.40001
1.40001
1.40001
1.40001
1.40001
1.40001
1.40001
1.40001
1.40001
1.40001
1.40001
1.40001
1.40001
1.40001
1.40001
1.40001
1.40001
1.40001
1.40001
1.40001
1.40001
1.40001
1.40001
1.40001
1.40001
1.40001
1.40001
1.40001
1.40001
1.40001
1.40001
1.40001
1.40001
1.40001
1.40001
1.40001
1.40001
1.40001
1.40001
1.40001
1.40001
1.40001
1.40001
1.40001
1.40001
1.40001
1.40002
1.7418
4.52533
5.26473
5.24813
5.24041
5.23438
5.22955
5.22277
5.21314
5.20309
5.19525
5.18922
5.18253
5.17393
5.16376
5.15069
5.13363
5.11234
5.08753
5.05932
5.03027
4.99964
4.96741
4.93165
4.89141
4.84733
4.80024
4.7498
4.6946
4.63293
4.5641
4.48911
4.40258
4.31132
4.20872
4.10125
3.98582
3.86412
3.73281
3.5984
3.45115
1.40001
1.40001
1.40001
1.40001
1.40001
1.40001
1.40001
1.40001
1.40001
1.40001
1.40001
1.40001
1.40001
1.40001
1.40001
1.40001
1.40001
1.40001
1.40001
1.40001
1.40001
1.40001
1.40001
1.40001
1.40001
1.40001
1.40001
1.40001
1.40001
1.40001
1.40001
1.40001
1.40001
1.40001
1.40001
1.40001
1.40001
1.40001
1.40001
1.40001
1.40001
1.40001
1.40001
1.40001
1.40001
1.40001
1.40001
1.40001
1.40001
1.40001
1.40001
1.40001
1.40001
1.40001
1.40001
1.40649
2.9407
5.01061
5.19533
5.20282
5.20707
5.20204
5.19465
5.18216
5.16911
5.15901
5.15143
5.14389
5.13465
5.12338
5.10948
5.09262
5.07093
5.04576
5.01768
4.98834
4.95678
4.92407
4.88803
4.84725
4.8015
4.75162
4.69831
4.64203
4.58157
4.5152
4.44438
4.36151
4.2743
4.1789
4.07664
3.9708
3.85864
3.74221
3.6211
3.49193
1.40001
1.40001
1.40001
1.40001
1.40001
1.40001
1.40001
1.40001
1.40001
1.40001
1.40001
1.40001
1.40001
1.40001
1.40001
1.40001
1.40001
1.40001
1.40001
1.40001
1.40001
1.40001
1.40001
1.40001
1.40001
1.40001
1.40001
1.40001
1.40001
1.40001
1.40001
1.40001
1.40001
1.40001
1.40001
1.40001
1.40001
1.40001
1.40001
1.40001
1.40001
1.40001
1.40001
1.40001
1.40001
1.40001
1.40001
1.40001
1.40001
1.40001
1.40001
1.40001
1.40001
1.40001
1.40001
1.40001
1.55558
3.97179
5.1711
5.18688
5.18869
5.18074
5.17338
5.16022
5.14502
5.132
5.1216
5.11181
5.10125
5.08829
5.07248
5.05506
5.03244
5.00626
4.97859
4.94922
4.91675
4.88313
4.8466
4.80623
4.7611
4.7102
4.65583
4.59821
4.53854
4.47328
4.40541
4.32767
4.24589
4.1574
4.06085
3.96398
3.85988
3.75397
3.64259
3.52843
1.40001
1.40001
1.40001
1.40001
1.40001
1.40001
1.40001
1.40001
1.40001
1.40001
1.40001
1.40001
1.40001
1.40001
1.40001
1.40001
1.40001
1.40001
1.40001
1.40001
1.40001
1.40001
1.40001
1.40001
1.40001
1.40001
1.40001
1.40001
1.40001
1.40001
1.40001
1.40001
1.40001
1.40001
1.40001
1.40001
1.40001
1.40001
1.40001
1.40001
1.40001
1.40001
1.40001
1.40001
1.40001
1.40001
1.40001
1.40001
1.40001
1.40001
1.40001
1.40001
1.40001
1.40001
1.40001
1.40001
1.4012
2.10318
4.74689
5.1909
5.15675
5.1551
5.1475
5.13617
5.12211
5.10783
5.09524
5.08288
5.07018
5.05541
5.03713
5.0182
4.99461
4.96721
4.93881
4.90961
4.877
4.84284
4.80601
4.76631
4.72273
4.67209
4.62058
4.56197
4.5021
4.43735
4.3711
4.29817
4.22209
4.13978
4.05037
3.96135
3.86378
3.76732
3.66556
3.56276
1.40001
1.40001
1.40001
1.40001
1.40001
1.40001
1.40001
1.40001
1.40001
1.40001
1.40001
1.40001
1.40001
1.40001
1.40001
1.40001
1.40001
1.40001
1.40001
1.40001
1.40001
1.40001
1.40001
1.40001
1.40001
1.40001
1.40001
1.40001
1.40001
1.40001
1.40001
1.40001
1.40001
1.40001
1.40001
1.40001
1.40001
1.40001
1.40001
1.40001
1.40001
1.40001
1.40001
1.40001
1.40001
1.40001
1.40001
1.40001
1.40001
1.40001
1.40001
1.40001
1.40001
1.40001
1.40001
1.40001
1.40001
1.42937
3.08568
5.04367
5.13197
5.1281
5.12591
5.11596
5.10323
5.08866
5.07484
5.06052
5.04575
5.02888
5.00822
4.98628
4.96208
4.93283
4.9031
4.87326
4.84087
4.80632
4.76934
4.73013
4.68804
4.63915
4.58719
4.53087
4.47223
4.40926
4.34453
4.27448
4.20291
4.12558
4.04341
3.96059
3.86973
3.78195
3.68848
3.59474
1.40001
1.40001
1.40001
1.40001
1.40001
1.40001
1.40001
1.40001
1.40001
1.40001
1.40001
1.40001
1.40001
1.40001
1.40001
1.40001
1.40001
1.40001
1.40001
1.40001
1.40001
1.40001
1.40001
1.40001
1.40001
1.40001
1.40001
1.40001
1.40001
1.40001
1.40001
1.40001
1.40001
1.40001
1.40001
1.40001
1.40001
1.40001
1.40001
1.40001
1.40001
1.40001
1.40001
1.40001
1.40001
1.40001
1.40001
1.40001
1.40001
1.40001
1.40001
1.40001
1.40001
1.40001
1.40001
1.40001
1.40001
1.40007
1.57517
3.77806
5.09313
5.13181
5.11862
5.10934
5.09571
5.07905
5.06162
5.04458
5.02682
5.00755
4.98447
4.95946
4.93412
4.9039
4.8727
4.84139
4.80878
4.77364
4.73632
4.69756
4.65589
4.60817
4.55698
4.50232
4.44532
4.38469
4.32283
4.25569
4.1881
4.11563
4.0396
3.96109
3.87765
3.79641
3.70925
3.62239
1.40001
1.40001
1.40001
1.40001
1.40001
1.40001
1.40001
1.40001
1.40001
1.40001
1.40001
1.40001
1.40001
1.40001
1.40001
1.40001
1.40001
1.40001
1.40001
1.40001
1.40001
1.40001
1.40001
1.40001
1.40001
1.40001
1.40001
1.40001
1.40001
1.40001
1.40001
1.40001
1.40001
1.40001
1.40001
1.40001
1.40001
1.40001
1.40001
1.40001
1.40001
1.40001
1.40001
1.40001
1.40001
1.40001
1.40001
1.40001
1.40001
1.40001
1.40001
1.40001
1.40001
1.40001
1.40001
1.40001
1.40001
1.40001
1.40161
1.79423
4.48576
5.16735
5.13233
5.1106
5.08646
5.06495
5.04479
5.02542
5.00663
4.98611
4.96122
4.93435
4.90737
4.87669
4.84471
4.81223
4.77966
4.74487
4.70788
4.66946
4.62789
4.5808
4.53026
4.47708
4.42166
4.36355
4.3046
4.24102
4.17741
4.11012
4.03945
3.96484
3.88803
3.8111
3.72955
3.64796
1.40001
1.40001
1.40001
1.40001
1.40001
1.40001
1.40001
1.40001
1.40001
1.40001
1.40001
1.40001
1.40001
1.40001
1.40001
1.40001
1.40001
1.40001
1.40001
1.40001
1.40001
1.40001
1.40001
1.40001
1.40001
1.40001
1.40001
1.40001
1.40001
1.40001
1.40001
1.40001
1.40001
1.40001
1.40001
1.40001
1.40001
1.40001
1.40001
1.40001
1.40001
1.40001
1.40001
1.40001
1.40001
1.40001
1.40001
1.40001
1.40001
1.40001
1.40001
1.40001
1.40001
1.40001
1.40001
1.40001
1.40001
1.40001
1.40001
1.40843
2.57409
4.89591
5.10131
5.07131
5.05244
5.03546
5.01964
5.00234
4.9834
4.96308
4.93786
4.91141
4.88407
4.85348
4.82173
4.78865
4.75469
4.71978
4.68324
4.6448
4.60319
4.55733
4.50776
4.45564
4.40145
4.34539
4.28841
4.22847
4.16867
4.10613
4.04017
3.97025
3.8987
3.82546
3.7488
3.67203
1.40001
1.40001
1.40001
1.40001
1.40001
1.40001
1.40001
1.40001
1.40001
1.40001
1.40001
1.40001
1.40001
1.40001
1.40001
1.40001
1.40001
1.40001
1.40001
1.40001
1.40001
1.40001
1.40001
1.40001
1.40001
1.40001
1.40001
1.40001
1.40001
1.40001
1.40001
1.40001
1.40001
1.40001
1.40001
1.40001
1.40001
1.40001
1.40001
1.40001
1.40001
1.40001
1.40001
1.40001
1.40001
1.40001
1.40001
1.40001
1.40001
1.40001
1.40001
1.40001
1.40001
1.40001
1.40001
1.40001
1.40001
1.40001
1.40001
1.40002
1.48025
3.20563
4.98204
5.03803
5.02551
5.02267
5.01277
4.99759
4.97837
4.9565
4.92967
4.90201
4.8725
4.84043
4.80731
4.77337
4.73778
4.70093
4.66451
4.62608
4.58408
4.53848
4.48978
4.43872
4.38585
4.33173
4.27644
4.2195
4.16286
4.10363
4.04137
3.97596
3.9088
3.83931
3.7671
3.6952
1.40001
1.40001
1.40001
1.40001
1.40001
1.40001
1.40001
1.40001
1.40001
1.40001
1.40001
1.40001
1.40001
1.40001
1.40001
1.40001
1.40001
1.40001
1.40001
1.40001
1.40001
1.40001
1.40001
1.40001
1.40001
1.40001
1.40001
1.40001
1.40001
1.40001
1.40001
1.40001
1.40001
1.40001
1.40001
1.40001
1.40001
1.40001
1.40001
1.40001
1.40001
1.40001
1.40001
1.40001
1.40001
1.40001
1.40001
1.40001
1.40001
1.40001
1.40001
1.40001
1.40001
1.40001
1.40001
1.40001
1.40001
1.40001
1.40001
1.40001
1.40043
1.60121
3.59404
4.98528
5.01413
5.01013
5.0025
4.98814
4.97014
4.94821
4.92221
4.89354
4.86268
4.83033
4.79674
4.76217
4.72607
4.68749
4.64904
4.61101
4.5692
4.52375
4.47574
4.42586
4.37448
4.32216
4.26845
4.21357
4.15911
4.10182
4.04219
3.98053
3.91676
3.85077
3.78281
3.71572
1.40001
1.40001
1.40001
1.40001
1.40001
1.40001
1.40001
1.40001
1.40001
1.40001
1.40001
1.40001
1.40001
1.40001
1.40001
1.40001
1.40001
1.40001
1.40001
1.40001
1.40001
1.40001
1.40001
1.40001
1.40001
1.40001
1.40001
1.40001
1.40001
1.40001
1.40001
1.40001
1.40001
1.40001
1.40001
1.40001
1.40001
1.40001
1.40001
1.40001
1.40001
1.40001
1.40001
1.40001
1.40001
1.40001
1.40001
1.40001
1.40001
1.40001
1.40001
1.40001
1.40001
1.40001
1.40001
1.40001
1.40001
1.40001
1.40001
1.40001
1.40001
1.40226
1.72428
3.91118
5.0141
5.01251
4.99633
4.97868
4.95905
4.93625
4.9116
4.88455
4.85498
4.82317
4.7897
4.75465
4.71817
4.67966
4.64039
4.60144
4.55998
4.51521
4.46785
4.41867
4.36831
4.31732
4.26494
4.21114
4.15738
4.10085
4.04286
3.98456
3.92399
3.86155
3.79778
3.73488
1.40001
1.40001
1.40001
1.40001
1.40001
1.40001
1.40001
1.40001
1.40001
1.40001
1.40001
1.40001
1.40001
1.40001
1.40001
1.40001
1.40001
1.40001
1.40001
1.40001
1.40001
1.40001
1.40001
1.40001
1.40001
1.40001
1.40001
1.40001
1.40001
1.40001
1.40001
1.40001
1.40001
1.40001
1.40001
1.40001
1.40001
1.40001
1.40001
1.40001
1.40001
1.40001
1.40001
1.40001
1.40001
1.40001
1.40001
1.40001
1.40001
1.40001
1.40001
1.40001
1.40001
1.40001
1.40001
1.40001
1.40001
1.40001
1.40001
1.40001
1.40001
1.40001
1.40573
1.86038
4.19178
5.01915
5.00374
4.98007
4.95413
4.92889
4.90201
4.87412
4.84459
4.81359
4.78098
4.74635
4.7101
4.67238
4.63378
4.59439
4.55294
4.50899
4.46274
4.41459
4.36518
4.31512
4.26368
4.21064
4.1571
4.10132
4.04537
3.99013
3.9323
3.87302
3.81279
3.75339
1.40001
1.40001
1.40001
1.40001
1.40001
1.40001
1.40001
1.40001
1.40001
1.40001
1.40001
1.40001
1.40001
1.40001
1.40001
1.40001
1.40001
1.40001
1.40001
1.40001
1.40001
1.40001
1.40001
1.40001
1.40001
1.40001
1.40001
1.40001
1.40001
1.40001
1.40001
1.40001
1.40001
1.40001
1.40001
1.40001
1.40001
1.40001
1.40001
1.40001
1.40001
1.40001
1.40001
1.40001
1.40001
1.40001
1.40001
1.40001
1.40001
1.40001
1.40001
1.40001
1.40001
1.40001
1.40001
1.40001
1.40001
1.40001
1.40001
1.40001
1.40001
1.40001
1.40002
1.41146
2.01358
4.39427
5.02933
5.0034
4.97141
4.93789
4.90633
4.87435
4.84065
4.80748
4.7737
4.73875
4.70288
4.66621
4.62883
4.59017
4.54939
4.5063
4.4611
4.41412
4.36556
4.31606
4.26536
4.21308
4.15985
4.10564
4.0523
3.99949
3.94387
3.88732
3.8298
3.77289
1.40001
1.40001
1.40001
1.40001
1.40001
1.40001
1.40001
1.40001
1.40001
1.40001
1.40001
1.40001
1.40001
1.40001
1.40001
1.40001
1.40001
1.40001
1.40001
1.40001
1.40001
1.40001
1.40001
1.40001
1.40001
1.40001
1.40001
1.40001
1.40001
1.40001
1.40001
1.40001
1.40001
1.40001
1.40001
1.40001
1.40001
1.40001
1.40001
1.40001
1.40001
1.40001
1.40001
1.40001
1.40001
1.40001
1.40001
1.40001
1.40001
1.40001
1.40001
1.40001
1.40001
1.40001
1.40001
1.40001
1.40001
1.40001
1.40001
1.40001
1.40001
1.40001
1.40001
1.40004
1.42037
2.16026
4.57374
5.02732
4.99596
4.96038
4.9199
4.8815
4.84449
4.80799
4.77106
4.73466
4.69829
4.66175
4.6247
4.58635
4.546
4.50347
4.45916
4.41344
4.36626
4.31801
4.26865
4.21796
4.16621
4.11407
4.06288
4.0117
3.95792
3.90321
3.84726
3.7916
1.40001
1.40001
1.40001
1.40001
1.40001
1.40001
1.40001
1.40001
1.40001
1.40001
1.40001
1.40001
1.40001
1.40001
1.40001
1.40001
1.40001
1.40001
1.40001
1.40001
1.40001
1.40001
1.40001
1.40001
1.40001
1.40001
1.40001
1.40001
1.40001
1.40001
1.40001
1.40001
1.40001
1.40001
1.40001
1.40001
1.40001
1.40001
1.40001
1.40001
1.40001
1.40001
1.40001