/*--------------------------------*- C++ -*----------------------------------*\
  =========                 |
  \\      /  F ield         | OpenFOAM: The Open Source CFD Toolbox
   \\    /   O peration     | Website:  https://openfoam.org
    \\  /    A nd           | Version:  7
     \\/     M anipulation  |
\*---------------------------------------------------------------------------*/
FoamFile
{
    version     2.0;
    format      ascii;
    class       volVectorField;
    location    "7.1";
    object      U;
}
// * * * * * * * * * * * * * * * * * * * * * * * * * * * * * * * * * * * * * //

dimensions      [0 1 -1 0 0 0 0];

internalField   nonuniform List<vector> 
19968
(
(3 2.03151e-17 0)
(3 2.45328e-16 0)
(3 8.3658e-16 0)
(3 7.1208e-16 0)
(3 2.44548e-16 0)
(3 -3.64958e-16 0)
(3 -2.68718e-16 0)
(3 3.48415e-16 0)
(3 4.33948e-16 0)
(3 5.38917e-16 0)
(3 7.05389e-16 0)
(3 8.51969e-16 0)
(3 7.35168e-16 0)
(3 3.83233e-16 0)
(3 7.03251e-16 0)
(3 7.35757e-16 0)
(3 4.89671e-16 0)
(3 7.04569e-17 0)
(3 -6.20609e-16 0)
(3 -1.03898e-15 0)
(3 -1.20467e-15 0)
(3 -1.09998e-15 0)
(3 -8.11064e-16 0)
(3 -7.43138e-16 0)
(3 -6.30183e-16 0)
(3 -5.96733e-16 0)
(3 -6.31241e-16 0)
(3 3.71695e-16 0)
(3 5.73657e-16 0)
(3 4.33315e-16 0)
(3 2.23116e-16 0)
(3 3.92813e-17 0)
(3 -1.07699e-15 0)
(3 -1.22355e-15 0)
(3 -1.21281e-15 0)
(3 -1.15226e-15 0)
(3 -3.3105e-16 0)
(3 2.16295e-16 0)
(3 -6.59087e-17 0)
(3 -1.07397e-16 0)
(3 3.37469e-16 0)
(3 1.39807e-16 0)
(3 2.12656e-16 0)
(3 4.25464e-16 0)
(3 5.25597e-16 0)
(3 1.65086e-15 0)
(3 2.63729e-15 0)
(3 1.52072e-15 0)
(2.79576 0.00214017 0)
(0.965749 0.00609248 0)
(0.760287 0.00382692 0)
(0.7485 0.00965964 0)
(0.729119 0.0104866 0)
(0.711808 0.0100475 0)
(0.695531 0.00876785 0)
(0.6812 0.00767659 0)
(0.667989 0.00752026 0)
(0.654414 0.00828183 0)
(0.639159 0.00953746 0)
(0.62211 0.0103132 0)
(0.604946 0.00975653 0)
(0.58941 0.00876561 0)
(0.57523 0.00868983 0)
(0.561121 0.00927525 0)
(0.546375 0.00961026 0)
(0.531099 0.00957756 0)
(0.51537 0.00965059 0)
(0.499274 0.00986889 0)
(0.483244 0.00998119 0)
(0.467612 0.00998372 0)
(0.452206 0.0100519 0)
(0.436567 0.010224 0)
(0.420349 0.0103941 0)
(0.403632 0.0104937 0)
(0.386834 0.0105593 0)
(0.37037 0.010649 0)
(0.354398 0.0107734 0)
(0.338783 0.0109091 0)
(0.32323 0.0110335 0)
(0.307422 0.0111427 0)
(0.291109 0.0112457 0)
(0.274185 0.0113487 0)
(0.256739 0.0114543 0)
(0.238998 0.0115707 0)
(0.221168 0.0117122 0)
(0.203322 0.0118881 0)
(0.185429 0.0120966 0)
(0.167402 0.0123297 0)
(0.149163 0.0125821 0)
(0.130702 0.0128524 0)
(0.112059 0.0131452 0)
(0.0931884 0.013455 0)
(0.0739173 0.0138037 0)
(0.0537411 0.0141936 0)
(0.0328434 0.0144613 0)
(0.0110728 0.0148865 0)
(3 -2.72575e-16 0)
(3 -1.37579e-16 0)
(3 5.40382e-16 0)
(3 4.32216e-16 0)
(3 1.48089e-16 0)
(3 -4.19471e-16 0)
(3 -2.42369e-16 0)
(3 4.59481e-16 0)
(3 6.39884e-16 0)
(3 5.35893e-16 0)
(3 3.64891e-16 0)
(3 3.05756e-16 0)
(3 2.33167e-16 0)
(3 7.44128e-16 0)
(3 9.483e-16 0)
(3 5.18811e-16 0)
(3 -4.15394e-17 0)
(3 -6.72354e-16 0)
(3 -9.65736e-16 0)
(3 -3.71638e-16 0)
(3 -4.7491e-16 0)
(3 -5.22437e-16 0)
(3 -1.57339e-15 0)
(3 -2.10269e-15 0)
(3 -1.79794e-15 0)
(3 -1.5177e-15 0)
(3 -1.19771e-15 0)
(3 3.6455e-16 0)
(3 8.56713e-16 0)
(3 4.35357e-16 0)
(3 -3.56791e-16 0)
(3 -1.3367e-15 0)
(3 -1.78655e-15 0)
(3 -1.7836e-15 0)
(3 -1.81157e-15 0)
(3 -2.29389e-15 0)
(3 -2.13899e-15 0)
(3 -1.39805e-15 0)
(3 -1.15438e-15 0)
(3 -1.05338e-15 0)
(3 -7.45295e-16 0)
(3 -9.73601e-16 0)
(3 -3.37109e-16 0)
(3 3.35833e-16 0)
(3 -7.22905e-17 0)
(3 4.09246e-16 0)
(3 1.30657e-15 0)
(3 5.86549e-16 0)
(2.81074 0.0125277 0)
(0.971103 0.0289163 0)
(0.755751 0.019258 0)
(0.741942 0.0270006 0)
(0.72452 0.0295358 0)
(0.708278 0.0291568 0)
(0.692592 0.0264567 0)
(0.678109 0.0236044 0)
(0.664299 0.0229154 0)
(0.650326 0.0248282 0)
(0.635188 0.0282015 0)
(0.618567 0.0303108 0)
(0.601964 0.0291598 0)
(0.586594 0.026873 0)
(0.572121 0.026686 0)
(0.557828 0.0282838 0)
(0.542944 0.0291745 0)
(0.527607 0.0290459 0)
(0.511856 0.0292676 0)
(0.495776 0.0299577 0)
(0.479744 0.0303585 0)
(0.464053 0.0304321 0)
(0.448543 0.0306437 0)
(0.432811 0.0311054 0)
(0.416549 0.0315626 0)
(0.399825 0.0318599 0)
(0.383022 0.0320943 0)
(0.366538 0.0324039 0)
(0.350533 0.0328061 0)
(0.334875 0.0332339 0)
(0.319264 0.0336189 0)
(0.303383 0.0339428 0)
(0.286994 0.0342328 0)
(0.270012 0.0345193 0)
(0.252547 0.0348246 0)
(0.234834 0.0351787 0)
(0.217066 0.0356154 0)
(0.199314 0.0361494 0)
(0.181538 0.0367717 0)
(0.163647 0.0374694 0)
(0.145562 0.0382419 0)
(0.127276 0.0390892 0)
(0.108847 0.0400124 0)
(0.0902599 0.0409762 0)
(0.0713853 0.0420151 0)
(0.0517798 0.0431513 0)
(0.0315574 0.0438891 0)
(0.0106264 0.0450485 0)
(3 -6.50638e-17 0)
(3 -1.77689e-16 0)
(3 -3.43777e-16 0)
(3 -1.50156e-16 0)
(3 -1.18625e-16 0)
(3 1.51831e-16 0)
(3 3.21603e-16 0)
(3 9.10384e-18 0)
(3 -5.7281e-16 0)
(3 -1.66642e-15 0)
(3 -2.08292e-15 0)
(3 -1.94613e-15 0)
(3 -6.89176e-16 0)
(3 -5.10553e-16 0)
(3 -6.82606e-16 0)
(3 -6.91079e-16 0)
(3 -1.13709e-15 0)
(3 -5.42548e-16 0)
(3 -1.31687e-16 0)
(3 -4.9044e-16 0)
(3 -1.57817e-16 0)
(3 -9.46176e-16 0)
(3 -9.795e-16 0)
(3 -9.01939e-16 0)
(3 -1.20819e-15 0)
(3 -9.65163e-16 0)
(3 -6.70648e-16 0)
(3 5.98119e-16 0)
(3 1.16005e-15 0)
(3 -4.19362e-16 0)
(3 -6.58946e-16 0)
(3 -1.10117e-15 0)
(3 -7.92592e-16 0)
(3 -7.88379e-16 0)
(3 -9.54618e-16 0)
(3 -2.20335e-15 0)
(3 -2.65015e-15 0)
(3 -1.85658e-15 0)
(3 -9.70355e-16 0)
(3 -1.1347e-15 0)
(3 -2.23651e-15 0)
(3 -3.35155e-15 0)
(3 -2.1664e-15 0)
(3 -1.32437e-15 0)
(3 -1.00886e-15 0)
(3 -1.25868e-15 0)
(3 -6.78217e-16 0)
(3 -3.81854e-16 0)
(2.84769 0.0203521 0)
(0.988707 0.0496543 0)
(0.759349 0.0373487 0)
(0.744275 0.0459185 0)
(0.727379 0.0488762 0)
(0.711591 0.0483371 0)
(0.696073 0.0451154 0)
(0.681054 0.0414745 0)
(0.666197 0.0405455 0)
(0.651418 0.0433468 0)
(0.636112 0.0481587 0)
(0.619655 0.0509983 0)
(0.603417 0.0493096 0)
(0.588083 0.0462273 0)
(0.573209 0.0461842 0)
(0.558628 0.0487336 0)
(0.543439 0.0501452 0)
(0.527856 0.0498962 0)
(0.511907 0.0502139 0)
(0.495712 0.0513146 0)
(0.479561 0.0519942 0)
(0.463705 0.052185 0)
(0.447985 0.0525834 0)
(0.432054 0.053336 0)
(0.415641 0.0540668 0)
(0.39881 0.0545702 0)
(0.381909 0.0549954 0)
(0.365313 0.0555278 0)
(0.349172 0.0561837 0)
(0.333353 0.0568721 0)
(0.317555 0.0574979 0)
(0.301475 0.0580338 0)
(0.284905 0.0585232 0)
(0.267801 0.0590159 0)
(0.250298 0.0595432 0)
(0.23261 0.0601416 0)
(0.2149 0.0608563 0)
(0.197216 0.0617084 0)
(0.179513 0.0626871 0)
(0.161697 0.0637779 0)
(0.143681 0.0649855 0)
(0.125449 0.0663091 0)
(0.107062 0.0677472 0)
(0.0885398 0.0692468 0)
(0.0698054 0.0708431 0)
(0.0505102 0.072616 0)
(0.0306905 0.0737086 0)
(0.01034 0.075485 0)
(3 2.02407e-16 0)
(3 -1.6949e-17 0)
(3 -3.02687e-16 0)
(3 -7.48236e-16 0)
(3 -4.96051e-16 0)
(3 -7.9581e-17 0)
(3 7.64952e-16 0)
(3 5.86899e-16 0)
(3 1.69937e-16 0)
(3 -1.13606e-15 0)
(3 -1.5648e-15 0)
(3 -1.24053e-15 0)
(3 -8.58107e-16 0)
(3 -9.66059e-16 0)
(3 -1.16593e-15 0)
(3 -1.14368e-15 0)
(3 -8.66589e-16 0)
(3 -2.67157e-16 0)
(3 -3.37753e-16 0)
(3 -1.39138e-15 0)
(3 -1.37974e-15 0)
(3 -1.09907e-15 0)
(3 7.53522e-18 0)
(3 7.12669e-16 0)
(3 3.59629e-16 0)
(3 1.46048e-16 0)
(3 -2.14122e-16 0)
(3 -2.23588e-17 0)
(3 -8.37914e-16 0)
(3 -7.6654e-16 0)
(3 -3.28764e-16 0)
(3 2.29716e-16 0)
(3 1.0292e-16 0)
(3 -1.69671e-16 0)
(3 -7.25154e-16 0)
(3 -7.169e-16 0)
(3 -1.17072e-17 0)
(3 7.98162e-16 0)
(3 1.0939e-15 0)
(3 6.67877e-16 0)
(3 3.73394e-16 0)
(3 -2.08217e-16 0)
(3 -1.79317e-16 0)
(3 -6.64414e-16 0)
(3 -2.73986e-16 0)
(3 2.29475e-16 0)
(3 3.99384e-16 0)
(3 8.62868e-16 0)
(2.89598 0.0237051 0)
(1.01361 0.0682735 0)
(0.76096 0.0574501 0)
(0.744414 0.0650995 0)
(0.728879 0.0676281 0)
(0.713993 0.0672178 0)
(0.699009 0.0645196 0)
(0.68388 0.0610939 0)
(0.668408 0.0601023 0)
(0.653075 0.0632797 0)
(0.637785 0.0687926 0)
(0.62167 0.0718521 0)
(0.605895 0.0699032 0)
(0.590698 0.0665865 0)
(0.575673 0.0668824 0)
(0.561092 0.0703088 0)
(0.54585 0.0722741 0)
(0.53021 0.0719748 0)
(0.514194 0.0723601 0)
(0.497994 0.0738083 0)
(0.48182 0.0747844 0)
(0.465865 0.0751874 0)
(0.449965 0.0758576 0)
(0.433819 0.0769233 0)
(0.417198 0.0779291 0)
(0.400166 0.0786728 0)
(0.383042 0.0793457 0)
(0.366174 0.0801405 0)
(0.3497 0.0810621 0)
(0.333477 0.0820116 0)
(0.317205 0.0828782 0)
(0.300598 0.0836191 0)
(0.283505 0.0842847 0)
(0.265956 0.0849428 0)
(0.248133 0.085636 0)
(0.230248 0.0864105 0)
(0.212434 0.0873307 0)
(0.194717 0.0884339 0)
(0.177049 0.0897138 0)
(0.15934 0.0911568 0)
(0.141498 0.0927719 0)
(0.123479 0.0945554 0)
(0.105318 0.0965034 0)
(0.0870252 0.0985591 0)
(0.0685216 0.100715 0)
(0.04958 0.103146 0)
(0.0300595 0.104579 0)
(0.0101713 0.106941 0)
(3 -1.97109e-17 0)
(3 -1.75533e-16 0)
(3 -1.2087e-17 0)
(3 -1.59776e-16 0)
(3 6.60116e-17 0)
(3 4.09028e-16 0)
(3 5.88697e-16 0)
(3 4.71177e-16 0)
(3 9.62618e-17 0)
(3 -1.64786e-16 0)
(3 9.44572e-17 0)
(3 2.53591e-17 0)
(3 -4.40138e-18 0)
(3 -1.00043e-16 0)
(3 -3.05358e-16 0)
(3 -4.9517e-16 0)
(3 -8.25012e-16 0)
(3 -8.31266e-16 0)
(3 -1.58363e-15 0)
(3 -7.27228e-16 0)
(3 -6.33348e-16 0)
(3 -2.60873e-16 0)
(3 -8.17711e-16 0)
(3 -1.1734e-15 0)
(3 -8.24869e-16 0)
(3 -5.89813e-16 0)
(3 -7.34777e-16 0)
(3 -1.10743e-15 0)
(3 -1.70914e-15 0)
(3 -1.56434e-15 0)
(3 -1.14957e-15 0)
(3 -9.67829e-16 0)
(3 -9.02419e-16 0)
(3 -4.08429e-16 0)
(3 -1.24264e-17 0)
(3 7.34517e-16 0)
(3 1.34345e-15 0)
(3 9.16712e-16 0)
(3 6.78826e-16 0)
(3 5.63756e-16 0)
(3 4.44391e-16 0)
(3 4.68257e-16 0)
(3 -8.8388e-17 0)
(3 -6.30567e-16 0)
(3 -1.07637e-15 0)
(3 -8.52925e-16 0)
(3 -1.46261e-16 0)
(3 2.72868e-16 0)
(2.94568 0.0271758 0)
(1.04219 0.0946267 0)
(0.762028 0.0815431 0)
(0.744797 0.0840204 0)
(0.731431 0.0855987 0)
(0.718077 0.0855039 0)
(0.704349 0.0839014 0)
(0.689853 0.0817011 0)
(0.674432 0.0813545 0)
(0.658781 0.0848182 0)
(0.643319 0.0903606 0)
(0.627351 0.0931873 0)
(0.611807 0.0911179 0)
(0.596644 0.0878984 0)
(0.581588 0.0886063 0)
(0.567222 0.0927767 0)
(0.552222 0.0953481 0)
(0.536783 0.0951652 0)
(0.520898 0.0956562 0)
(0.504834 0.0974007 0)
(0.488764 0.0987082 0)
(0.472828 0.0994751 0)
(0.456843 0.100595 0)
(0.440526 0.102095 0)
(0.423693 0.103465 0)
(0.406428 0.10457 0)
(0.389026 0.105647 0)
(0.371806 0.106851 0)
(0.354885 0.108157 0)
(0.338106 0.109473 0)
(0.321155 0.110685 0)
(0.303762 0.111729 0)
(0.285837 0.112645 0)
(0.267496 0.113508 0)
(0.24897 0.114362 0)
(0.230458 0.115244 0)
(0.212051 0.116228 0)
(0.193757 0.117364 0)
(0.175542 0.118668 0)
(0.157356 0.120154 0)
(0.139147 0.121874 0)
(0.120901 0.123855 0)
(0.102665 0.126113 0)
(0.0844665 0.128625 0)
(0.0662221 0.131299 0)
(0.0477424 0.134423 0)
(0.0288532 0.136245 0)
(0.00978283 0.139221 0)
(3 1.87096e-16 0)
(3 5.30115e-16 0)
(3 1.01464e-15 0)
(3 2.03193e-15 0)
(3 2.11327e-15 0)
(3 1.85516e-15 0)
(3 8.38518e-16 0)
(3 6.49397e-16 0)
(3 6.94682e-16 0)
(3 6.88794e-16 0)
(3 6.61799e-16 0)
(3 4.21015e-16 0)
(3 6.71597e-17 0)
(3 -5.85192e-17 0)
(3 1.62486e-17 0)
(3 3.73156e-16 0)
(3 -2.43254e-16 0)
(3 -9.41136e-16 0)
(3 -1.73943e-15 0)
(3 -1.99416e-15 0)
(3 -1.56217e-15 0)
(3 -1.69575e-15 0)
(3 -2.24966e-15 0)
(3 -2.9413e-15 0)
(3 -2.73846e-15 0)
(3 -2.46704e-15 0)
(3 -2.54208e-15 0)
(3 -1.66895e-15 0)
(3 -1.43615e-15 0)
(3 -1.689e-15 0)
(3 -2.09704e-15 0)
(3 -2.78629e-15 0)
(3 -2.57554e-15 0)
(3 -2.2582e-15 0)
(3 -1.67784e-15 0)
(3 -7.54276e-16 0)
(3 -1.79895e-16 0)
(3 -1.58416e-16 0)
(3 -5.23833e-16 0)
(3 -4.15123e-16 0)
(3 -8.69425e-16 0)
(3 -1.56991e-15 0)
(3 -1.84217e-15 0)
(3 -1.85021e-15 0)
(3 -1.97597e-15 0)
(3 -1.58047e-15 0)
(3 -4.50777e-16 0)
(3 9.5694e-17 0)
(2.99892 0.00210928 0)
(1.10669 0.116215 0)
(0.774186 0.10128 0)
(0.755306 0.101077 0)
(0.741735 0.101725 0)
(0.72831 0.101972 0)
(0.714906 0.101975 0)
(0.70074 0.101873 0)
(0.685518 0.103184 0)
(0.669805 0.107322 0)
(0.654094 0.112403 0)
(0.638138 0.114594 0)
(0.622664 0.112378 0)
(0.607518 0.109244 0)
(0.592555 0.110142 0)
(0.578544 0.114737 0)
(0.563973 0.117913 0)
(0.548822 0.118099 0)
(0.533114 0.118822 0)
(0.517193 0.120815 0)
(0.501275 0.122423 0)
(0.485486 0.123642 0)
(0.469623 0.125373 0)
(0.453367 0.127434 0)
(0.436555 0.129236 0)
(0.419302 0.130788 0)
(0.401886 0.132409 0)
(0.384586 0.134187 0)
(0.367488 0.136038 0)
(0.350407 0.137892 0)
(0.333008 0.13966 0)
(0.315018 0.141251 0)
(0.296397 0.142677 0)
(0.277346 0.144001 0)
(0.258144 0.145246 0)
(0.238967 0.146428 0)
(0.219849 0.147612 0)
(0.200744 0.148867 0)
(0.181608 0.150222 0)
(0.16242 0.151716 0)
(0.143188 0.153431 0)
(0.123954 0.155435 0)
(0.104811 0.157764 0)
(0.0858399 0.160487 0)
(0.0669668 0.163429 0)
(0.0480732 0.16706 0)
(0.0289221 0.169146 0)
(0.00981733 0.172645 0)
(3 1.9505e-16 0)
(3 5.24923e-16 0)
(3 7.05532e-16 0)
(3 1.2548e-15 0)
(3 1.34599e-15 0)
(3 1.22971e-15 0)
(3 9.91846e-16 0)
(3 1.64983e-15 0)
(3 2.04041e-15 0)
(3 1.70974e-15 0)
(3 1.24014e-15 0)
(3 1.11409e-15 0)
(3 1.079e-15 0)
(3 9.41682e-16 0)
(3 8.43018e-16 0)
(3 7.84552e-16 0)
(3 7.17228e-16 0)
(3 2.51003e-16 0)
(3 -1.90247e-16 0)
(3 -1.04419e-15 0)
(3 -1.25117e-15 0)
(3 -1.97739e-15 0)
(3 -2.00826e-15 0)
(3 -2.04202e-15 0)
(3 -2.38436e-15 0)
(3 -2.4382e-15 0)
(3 -2.11489e-15 0)
(3 -1.16818e-15 0)
(3 -8.34606e-16 0)
(3 -6.76545e-16 0)
(3 -1.45575e-15 0)
(3 -1.78287e-15 0)
(3 -2.41142e-15 0)
(3 -2.64421e-15 0)
(3 -2.58531e-15 0)
(3 -2.57349e-15 0)
(3 -2.39247e-15 0)
(3 -1.2485e-15 0)
(3 1.12195e-16 0)
(3 2.44769e-16 0)
(3 -2.9337e-16 0)
(3 -1.25554e-15 0)
(3 -8.97526e-16 0)
(3 -6.58941e-16 0)
(3 -5.80167e-16 0)
(3 -4.91964e-16 0)
(3 -1.39784e-16 0)
(3 9.15156e-16 0)
(3.00005 3.0882e-05 0)
(1.21773 0.138743 0)
(0.776849 0.124359 0)
(0.752677 0.123627 0)
(0.738445 0.12276 0)
(0.724071 0.122385 0)
(0.710062 0.123148 0)
(0.695573 0.124759 0)
(0.680429 0.127799 0)
(0.665069 0.132547 0)
(0.64983 0.137039 0)
(0.634558 0.138569 0)
(0.619631 0.136258 0)
(0.604863 0.133095 0)
(0.590242 0.133912 0)
(0.576769 0.138766 0)
(0.56287 0.142719 0)
(0.548215 0.143684 0)
(0.532888 0.144884 0)
(0.517272 0.147119 0)
(0.501673 0.148943 0)
(0.486244 0.150613 0)
(0.470788 0.15305 0)
(0.454937 0.15578 0)
(0.438529 0.158051 0)
(0.421738 0.160063 0)
(0.404831 0.162274 0)
(0.388032 0.16469 0)
(0.371363 0.167126 0)
(0.354613 0.169529 0)
(0.337427 0.171853 0)
(0.319526 0.173996 0)
(0.30091 0.175933 0)
(0.281859 0.177718 0)
(0.262694 0.179367 0)
(0.24356 0.180865 0)
(0.224412 0.182256 0)
(0.205137 0.183609 0)
(0.185653 0.184976 0)
(0.165955 0.18642 0)
(0.146109 0.18805 0)
(0.126225 0.189973 0)
(0.106444 0.192217 0)
(0.0869097 0.194998 0)
(0.0675306 0.198027 0)
(0.0483251 0.202049 0)
(0.0289465 0.204339 0)
(0.00984085 0.208313 0)
(3 -3.6825e-17 0)
(3 -1.76088e-16 0)
(3 -2.87588e-16 0)
(3 -3.50911e-16 0)
(3 -2.97112e-16 0)
(3 -2.70938e-16 0)
(3 -9.03031e-17 0)
(3 1.34996e-16 0)
(3 6.53437e-17 0)
(3 -1.37393e-16 0)
(3 -3.87468e-16 0)
(3 -6.8782e-16 0)
(3 -1.40673e-16 0)
(3 -5.11048e-17 0)
(3 -1.74139e-17 0)
(3 -5.37182e-17 0)
(3 -1.48681e-16 0)
(3 -7.86258e-17 0)
(3 8.89521e-17 0)
(3 2.4493e-17 0)
(3 -9.92107e-16 0)
(3 -1.10942e-15 0)
(3 -1.10517e-15 0)
(3 -8.93712e-16 0)
(3 -7.63506e-16 0)
(3 -9.77909e-16 0)
(3 -9.22592e-16 0)
(3 -9.44619e-16 0)
(3 -5.68832e-16 0)
(3 -6.22443e-16 0)
(3 -5.25729e-16 0)
(3 -2.21753e-16 0)
(3 -7.88133e-16 0)
(3 -2.60442e-15 0)
(3 -2.91707e-15 0)
(3 -2.95794e-15 0)
(3 -2.57195e-15 0)
(3 -1.74101e-15 0)
(3 -1.19933e-15 0)
(3 -5.72474e-16 0)
(3 -2.3119e-16 0)
(3 -2.25793e-16 0)
(3 -1.61204e-16 0)
(3 -1.81144e-17 0)
(3 1.09495e-15 0)
(3 1.15616e-15 0)
(3 1.80839e-15 0)
(3 6.20794e-16 0)
(3 4.93098e-08 0)
(1.41368 0.169973 0)
(0.790097 0.151964 0)
(0.754982 0.147937 0)
(0.739786 0.144904 0)
(0.724149 0.143985 0)
(0.709279 0.145217 0)
(0.694378 0.148022 0)
(0.679451 0.152261 0)
(0.664645 0.157126 0)
(0.650068 0.160747 0)
(0.635514 0.161752 0)
(0.620866 0.159799 0)
(0.606127 0.156714 0)
(0.591463 0.157037 0)
(0.578163 0.161644 0)
(0.564932 0.166176 0)
(0.550964 0.168189 0)
(0.536346 0.170133 0)
(0.521405 0.172599 0)
(0.506498 0.174414 0)
(0.491807 0.176342 0)
(0.477133 0.179461 0)
(0.462016 0.182986 0)
(0.446245 0.185835 0)
(0.43008 0.188358 0)
(0.413811 0.191248 0)
(0.397589 0.194466 0)
(0.381358 0.197683 0)
(0.364889 0.200833 0)
(0.347834 0.203947 0)
(0.329912 0.206941 0)
(0.311137 0.209742 0)
(0.291848 0.21237 0)
(0.272414 0.214813 0)
(0.252971 0.217011 0)
(0.233431 0.218964 0)
(0.21363 0.220729 0)
(0.19346 0.222373 0)
(0.172915 0.223983 0)
(0.152095 0.225673 0)
(0.131171 0.227588 0)
(0.110339 0.229703 0)
(0.0898252 0.232449 0)
(0.0695277 0.235382 0)
(0.0496159 0.239642 0)
(0.0296086 0.242053 0)
(0.0100692 0.246427 0)
(3 -6.12297e-17 0)
(3 -4.92155e-16 0)
(3 -5.53318e-16 0)
(3 -7.03043e-16 0)
(3 -8.26935e-16 0)
(3 -8.10495e-16 0)
(3 -8.19216e-16 0)
(3 -9.3941e-16 0)
(3 -1.43262e-15 0)
(3 -1.4072e-15 0)
(3 -1.88428e-15 0)
(3 -3.10089e-15 0)
(3 -3.89226e-15 0)
(3 -3.05817e-15 0)
(3 -2.10406e-15 0)
(3 -1.81179e-15 0)
(3 -1.60129e-15 0)
(3 -1.39576e-15 0)
(3 -9.74156e-16 0)
(3 -1.04325e-15 0)
(3 -6.57399e-16 0)
(3 -3.89254e-16 0)
(3 -7.92245e-17 0)
(3 4.32125e-16 0)
(3 4.22732e-16 0)
(3 4.63714e-17 0)
(3 -5.13992e-16 0)
(3 -1.6555e-15 0)
(3 -1.9511e-15 0)
(3 -2.21231e-15 0)
(3 -2.07524e-15 0)
(3 -8.84927e-16 0)
(3 -7.87954e-16 0)
(3 -3.24037e-16 0)
(3 -1.46717e-15 0)
(3 -1.96329e-15 0)
(3 -2.115e-15 0)
(3 -2.42585e-15 0)
(3 -2.50817e-15 0)
(3 -2.32477e-15 0)
(3 -3.59179e-16 0)
(3 3.92361e-16 0)
(3 2.56604e-16 0)
(3 -3.26442e-16 0)
(3 -1.56732e-16 0)
(3 4.85145e-16 0)
(3 7.66514e-16 0)
(3 1.53036e-16 0)
(3 1.33124e-10 0)
(1.72311 0.192508 0)
(0.819689 0.17945 0)
(0.762857 0.176855 0)
(0.745794 0.17053 0)
(0.727936 0.16883 0)
(0.711508 0.169785 0)
(0.69567 0.172556 0)
(0.680677 0.17679 0)
(0.666349 0.181306 0)
(0.652321 0.18445 0)
(0.638104 0.185876 0)
(0.623176 0.185259 0)
(0.607785 0.182778 0)
(0.592358 0.182158 0)
(0.578238 0.185627 0)
(0.564917 0.190113 0)
(0.551174 0.193135 0)
(0.5369 0.196025 0)
(0.522278 0.198808 0)
(0.507709 0.20046 0)
(0.493456 0.202452 0)
(0.479428 0.206268 0)
(0.465103 0.210849 0)
(0.450102 0.214541 0)
(0.434775 0.217684 0)
(0.419462 0.221335 0)
(0.404225 0.225509 0)
(0.388876 0.229696 0)
(0.373155 0.233749 0)
(0.356748 0.237794 0)
(0.339369 0.241812 0)
(0.321 0.245694 0)
(0.30198 0.249403 0)
(0.282707 0.25289 0)
(0.263328 0.256042 0)
(0.243738 0.258804 0)
(0.223744 0.261216 0)
(0.203198 0.263357 0)
(0.182051 0.265338 0)
(0.160385 0.267258 0)
(0.138405 0.269298 0)
(0.116365 0.271321 0)
(0.0946005 0.274014 0)
(0.0730874 0.276711 0)
(0.052068 0.28107 0)
(0.0310195 0.28353 0)
(0.0105548 0.288239 0)
(3 -3.68506e-17 0)
(3 -2.0455e-16 0)
(3 -7.92395e-16 0)
(3 -9.12158e-16 0)
(3 -7.87971e-16 0)
(3 -5.15896e-16 0)
(3 -5.55232e-16 0)
(3 -1.03415e-15 0)
(3 -1.64615e-15 0)
(3 -1.76807e-15 0)
(3 -2.04061e-15 0)
(3 -2.26346e-15 0)
(3 -3.19798e-15 0)
(3 -2.76495e-15 0)
(3 -2.24498e-15 0)
(3 -1.69278e-15 0)
(3 -1.61256e-15 0)
(3 -1.27572e-15 0)
(3 -6.83331e-16 0)
(3 -5.32597e-16 0)
(3 -6.71344e-16 0)
(3 -5.94056e-16 0)
(3 -3.6055e-16 0)
(3 2.44576e-16 0)
(3 2.07771e-16 0)
(3 -3.13123e-16 0)
(3 -7.5447e-16 0)
(3 -1.6923e-15 0)
(3 -2.67515e-15 0)
(3 -2.93861e-15 0)
(3 -2.8667e-15 0)
(3 -1.16583e-15 0)
(3 8.45895e-16 0)
(3 1.74966e-15 0)
(3 1.19336e-15 0)
(3 -7.07091e-16 0)
(3 -2.02015e-15 0)
(3 -2.54031e-15 0)
(3 -2.32939e-15 0)
(3 -2.16615e-15 0)
(3 -1.72827e-15 0)
(3 -3.66398e-16 0)
(3 -3.847e-16 0)
(3 -3.38078e-16 0)
(3 -2.58189e-16 0)
(3 5.44846e-17 0)
(3 5.84409e-16 0)
(3 3.42125e-16 0)
(3 3.17726e-13 0)
(2.14816 0.197036 0)
(0.860162 0.214408 0)
(0.761337 0.210452 0)
(0.745861 0.201983 0)
(0.728861 0.199223 0)
(0.713212 0.199085 0)
(0.698098 0.200527 0)
(0.683894 0.203367 0)
(0.670477 0.206813 0)
(0.657211 0.209821 0)
(0.643482 0.212458 0)
(0.628608 0.213914 0)
(0.612795 0.212739 0)
(0.596858 0.211131 0)
(0.5819 0.212601 0)
(0.568201 0.216178 0)
(0.554494 0.219885 0)
(0.540284 0.223802 0)
(0.525536 0.226986 0)
(0.510731 0.228231 0)
(0.496251 0.229707 0)
(0.482205 0.233722 0)
(0.468173 0.239205 0)
(0.453484 0.243736 0)
(0.438519 0.247285 0)
(0.423748 0.251409 0)
(0.409225 0.256413 0)
(0.39464 0.261619 0)
(0.379691 0.266686 0)
(0.364121 0.271791 0)
(0.347644 0.277029 0)
(0.330133 0.282277 0)
(0.311814 0.287421 0)
(0.293044 0.292369 0)
(0.273982 0.296965 0)
(0.254547 0.301088 0)
(0.234554 0.304729 0)
(0.21383 0.307929 0)
(0.192274 0.310785 0)
(0.169912 0.313342 0)
(0.146948 0.315832 0)
(0.123665 0.317967 0)
(0.100516 0.320706 0)
(0.0775747 0.323085 0)
(0.0552316 0.327391 0)
(0.0328713 0.329807 0)
(0.0111865 0.334782 0)
(3 7.15811e-17 0)
(3 8.97247e-17 0)
(3 -1.36526e-16 0)
(3 -4.31406e-16 0)
(3 -6.9461e-16 0)
(3 -8.96415e-16 0)
(3 -1.05293e-15 0)
(3 -1.08249e-15 0)
(3 -1.08924e-15 0)
(3 -9.83884e-16 0)
(3 -7.23382e-16 0)
(3 -5.22911e-16 0)
(3 -5.26377e-16 0)
(3 -9.00636e-16 0)
(3 -1.14682e-15 0)
(3 -1.48276e-15 0)
(3 -1.60769e-15 0)
(3 -1.75011e-15 0)
(3 -1.88506e-15 0)
(3 -1.79408e-15 0)
(3 -2.02275e-15 0)
(3 -1.9249e-15 0)
(3 -1.63332e-15 0)
(3 -1.55367e-15 0)
(3 -1.62794e-15 0)
(3 -1.67329e-15 0)
(3 -2.2826e-15 0)
(3 -2.63433e-15 0)
(3 -1.95279e-15 0)
(3 -1.25599e-16 0)
(3 9.23192e-16 0)
(3 1.5334e-15 0)
(3 2.22226e-15 0)
(3 2.25564e-15 0)
(3 1.96153e-15 0)
(3 1.16939e-15 0)
(3 1.8875e-16 0)
(3 4.43038e-16 0)
(3 4.22628e-16 0)
(3 -2.56941e-16 0)
(3 -5.42702e-16 0)
(3 -6.25706e-16 0)
(3 -6.85612e-16 0)
(3 -3.52843e-16 0)
(3 -2.56692e-16 0)
(3 1.51771e-16 0)
(3 4.02965e-16 0)
(3 3.79808e-16 0)
(3 3.53307e-16 0)
(2.6786 0.173646 0)
(0.961443 0.25788 0)
(0.784046 0.238218 0)
(0.77582 0.226099 0)
(0.757105 0.22473 0)
(0.740556 0.224054 0)
(0.723755 0.225099 0)
(0.707789 0.227095 0)
(0.692774 0.229926 0)
(0.678297 0.233582 0)
(0.663918 0.238302 0)
(0.648841 0.242663 0)
(0.632689 0.243854 0)
(0.616361 0.242029 0)
(0.600466 0.241443 0)
(0.585591 0.243857 0)
(0.57116 0.248344 0)
(0.556483 0.253822 0)
(0.541101 0.258115 0)
(0.525415 0.259429 0)
(0.50993 0.260283 0)
(0.494917 0.264128 0)
(0.48031 0.270353 0)
(0.465084 0.275847 0)
(0.449431 0.279696 0)
(0.434002 0.283863 0)
(0.419015 0.289268 0)
(0.404154 0.295242 0)
(0.389055 0.301164 0)
(0.373531 0.307158 0)
(0.357368 0.313477 0)
(0.340361 0.320053 0)
(0.322576 0.326709 0)
(0.304303 0.333289 0)
(0.285735 0.339591 0)
(0.266827 0.345424 0)
(0.247375 0.350718 0)
(0.227102 0.355448 0)
(0.205759 0.359687 0)
(0.183187 0.363456 0)
(0.159481 0.367065 0)
(0.134874 0.37002 0)
(0.109954 0.373424 0)
(0.0849236 0.375875 0)
(0.0605176 0.380234 0)
(0.0359577 0.382605 0)
(0.0122602 0.387869 0)
(3 -7.11277e-17 0)
(3 -2.45432e-16 0)
(3 -1.78028e-16 0)
(3 -1.68714e-16 0)
(3 3.31632e-17 0)
(3 2.63329e-16 0)
(3 5.90201e-16 0)
(3 5.2479e-16 0)
(3 4.94538e-16 0)
(3 7.33967e-16 0)
(3 9.49199e-16 0)
(3 9.36802e-16 0)
(3 6.80402e-16 0)
(3 -2.46782e-16 0)
(3 -4.18654e-16 0)
(3 -1.04956e-15 0)
(3 -1.14567e-15 0)
(3 -1.24255e-15 0)
(3 -1.59066e-15 0)
(3 -1.94061e-15 0)
(3 -1.78979e-15 0)
(3 -1.50406e-15 0)
(3 -1.47754e-15 0)
(3 -1.67006e-15 0)
(3 -1.29774e-15 0)
(3 -9.35214e-16 0)
(3 -2.22786e-16 0)
(3 3.69918e-17 0)
(3 4.84993e-16 0)
(3 8.12624e-16 0)
(3 1.33203e-15 0)
(3 2.23952e-15 0)
(3 2.91892e-15 0)
(3 3.05916e-15 0)
(3 2.9619e-15 0)
(3 2.99623e-15 0)
(3 2.90917e-15 0)
(3 2.52351e-15 0)
(3 2.56451e-15 0)
(3 1.63322e-15 0)
(3 1.5367e-15 0)
(3 1.05115e-15 0)
(3 9.03439e-16 0)
(3 5.21108e-16 0)
(3 -3.68161e-16 0)
(3 -6.58632e-16 0)
(3 -1.77964e-16 0)
(3 3.85062e-16 0)
(3 3.99049e-16 0)
(3.02086 0.0104962 0)
(1.14888 0.280945 0)
(0.809121 0.234544 0)
(0.797006 0.248194 0)
(0.781746 0.253475 0)
(0.766155 0.255235 0)
(0.750105 0.256112 0)
(0.734091 0.256723 0)
(0.718521 0.257909 0)
(0.703578 0.26042 0)
(0.689416 0.264958 0)
(0.675529 0.270255 0)
(0.660666 0.27327 0)
(0.645029 0.272419 0)
(0.629207 0.270634 0)
(0.613682 0.271646 0)
(0.598796 0.276234 0)
(0.584181 0.28306 0)
(0.568852 0.289 0)
(0.552814 0.291277 0)
(0.536721 0.291747 0)
(0.520834 0.295043 0)
(0.505572 0.301788 0)
(0.48982 0.308736 0)
(0.473253 0.313528 0)
(0.456669 0.317844 0)
(0.440553 0.323517 0)
(0.42476 0.330255 0)
(0.408866 0.337151 0)
(0.392673 0.344071 0)
(0.376052 0.351373 0)
(0.358777 0.359174 0)
(0.340731 0.367327 0)
(0.322062 0.375664 0)
(0.302981 0.384005 0)
(0.283508 0.392135 0)
(0.263455 0.39992 0)
(0.242474 0.407226 0)
(0.220281 0.413965 0)
(0.1967 0.420083 0)
(0.171796 0.425748 0)
(0.145741 0.430255 0)
(0.11919 0.434856 0)
(0.0921797 0.437767 0)
(0.0655031 0.442083 0)
(0.0388473 0.444162 0)
(0.0131458 0.449443 0)
(3 -1.37256e-17 0)
(3 1.49952e-16 0)
(3 1.1781e-16 0)
(3 2.0432e-16 0)
(3 7.27088e-16 0)
(3 1.44136e-15 0)
(3 1.72419e-15 0)
(3 1.68861e-15 0)
(3 1.24897e-15 0)
(3 1.02635e-15 0)
(3 1.13147e-15 0)
(3 1.67269e-15 0)
(3 1.89562e-15 0)
(3 1.82649e-15 0)
(3 1.39963e-15 0)
(3 -1.74261e-16 0)
(3 -1.32299e-15 0)
(3 -1.35517e-15 0)
(3 -1.10079e-15 0)
(3 -1.04332e-15 0)
(3 -1.15711e-15 0)
(3 -1.39096e-15 0)
(3 -1.3005e-15 0)
(3 -1.05028e-15 0)
(3 -5.9127e-16 0)
(3 -4.50783e-16 0)
(3 -4.31227e-16 0)
(3 -3.87635e-17 0)
(3 1.31371e-16 0)
(3 5.63412e-16 0)
(3 1.10587e-15 0)
(3 2.06656e-15 0)
(3 2.21152e-15 0)
(3 1.71322e-15 0)
(3 1.8184e-15 0)
(3 2.63224e-15 0)
(3 3.30357e-15 0)
(3 3.00936e-15 0)
(3 2.97315e-15 0)
(3 3.18829e-15 0)
(3 2.50846e-15 0)
(3 1.12498e-15 0)
(3 4.7218e-16 0)
(3 4.97372e-16 0)
(3 3.26143e-16 0)
(3 9.07525e-16 0)
(3 1.90592e-15 0)
(3 2.37678e-15 0)
(3 1.99966e-15 0)
(3.00031 1.03954e-05 0)
(1.56023 0.310396 0)
(0.824074 0.275917 0)
(0.781204 0.278466 0)
(0.768517 0.285855 0)
(0.754746 0.287708 0)
(0.741691 0.289262 0)
(0.728156 0.290225 0)
(0.714437 0.290876 0)
(0.700909 0.292192 0)
(0.687999 0.295729 0)
(0.676003 0.301521 0)
(0.663545 0.306693 0)
(0.64995 0.308226 0)
(0.635768 0.307087 0)
(0.621213 0.307261 0)
(0.606974 0.311268 0)
(0.59359 0.3187 0)
(0.580043 0.326195 0)
(0.565592 0.329996 0)
(0.550851 0.330711 0)
(0.535938 0.333216 0)
(0.52157 0.33968 0)
(0.507055 0.347637 0)
(0.491357 0.353612 0)
(0.475131 0.358063 0)
(0.459146 0.363523 0)
(0.443597 0.370519 0)
(0.428051 0.378146 0)
(0.412153 0.385876 0)
(0.395796 0.393942 0)
(0.378875 0.402732 0)
(0.361184 0.412209 0)
(0.34277 0.422233 0)
(0.323898 0.432613 0)
(0.304752 0.443141 0)
(0.285155 0.453493 0)
(0.264829 0.463577 0)
(0.243391 0.472948 0)
(0.220473 0.481497 0)
(0.195844 0.489465 0)
(0.169096 0.496244 0)
(0.140606 0.503683 0)
(0.110014 0.509772 0)
(0.0784993 0.516076 0)
(0.0463851 0.518877 0)
(0.0154845 0.523965 0)
(3 5.55021e-17 0)
(3 2.40253e-16 0)
(3 4.1579e-16 0)
(3 5.65687e-16 0)
(3 1.5128e-16 0)
(3 -2.61441e-16 0)
(3 -3.34728e-16 0)
(3 -2.17101e-16 0)
(3 5.16121e-16 0)
(3 5.64014e-16 0)
(3 1.05012e-15 0)
(3 1.21574e-15 0)
(3 1.26114e-15 0)
(3 1.58803e-15 0)
(3 1.66465e-15 0)
(3 1.51909e-15 0)
(3 1.329e-15 0)
(3 8.73283e-16 0)
(3 7.70896e-16 0)
(3 8.91224e-17 0)
(3 -6.89087e-16 0)
(3 -8.91594e-16 0)
(3 -1.04091e-15 0)
(3 -9.17528e-16 0)
(3 -9.53202e-16 0)
(3 -1.00892e-15 0)
(3 -8.96602e-16 0)
(3 3.40262e-17 0)
(3 1.52196e-15 0)
(3 1.98624e-15 0)
(3 1.83734e-15 0)
(3 1.5594e-15 0)
(3 1.06142e-15 0)
(3 3.86914e-16 0)
(3 3.13642e-16 0)
(3 1.14348e-15 0)
(3 1.66664e-15 0)
(3 1.98944e-15 0)
(3 1.50718e-15 0)
(3 9.82572e-16 0)
(3 3.03697e-16 0)
(3 -5.51551e-16 0)
(3 -1.86545e-15 0)
(3 -3.78482e-16 0)
(3 1.63405e-15 0)
(3 2.1981e-15 0)
(3 2.18476e-15 0)
(3 2.46382e-15 0)
(3 1.77533e-15 0)
(3 1.76853e-08 0)
(2.3826 0.282086 0)
(0.918514 0.337176 0)
(0.79198 0.313198 0)
(0.780423 0.311953 0)
(0.766591 0.314903 0)
(0.754519 0.318048 0)
(0.741832 0.320455 0)
(0.728676 0.321489 0)
(0.715445 0.322014 0)
(0.702491 0.324159 0)
(0.690566 0.32919 0)
(0.679158 0.33533 0)
(0.666751 0.339211 0)
(0.653409 0.33972 0)
(0.639385 0.33983 0)
(0.625235 0.343085 0)
(0.612078 0.350309 0)
(0.599653 0.358885 0)
(0.586567 0.364685 0)
(0.572991 0.366697 0)
(0.559043 0.368944 0)
(0.545291 0.374902 0)
(0.531797 0.383678 0)
(0.517191 0.391719 0)
(0.501496 0.397554 0)
(0.485679 0.403479 0)
(0.470347 0.41104 0)
(0.455284 0.419787 0)
(0.43994 0.428871 0)
(0.423909 0.438223 0)
(0.407392 0.448315 0)
(0.390158 0.459321 0)
(0.372031 0.471248 0)
(0.353216 0.483883 0)
(0.333917 0.497172 0)
(0.313767 0.510774 0)
(0.292837 0.524728 0)
(0.270473 0.538621 0)
(0.245834 0.55222 0)
(0.218683 0.565844 0)
(0.188606 0.578677 0)
(0.156655 0.591889 0)
(0.123445 0.603831 0)
(0.089383 0.613319 0)
(0.0542296 0.617946 0)
(0.0172684 0.621253 0)
(3 7.01776e-17 0)
(3 1.05213e-16 0)
(3 3.70429e-16 0)
(3 1.3561e-16 0)
(3 -1.32337e-16 0)
(3 -3.66579e-16 0)
(3 -3.18202e-16 0)
(3 -1.55523e-16 0)
(3 6.24103e-16 0)
(3 1.52311e-15 0)
(3 1.4996e-15 0)
(3 1.23411e-15 0)
(3 9.74374e-16 0)
(3 7.91776e-16 0)
(3 1.23355e-15 0)
(3 1.81488e-15 0)
(3 1.80453e-15 0)
(3 1.30003e-15 0)
(3 6.61231e-16 0)
(3 5.69339e-16 0)
(3 6.93612e-16 0)
(3 5.88391e-16 0)
(3 2.73848e-16 0)
(3 -1.91483e-16 0)
(3 -2.5539e-16 0)
(3 3.35142e-17 0)
(3 1.05537e-15 0)
(3 1.61213e-15 0)
(3 1.64719e-15 0)
(3 1.52753e-15 0)
(3 1.16131e-15 0)
(3 4.92885e-17 0)
(3 -9.23477e-16 0)
(3 -1.09012e-15 0)
(3 -5.46564e-16 0)
(3 5.05325e-16 0)
(3 1.12853e-15 0)
(3 2.01377e-15 0)
(3 1.84316e-15 0)
(3 1.59825e-15 0)
(3 1.32952e-15 0)
(3 1.73193e-15 0)
(3 1.59941e-15 0)
(3 9.95877e-16 0)
(3 8.99921e-17 0)
(3 -7.47645e-16 0)
(3 -1.07263e-15 0)
(3 -1.36603e-15 0)
(3 -1.44998e-15 0)
(3 -6.99191e-09 0)
(3.02892 0.0179655 0)
(1.24957 0.378448 0)
(0.83982 0.323985 0)
(0.819356 0.333864 0)
(0.805993 0.335728 0)
(0.791942 0.340361 0)
(0.778015 0.345315 0)
(0.763591 0.348038 0)
(0.749279 0.349053 0)
(0.735211 0.350393 0)
(0.7219 0.354286 0)
(0.709684 0.360638 0)
(0.697308 0.366891 0)
(0.68382 0.370585 0)
(0.669503 0.372156 0)
(0.65488 0.37498 0)
(0.641019 0.381349 0)
(0.628519 0.390107 0)
(0.616148 0.397685 0)
(0.603247 0.401901 0)
(0.589957 0.404771 0)
(0.576545 0.410149 0)
(0.563533 0.419114 0)
(0.549991 0.429216 0)
(0.535119 0.437621 0)
(0.519688 0.444896 0)
(0.504631 0.453148 0)
(0.490243 0.462992 0)
(0.475605 0.473601 0)
(0.460845 0.484611 0)
(0.445332 0.496376 0)
(0.428999 0.509281 0)
(0.411793 0.523461 0)
(0.393764 0.538888 0)
(0.37509 0.555573 0)
(0.355851 0.573433 0)
(0.33599 0.592493 0)
(0.31507 0.612401 0)
(0.292463 0.632639 0)
(0.267873 0.652765 0)
(0.240895 0.671412 0)
(0.211187 0.687592 0)
(0.179065 0.703299 0)
(0.141472 0.721827 0)
(0.0951601 0.743689 0)
(0.0363881 0.763361 0)
(3 -1.68722e-17 0)
(3 -1.9715e-16 0)