/*--------------------------------*- C++ -*----------------------------------*\
  =========                 |
  \\      /  F ield         | OpenFOAM: The Open Source CFD Toolbox
   \\    /   O peration     | Website:  https://openfoam.org
    \\  /    A nd           | Version:  7
     \\/     M anipulation  |
\*---------------------------------------------------------------------------*/
FoamFile
{
    version     2.0;
    format      ascii;
    class       volScalarField;
    location    "8.4";
    object      p;
}
// * * * * * * * * * * * * * * * * * * * * * * * * * * * * * * * * * * * * * //

dimensions      [1 -1 -2 0 0 0 0];

internalField   nonuniform List<scalar> 
19968
(
1
1
1
1
1
1
1
1
1
1
1
1
1
1
1
1
1
1
1
1
1
1
1
1
1
1
1
1
1
1
1
1
1
1
1
1
1
1
1
1
1
1
1
1
1
1
1
1
1.56242
8.05623
10.4038
10.4517
10.5142
10.5757
10.6402
10.7015
10.7578
10.8094
10.858
10.907
10.9592
11.0142
11.07
11.1238
11.1734
11.2205
11.2666
11.3111
11.3532
11.3933
11.4317
11.4691
11.5059
11.543
11.5811
11.62
11.6593
11.6976
11.7336
11.7666
11.796
11.8219
11.8449
11.8654
11.8844
11.903
11.9223
11.9429
11.9647
11.9863
12.0058
12.0209
12.0306
12.0352
12.0366
12.0366
1
1
1
1
1
1
1
1
1
1
1
1
1
1
1
1
1
1
1
1
1
1
1
1
1
1
1
1
1
1
1
1
1
1
1
1
1
1
1
1
1
1
1
1
1
1
1
1
1.53221
7.99354
10.3944
10.4494
10.5156
10.5763
10.6399
10.7
10.7549
10.8056
10.8541
10.9035
10.9564
11.0115
11.0671
11.1203
11.1699
11.217
11.2632
11.3076
11.3495
11.3892
11.4274
11.4647
11.5017
11.5391
11.5773
11.6162
11.6552
11.6931
11.7289
11.7616
11.791
11.8171
11.8402
11.861
11.8801
11.8987
11.9179
11.9381
11.9593
11.9802
11.999
12.0136
12.0232
12.0278
12.0293
12.0295
1
1
1
1
1
1
1
1
1
1
1
1
1
1
1
1
1
1
1
1
1
1
1
1
1
1
1
1
1
1
1
1
1
1
1
1
1
1
1
1
1
1
1
1
1
1
1
1
1.46298
7.8505
10.3904
10.4415
10.5095
10.5697
10.6326
10.6917
10.7456
10.7959
10.8445
10.8943
10.948
11.0036
11.0594
11.1126
11.1623
11.2098
11.256
11.3003
11.3419
11.3812
11.419
11.4563
11.4935
11.5313
11.5697
11.6085
11.647
11.6844
11.7196
11.7521
11.7815
11.8079
11.8314
11.8526
11.8722
11.8911
11.9101
11.9299
11.9504
11.9705
11.9886
12.0029
12.0123
12.0172
12.0189
12.0194
1
1
1
1
1
1
1
1
1
1
1
1
1
1
1
1
1
1
1
1
1
1
1
1
1
1
1
1
1
1
1
1
1
1
1
1
1
1
1
1
1
1
1
1
1
1
1
1
1.36441
7.61493
10.3858
10.4342
10.5003
10.5602
10.6232
10.6819
10.7347
10.784
10.8323
10.8821
10.9364
10.9922
11.0482
11.1014
11.1516
11.1996
11.2459
11.29
11.3312
11.3701
11.4076
11.4447
11.4821
11.5202
11.5586
11.597
11.6348
11.6714
11.706
11.7382
11.7676
11.7942
11.8181
11.8397
11.8595
11.8782
11.8967
11.9155
11.9346
11.9535
11.9707
11.9848
11.9946
12.0002
12.0027
12.004
1
1
1
1
1
1
1
1
1
1
1
1
1
1
1
1
1
1
1
1
1
1
1
1
1
1
1
1
1
1
1
1
1
1
1
1
1
1
1
1
1
1
1
1
1
1
1
1
1.24088
7.29487
10.3903
10.4241
10.4898
10.5488
10.6107
10.6682
10.7201
10.7687
10.8169
10.8669
10.9216
10.9774
11.0337
11.0871
11.1379
11.1866
11.2332
11.2772
11.318
11.3564
11.3934
11.4303
11.4679
11.5062
11.5446
11.5826
11.6197
11.6554
11.6895
11.7215
11.7512
11.7784
11.8032
11.8255
11.8456
11.864
11.8813
11.8983
11.915
11.9314
11.9466
11.9594
11.9687
11.9745
11.9771
11.9789
1
1
1
1
1
1
1
1
1
1
1
1
1
1
1
1
1
1
1
1
1
1
1
1
1
1
1
1
1
1
1
1
1
1
1
1
1
1
1
1
1
1
1
1
1
1
1
1
1.03457
6.77822
10.4009
10.4224
10.4842
10.5444
10.6054
10.6615
10.7118
10.7587
10.8056
10.8551
10.9095
10.9645
11.0197
11.0721
11.1221
11.1708
11.2171
11.2607
11.3008
11.3381
11.3738
11.4094
11.4461
11.4839
11.5218
11.5588
11.5946
11.6289
11.6617
11.693
11.7227
11.7506
11.7763
11.7996
11.8204
11.8389
11.8557
11.8715
11.8868
11.9018
11.9161
11.9287
11.9383
11.9448
11.9481
11.9506
1
1
1
1
1
1
1
1
1
1
1
1
1
1
1
1
1
1
1
1
1
1
1
1
1
1
1
1
1
1
1
1
1
1
1
1
1
1
1
1
1
1
1
1
1
1
1
1
1.0003
6.04553
10.308
10.3829
10.4416
10.5046
10.5666
10.6241
10.6759
10.7238
10.7708
10.8196
10.8723
10.9254
10.979
11.0307
11.081
11.1312
11.1793
11.2243
11.2649
11.302
11.3369
11.3718
11.4082
11.4462
11.4843
11.5212
11.5562
11.5892
11.6209
11.6516
11.6816
11.7105
11.7377
11.7623
11.7839
11.8025
11.8187
11.8333
11.8472
11.8609
11.8742
11.8865
11.8963
11.9034
11.907
11.91
1
1
1
1
1
1
1
1
1
1
1
1
1
1
1
1
1
1
1
1
1
1
1
1
1
1
1
1
1
1
1
1
1
1
1
1
1
1
1
1
1
1
1
1
1
1
1
1
1
5.09977
10.1553
10.3531
10.4135
10.4793
10.5424
10.6007
10.6531
10.7017
10.7485
10.7965
10.8466
10.8965
10.947
10.9966
11.0454
11.0954
11.1442
11.1898
11.2304
11.2667
11.3002
11.3334
11.3688
11.4065
11.4446
11.4811
11.5148
11.5461
11.576
11.6055
11.6351
11.6645
11.6925
11.7179
11.7397
11.7579
11.7731
11.7864
11.7988
11.8112
11.8237
11.8354
11.8451
11.8523
11.856
11.8591
1
1
1
1
1
1
1
1
1
1
1
1
1
1
1
1
1
1
1
1
1
1
1
1
1
1
1
1
1
1
1
1
1
1
1
1
1
1
1
1
1
1
1
1
1
1
1
1
1
4.01063
9.86294
10.3187
10.3797
10.4466
10.511
10.5713
10.6248
10.674
10.7212
10.7684
10.816
10.8629
10.9101
10.9572
11.0036
11.0519
11.0999
11.1446
11.1841
11.2188
11.2502
11.2814
11.3152
11.3522
11.39
11.426
11.4585
11.4879
11.5157
11.5434
11.5721
11.6013
11.6297
11.6554
11.6772
11.6949
11.7094
11.7219
11.7338
11.7458
11.758
11.7696
11.779
11.7862
11.7897
11.7927
1
1
1
1
1
1
1
1
1
1
1
1
1
1
1
1
1
1
1
1
1
1
1
1
1
1
1
1
1
1
1
1
1
1
1
1
1
1
1
1
1
1
1
1
1
1
1
1
1
2.88074
9.32284
10.3025
10.3664
10.4307
10.4936
10.5516
10.6029
10.6502
10.696
10.7413
10.7863
10.8306
10.8746
10.919
10.9629
11.0087
11.0545
11.0973
11.1349
11.1678
11.1968
11.2252
11.256
11.2904
11.3261
11.36
11.3903
11.4171
11.4421
11.4674
11.4942
11.5226
11.5509
11.5767
11.5984
11.6156
11.6292
11.6409
11.6519
11.663
11.6742
11.6845
11.6928
11.699
11.7019
11.7045
1
1
1
1
1
1
1
1
1
1
1
1
1
1
1
1
1
1
1
1
1
1
1
1
1
1
1
1
1
1
1
1
1
1
1
1
1
1
1
1
1
1
1
1
1
1
1
1
1
1.85032
8.39738
10.3225
10.3296
10.3975
10.4523
10.5085
10.5589
10.6061
10.6528
10.6993
10.7451
10.7896
10.8324
10.8747
10.9166
10.9599
11.0039
11.0451
11.0813
11.1126
11.14
11.166
11.1939
11.2251
11.2581
11.2895
11.3172
11.3409
11.3622
11.3831
11.4055
11.4297
11.4542
11.4767
11.4951
11.5093
11.5205
11.5306
11.541
11.5521
11.5632
11.5732
11.5811
11.5874
11.5906
11.5934
1
1
1
1
1
1
1
1
1
1
1
1
1
1
1
1
1
1
1
1
1
1
1
1
1
1
1
1
1
1
1
1
1
1
1
1
1
1
1
1
1
1
1
1
1
1
1
1
1
1.03349
6.73087
10.354
10.374
10.4035
10.4429
10.4898
10.5351
10.5783
10.621
10.6632
10.7047
10.7453
10.7843
10.8224
10.8606
10.8993
10.9384
10.9757
11.0088
11.0373
11.0623
11.0851
11.1091
11.1362
11.1657
11.1944
11.2199
11.2415
11.2603
11.278
11.2965
11.3167
11.3377
11.3574
11.3737
11.3861
11.3956
11.4036
11.4113
11.4182
11.4237
11.4271
11.4289
11.4309
11.4323
11.4342
1
1
1
1
1
1
1
1
1
1
1
1
1
1
1
1
1
1
1
1
1
1
1
1
1
1
1
1
1
1
1
1
1
1
1
1
1
1
1
1
1
1
1
1
1
1
1
1
1
1.00006
4.64271
9.92383
10.1934
10.257
10.3224
10.3783
10.4285
10.4739
10.5172
10.5598
10.6019
10.6428
10.682
10.7193
10.7562
10.7938
10.8316
10.868
10.9012
10.9292
10.9532
10.9742
10.9955
11.0193
11.0455
11.0717
11.0954
11.1155
11.1321
11.146
11.159
11.1724
11.1862
11.1989
11.2087
11.2145
11.2168
11.2173
11.2175
11.2181
11.219
11.2205
11.222
11.2254
11.2282
11.2315
1
1
1
1
1
1
1
1
1
1
1
1
1
1
1
1
1
1
1
1
1
1
1
1
1
1
1
1
1
1
1
1
1
1
1
1
1
1
1
1
1
1
1
1
1
1
1
1
1
1
2.41655
8.80589
10.1349
10.1852
10.2695
10.3289
10.3778
10.4196
10.4586
10.4977
10.5378
10.5772
10.6143
10.6483
10.6802
10.7124
10.7455
10.7779
10.808
10.8329
10.8525
10.8687
10.884
10.9015
10.9214
10.9419
10.9609
10.9768
10.9887
10.9964
11.0011
11.0041
11.0074
11.011
11.0139
11.0148
11.0131
11.0087
11.0022
10.9938
10.9822
10.968
10.9485
10.9265
10.9036
10.8842
1
1
1
1
1
1
1
1
1
1
1
1
1
1
1
1
1
1
1
1
1
1
1
1
1
1
1
1
1
1
1
1
1
1
1
1
1
1
1
1
1
1
1
1
1
1
1
1
1
1
1.06083
6.42564
10.2152
10.2328
10.2557
10.2893
10.3219
10.3538
10.3852
10.4178
10.4522
10.4869
10.5194
10.5489
10.5759
10.6025
10.6301
10.6573
10.6826
10.7042
10.7199
10.7316
10.7407
10.7506
10.7629
10.7765
10.7894
10.8002
10.8072
10.8078
10.8028
10.7931
10.7815
10.7701
10.7591
10.746
10.7273
10.7001
10.6629
10.6168
10.5654
10.5135
10.4706
10.434
10.4157
10.4081
1
1
1
1
1
1
1
1
1
1
1
1
1
1
1
1
1
1
1
1
1
1
1
1
1
1
1
1
1
1
1
1
1
1
1
1
1
1
1
1
1
1
1
1
1
1
1
1
1
1
1.00009
3.32777
9.27991
10.0388
10.1002
10.1541
10.1996
10.2387
10.2711
10.3003
10.3311
10.3646
10.3985
10.4301
10.458
10.4823
10.5047
10.5263
10.5462
10.5636
10.5762
10.5835
10.5871
10.5878
10.5888
10.5907
10.5934
10.5953
10.5943
10.5874
10.5712
10.5461
10.5146
10.481
10.448
10.4138
10.3735
10.3221
10.2578
10.1843
10.1075
10.0322
9.94738
9.86557
9.7482
9.83826
1
1
1
1
1
1
1
1
1
1
1
1
1
1
1
1
1
1
1
1
1
1
1
1
1
1
1
1
1
1
1
1
1
1
1
1
1
1
1
1
1
1
1
1
1
1
1
1
1
1
1
1.25696
7.36556
10.0734
10.0575
10.0865
10.1253
10.1629
10.1944
10.2195
10.244
10.2707
10.2991
10.3268
10.3519
10.3734
10.3912
10.4068
10.4198
10.4299
10.4377
10.442
10.4407
10.4347
10.4249
10.414
10.404
10.3947
10.384
10.3683
10.343
10.3047
10.2542
10.1968
10.1371
10.0748
10.0032
9.91341
9.79513
9.6454
9.45029
9.1989
8.82916
8.27808
7.34828
5.4636
1
1
1
1
1
1
1
1
1
1
1
1
1
1
1
1
1
1
1
1
1
1
1
1
1
1
1
1
1
1
1
1
1
1
1
1
1
1
1
1
1
1
1
1
1
1
1
1
1
1
1
1.0023
4.66979
9.57385
9.91842
9.96785
10.0267
10.0726
10.1044
10.1221
10.1392
10.16
10.1848
10.2115
10.2373
10.26
10.2777
10.2902
10.2983
10.3033
10.3066
10.3077
10.3042
10.2961
10.2818
10.2623
10.2401
10.2177
10.1949
10.1693
10.1355
10.0874
10.0228
9.94515
9.85935
9.76812
9.66271
9.53519
9.36558
9.15246
8.86818
8.51274
8.00476
7.3442
6.13512
4.52245
1
1
1
1
1
1
1
1
1
1
1
1
1
1
1
1
1
1
1
1
1
1
1
1
1
1
1
1
1
1
1
1
1
1
1
1
1
1
1
1
1
1
1
1
1
1
1
1
1
1
1
0.999995
1.95724
8.16755
9.88454
9.89385
9.96167
10.0085
10.0401
10.054
10.0664
10.0818
10.101
10.1232
10.145
10.1648
10.1803
10.1876
10.1899
10.1882
10.1835
10.1767
10.1684
10.1567
10.1383
10.1121
10.0792
10.0432
10.0063
9.96752
9.92188
9.86275
9.78469
9.68964
9.57967
9.46052
9.32287
9.16039
8.95238
8.69206
8.36187
7.94196
7.4058
6.66171
5.64683
4.54385
1
1
1
1
1
1
1
1
1
1
1
1
1
1
1
1
1
1
1
1
1
1
1
1
1
1
1
1
1
1
1
1
1
1
1
1
1
1
1
1
1
1
1
1
1
1
1
1
1
1
1
0.999999
1.03441
5.39037
9.73266
9.8351
9.86889
9.90617
9.93672
9.95761
9.97725
9.99547
10.0121
10.0297
10.0473
10.0635
10.0746
10.077
10.0732
10.0647
10.0531
10.0391
10.0251
10.0085
9.98475
9.95247
9.91186
9.86597
9.81699
9.76565
9.7072
9.63651
9.54606
9.437
9.30834
9.16583
9.00294
8.81298
8.58171
8.29676
7.9499
7.51621
6.98722
6.31995
5.54873
4.73402
1
1
1
1
1
1
1
1
1
1
1
1
1
1
1
1
1
1
1
1
1
1
1
1
1
1
1
1
1
1
1
1
1
1
1
1
1
1
1
1
1
1
1
1
1
1
1
1
1
1
1
1
1.00001
2.17341
8.39124
9.84753
9.80914
9.8414
9.86657
9.8831
9.89833
9.91391
9.9265
9.93945
9.95236
9.96317
9.96811
9.96397
9.95302
9.93804
9.92177
9.90397
9.8855
9.86305
9.8327
9.79322
9.74498
9.69107
9.6324
9.57053
9.50035
9.41811
9.3164
9.19588
9.05488
8.89659
8.7177
8.51187
8.26987
7.97973
7.6397
7.21911
6.74105
6.18495
5.57318
4.9422
1
1
1
1
1
1
1
1
1
1
1
1
1
1
1
1
1
1
1
1
1
1
1
1
1
1
1
1
1
1
1
1
1
1
1
1
1
1
1
1
1
1
1
1
1
1
1
1
1
1
1
1
1
1.04489
5.43626
9.69096
9.74912
9.77815
9.7941
9.80842
9.82163
9.8337
9.84124
9.84838
9.85492
9.86132
9.86143
9.85194
9.83437
9.8116
9.78807
9.76582
9.74328
9.71601
9.68017
9.63497
9.58086
9.52115
9.45522
9.38408
9.3029
9.20928
9.09792
8.96921
8.8215
8.65495
8.4681
8.25589
8.01299
7.72964
7.40883
7.02432
6.60326
6.14165
5.6365
5.13094
1
1
1
1
1
1
1
1
1
1
1
1
1
1
1
1
1
1
1
1
1
1
1
1
1
1
1
1
1
1
1
1
1
1
1
1
1
1
1
1
1
1
1
1
1
1
1
1
1
1
1
1
1
1.00004
2.03403
8.19816
9.73003
9.70327
9.71661
9.72635
9.7353
9.742
9.74523
9.74506
9.74506
9.74794
9.744
9.73154
9.71133
9.68374
9.6527
9.62484
9.59725
9.56507
9.52455
9.47579
9.41876
9.35637
9.28638
9.208
9.11728
9.01351
8.89463
8.76076
8.61027
8.44169
8.25426
8.04303
7.80922
7.5349
7.24262
6.89621
6.52637
6.139
5.70662
5.28397
1
1
1
1
1
1
1
1
1
1
1
1
1
1
1
1
1
1
1
1
1
1
1
1
1
1
1
1
1
1
1
1
1
1
1
1
1
1
1
1
1
1
1
1
1
1
1
1
1
1
1
1
1
1
1.03335
4.89383
9.42773
9.60913
9.6245
9.63968
9.65883
9.66727
9.66978
9.66243
9.65595
9.65386
9.64507
9.62862
9.60573
9.57428
9.53535
9.49876
9.46146
9.4207
9.37388
9.32159
9.26357
9.20089
9.12928
9.04585
8.94733
8.83515
8.71049
8.57363
8.42282
8.256
8.07257
7.8671
7.64354
7.38297
7.1168
6.80592
6.48251
6.15155
5.77842
5.40316
1
1
1
1
1
1
1
1
1
1
1
1
1
1
1
1
1
1
1
1
1
1
1
1
1
1
1
1
1
1
1
1
1
1
1
1
1
1
1
1
1
1
1
1
1
1
1
1
1
1
1
1
1
1
1.00002
1.54497
7.61783
9.66264
9.60631
9.59063
9.58487
9.58126
9.57508
9.56187
9.55037
9.54304
9.53026
9.5107
9.48702
9.45711
9.4162
9.37508
9.3297
9.2815
9.22924
9.17336
9.11306
9.04893
8.97604
8.89049
8.78873
8.67243
8.54467
8.40642
8.25701
8.09433
7.91892
7.72159
7.50932
7.2687
7.02137
6.74381
6.46208
6.16425
5.83423
5.50834
1
1
1
1
1
1
1
1
1
1
1
1
1
1
1
1
1
1
1
1
1
1
1
1
1
1
1
1
1
1
1
1
1
1
1
1
1
1
1
1
1
1
1
1
1
1
1
1
1
1
1
1
1
1
1
1.00878
3.90363
9.01584
9.40823
9.43957
9.46302
9.46708
9.46379
9.45249
9.43897
9.42748
9.41047
9.38926
9.36612
9.33944
9.30145
9.25964
9.20805
9.15326
9.09553
9.03527
8.97119
8.90397
8.82805
8.74124
8.64011
8.52455
8.3978
8.26041
8.11339
7.955
7.78822
7.59858
7.39954
7.17749
6.9489
6.70437
6.44992
6.17142
5.88945
5.60196
1
1
1
1
1
1
1
1
1
1
1
1
1
1
1
1
1
1
1
1
1
1
1
1
1
1
1
1
1
1
1
1
1
1
1
1
1
1
1
1
1
1
1
1
1
1
1
1
1
1
1
1
1
1
1
1
1.22103
6.29808
9.37398
9.39394
9.37863
9.37075
9.36898
9.3594
9.34445
9.32875
9.30745
9.28134
9.25563
9.22888
9.19361
9.15238
9.0983
9.04055
8.9798
8.91199
8.84234
8.76971
8.68944
8.6006
8.50106
8.38869
8.26631
8.132
7.9897
7.83394
7.67394
7.49371
7.30652
7.10322
6.89641
6.67422
6.434
6.18596
5.94365
5.68116
1
1
1
1
1
1
1
1
1
1
1
1
1
1
1
1
1
1
1
1
1
1
1
1
1
1
1
1
1
1
1
1
1
1
1
1
1
1
1
1
1
1
1
1
1
1
1
1
1
1
1
1
1
1
1
1
1.00148
2.19824
8.03153
9.30176
9.25157
9.26101
9.26244
9.25922
9.24708
9.23056
9.21022
9.18134
9.15103
9.12032
9.08403
9.04265
8.99014
8.93293
8.87209
8.79988
8.72339
8.64541
8.55959
8.46927
8.37028
8.26163
8.1451
8.01643
7.88441
7.72964
7.57407
7.40503
7.22641
7.04295
6.8511
6.64271
6.42366
6.21006
5.98452
5.74619
1
1
1
1
1
1
1
1
1
1
1
1
1
1
1
1
1
1
1
1
1
1
1
1
1
1
1
1
1
1
1
1
1
1
1
1
1
1
1
1
1
1
1
1
1
1
1
1
1
1
1
1
1
1
1
1
1
1.04069
4.19086
8.88376
9.16347
9.17557
9.17852
9.1745
9.16155
9.1434
9.12427
9.09368
9.05853
9.02265
8.9822
8.93749
8.88552
8.82678
8.76787
8.69523
8.61749
8.53529
8.44951
8.35697
8.25684
8.15116
8.03836
7.91685
7.78866
7.64134
7.49144
7.33138
7.1616
6.99211
6.80793
6.61632
6.42016
6.22837
6.01242
5.80161
1
1
1
1
1
1
1
1
1
1
1
1
1
1
1
1
1
1
1
1
1
1
1
1
1
1
1
1
1
1
1
1
1
1
1
1
1
1
1
1
1
1
1
1
1
1
1
1
1
1
1
1
1
1
1
1
1
1.00008
1.26023
5.74498
8.99628
9.14964
9.13572
9.12235
9.10285
9.07499
9.04846
9.01467
8.97523
8.93396
8.88916
8.83949
8.78471
8.72368
8.66379
8.59613
8.5197
8.43859
8.35095
8.25942
8.15789
8.05342
7.94163
7.82509
7.69875
7.56248
7.41965
7.26777
7.10981
6.94719
6.77248
6.59676
6.41834
6.2368
6.03642
5.84784
1
1
1
1
1
1
1
1
1
1
1
1
1
1
1
1
1
1
1
1
1
1
1
1
1
1
1
1
1
1
1
1
1
1
1
1
1
1
1
1
1
1
1
1
1
1
1
1
1
1
1
1
1
1
1
1
1
1
1.00212
1.63393
7.24896
9.15853
9.11284
9.06799
9.02202
8.98132
8.94445
8.90935
8.87288
8.83298
8.78988
8.74185
8.68698
8.62531
8.5632
8.49936
8.42458
8.34633
8.26128
8.17177
8.07456
7.97102
7.8608
7.74455
7.62284
7.49412
7.35817
7.21452
7.06736
6.91001
6.74643
6.58392
6.41745
6.24203
6.06022
5.88587
1
1
1
1
1
1
1
1
1
1
1
1
1
1
1
1
1
1
1
1
1
1
1
1
1
1
1
1
1
1
1
1
1
1
1
1
1
1
1
1
1
1
1
1
1
1
1
1
1
1
1
1
1
1
1
1
1
1
1
1.01157
3.05705
8.32124
8.94923
8.88876
8.86021
8.83662
8.81679
8.79376
8.76673
8.73263
8.69121
8.64568
8.59397
8.53309
8.47216
8.40985
8.33735
8.26083
8.17872
8.09256
7.99803
7.89612
7.78819
7.67453
7.55612
7.43241
7.30236
7.16706
7.02794
6.87762
6.72517
6.5742
6.41558
6.24719
6.08138
5.91695
1
1
1
1
1
1
1
1
1
1
1
1
1
1
1
1
1
1
1
1
1
1
1
1
1
1
1
1
1
1
1
1
1
1
1
1
1
1
1
1
1
1
1
1
1
1
1
1
1
1
1
1
1
1
1
1
1
1
1
1.00002
1.11074
4.38035
8.6008
8.79103
8.76554
8.7664
8.75223
8.73022
8.70106
8.66493
8.62177
8.57533
8.52515
8.46363
8.40266
8.33697
8.26308
8.1853
8.10346
8.01872
7.92833
7.82856
7.72373
7.61375
7.49927
7.38011
7.25541
7.12717
6.99356
6.85097
6.70833
6.5652
6.41159
6.25141
6.09766
5.9422
1
1
1
1
1
1
1
1
1
1
1
1
1
1
1
1
1
1
1
1
1
1
1
1
1
1
1
1
1
1
1
1
1
1
1
1
1
1
1
1
1
1
1
1
1
1
1
1
1
1
1
1
1
1
1
1
1
1
1
1
1.00053
1.29763
5.19812
8.59184
8.71805
8.71736
8.70521
8.67886
8.64547
8.60547
8.55916
8.50999
8.45702
8.39666
8.33463
8.26622
8.19195
8.11393
8.03212
7.94672
7.85828
7.76293
7.66002
7.55434
7.44535
7.33133
7.21224
7.08989
6.96069
6.82503
6.69038
6.55255
6.40384
6.25303
6.11039
5.96513
1
1
1
1
1
1
1
1
1
1
1
1
1
1
1
1
1
1
1
1
1
1
1
1
1
1
1
1
1
1
1
1
1
1
1
1
1
1
1
1
1
1
1
1
1
1
1
1
1
1
1
1
1
1
1
1
1
1
1
1
1
1.00289
1.4936
5.88389
8.58826
8.69342
8.66472
8.63163
8.5941
8.54921
8.50042
8.45077
8.39697
8.33744
8.27384
8.20437
8.12997
8.05185
7.97004
7.88435
7.79606
7.70361
7.6042
7.50148
7.39687
7.2874
7.17348
7.05601
6.93096
6.80111
6.6719
6.53799
6.39705
6.25905
6.12906
5.99854
1
1
1
1
1
1
1
1
1
1
1
1
1
1
1
1
1
1
1
1
1
1
1
1
1
1
1
1
1
1
1
1
1
1
1
1
1
1
1
1
1
1
1
1
1
1
1
1
1
1
1
1
1
1
1
1
1
1
1
1
1
1
1.0073
1.72369
6.46545
8.56822
8.61451
8.58491
8.54188
8.49541
8.44417
8.39189
8.33512
8.27413
8.20913
8.13958
8.06656
7.99009
7.90986
7.82579
7.73848
7.6477
7.55244
7.45352
7.3511
7.24454
7.13458
7.0214
6.90029
6.77593
6.6539
6.52848
6.40302
6.28647
6.17897
6.07474
1
1
1
1
1
1
1
1
1
1
1
1
1
1
1
1
1
1
1
1
1
1
1
1
1
1
1
1
1
1
1
1
1
1
1
1
1
1
1
1
1
1
1
1
1
1
1
1
1
1
1
1
1
1
1
1
1
1
1
1
1
1
1.00001
1.0148
1.98668
6.9078
8.53873
8.54546
8.50619
8.4532
8.39879
8.34158
8.27928
8.21535
8.14813
8.07828
8.00667
7.93225
7.85443
7.77318
7.68866
7.60015
7.50795
7.41157
7.31081
7.20614
7.098
6.9878
6.87228
6.75928
6.65364
6.54975
6.46039
6.37992
6.31948
6.26809
1
1
1
1
1
1
1
1
1
1
1
1
1
1
1
1
1
1
1
1
1
1
1
1
1
1
1
1
1
1
1
1
1
1
1
1
1
1
1
1
1
1
1
1
1
1
1
1
1
1
1
1
1
1
1
1
1
1
1
1
1
1
1
1.00004
1.02661
2.24892
7.29967
8.50025
8.4594
8.40986
8.34564
8.28483
8.22113
8.15616
8.08816
8.01945
7.94973
7.87751
7.80182
7.72264
7.63974
7.5528
7.46288
7.36883
7.27046
7.16819
7.0647
6.96429
6.86602
6.78263
6.71848
6.6619
6.63316
6.61664
6.61641
6.59897
1
1
1
1
1
1
1
1
1
1
1
1
1
1
1
1
1
1
1
1
1
1
1
1
1
1
1
1
1
1
1
1
1
1
1
1
1
1
1
1
1
1
1
1
1
1
1
1
1
1
1
1
1
1
1
1
1
1
1
1
1
1
1
1
1.00008
1.04198
2.65677
7.52993
8.38676
8.33342
8.28848
8.2284
8.16478
8.10071
8.0358
7.97074
7.904
7.83388
7.75913
7.67977
7.59552
7.5083
7.41927
7.32626
7.23308
7.13849
7.05238
6.98469
6.93698
6.91717
6.918
6.93635
6.96621
6.98041
6.97651
6.93566
1
1
1
1
1
1
1
1
1
1
1
1
1
1
1
1
1
1
1
1
1
1
1
1
1
1
1
1
1
1
1
1
1
1
1
1
1
1
1
1
1
1
1
1
1
1
1
1
1
1
1
1
1
1
1
1
1
1
1
1
1
1
1
1
1
1.00015
1.07251
2.94088
7.57539
8.27078
8.21839
8.16259
8.10893
8.0529
7.99451
7.93282
7.8672
7.79664
7.72085
7.63993
7.55389
7.46725
7.37858
7.29311
7.21499
7.15944
7.13316
7.13476
7.17066
7.2388
7.28523
7.32705
7.34158
7.30777
7.25166
7.17336
1
1
1
1
1
1
1
1
1
1
1
1
1
1
1
1
1
1
1
1
1
1
1
1
1
1
1
1
1
1
1
1
1
1
1
1
1
1
1
1
1
1
1
1
1
1
1
1
1
1
1
1
1
1
1
1
1
1
1
1
1
1
1
1
1
1
1.00034
1.10055
3.03394
7.49894
8.16004
8.11038
8.06217
8.01148
7.95806
7.89963
7.83489
7.76346
7.68314
7.59966
7.51183
7.43255
7.35619
7.3065
7.29346
7.3158
7.39141
7.48808
7.58823
7.6529
7.66729
7.66045
7.59979
7.51608
7.42903
7.33304
1
1
1
1
1
1
1
1
1
1
1
1
1
1
1
1
1
1
1
1
1
1
1
1
1
1
1
1
1
1
1
1
1
1
1
1
1
1
1
1
1
1
1
1
1
1
1
1
1
1
1
1
1
1
1
1
1
1
1
1
1
1
1
1
1
1
1
1.00058
1.11276
2.97314
7.36822
8.07456
8.03127
7.98318
7.92667
7.86676
7.79838
7.72451
7.64318
7.56236
7.48778
7.43744
7.42944
7.46954
7.57987
7.7147
7.8598
7.9582
7.99713
7.97689
7.92805
7.86422
7.75802
7.65295
7.56347
7.47066
1
1
1
1
1
1
1
1
1
1
1
1
1
1
1
1
1
1
1
1
1
1
1
1
1
1
1
1
1
1
1
1
1
1
1
1
1
1
1
1
1
1
1
1
1
1
1
1
1
1
1
1
1
1
1
1
1
1
1
1
1
1
1
1
1
1
1
1
1.00071
1.10795
2.89043
7.18867
7.98298
7.94851
7.88992
7.82775
7.75463
7.67903
7.60421
7.54863
7.53847
7.58863
7.71778
7.90484
8.1059
8.23143
8.30656
8.31732
8.25136
8.16278
8.08148
7.99642
7.88378
7.7831
7.69967
7.61461
1
1
1
1
1
1
1
1
1
1
1
1
1
1
1
1
1
1
1
1
1
1
1
1
1
1
1
1
1
1
1
1
1
1
1
1
1
1
1
1
1
1
1
1
1
1
1
1
1
1
1
1
1
1
1
1
1
1
1
1
1
1
1
1
1
1
1
1
1
1.00068
1.09944
2.75763
6.94728
7.88501
7.86137
7.78595
7.70887
7.64609
7.61623
7.66224
7.81244
8.04456
8.31026
8.5111
8.59566
8.61266
8.57875
8.50262
8.39197
8.29078
8.20504
8.11677
8.0135
7.92796
7.84992
7.77069
1
1
1
1
1
1
1
1
1
1
1
1
1
1
1
1
1
1
1
1
1
1
1
1
1
1
1
1
1
1
1
1
1
1
1
1
1
1
1
1
1
1
1
1
1
1
1
1
1
1
1
1
1
1
1
1
1
1
1
1
1
1
1
1
1
1
1
1
1
1
1.0006
1.0861
2.56982
6.62256
7.76487
7.72131
7.68896
7.69984
7.85538
8.14435
8.4773
8.73801
8.87686
8.91344
8.87085
8.805
8.7203
8.61503
8.50723
8.42359
8.34408
8.25243
8.15788
8.08764
8.01251
7.93177
1
1
1
1
1
1
1
1
1
1
1
1
1
1
1
1
1
1
1
1
1
1
1
1
1
1
1
1
1
1
1
1
1
1
1
1
1
1
1
1
1
1
1
1
1
1
1
1
1
1
1
1
1
1
1
1
1
1
1
1
1
1
1
1
1
1
1
1
1
1
1
1.00049
1.06878
2.33922
6.15806
7.6213
7.88468
8.11773
8.58331
8.9704
9.1712
9.23044
9.17242
9.08255
8.99999
8.91313
8.81127
8.70744
8.62805
8.56721
8.48954
8.39266
8.31056
8.25397
8.17994
8.09185
1
1
1
1
1
1
1
1
1
1
1
1
1
1
1
1
1
1
1
1
1
1
1
1
1
1
1
1
1
1
1
1
1
1
1
1
1
1
1
1
1
1
1
1
1
1
1
1
1
1
1
1
1
1
1
1
1
1
1
1
1
1
1
1
1
1
1
1
1
1
1
1
1.00035
1.0505
2.05495
5.74578
8.39934
9.10804
9.43076
9.52323
9.49613
9.41478
9.30277
9.19501
9.11487
9.02774
8.92387
8.83033
8.77023
8.71693
8.63323
8.53066
8.46011
8.41158
8.33333
8.23956
1
1
1
1
1
1
1
1
1
1
1
1
1
1
1
1
1
1
1
1
1
1
1
1
1
1
1
1
1
1
1
1
1
1
1
1
1
1
1
1
1
1
1
1
1
1
1
1
1
1
1
1
1
1
1
1
1
1
1
1
1
1
1
1
1
1
1
1
1
1
1
1
1
1.00023
1.03221
1.85455
8.05975
10.2168
9.9036
9.75168
9.61524
9.48958
9.36973
9.26894
9.19826
9.12459
9.04369
8.97593
8.92988
8.87877
8.7877
8.68497
8.62079
8.5681
8.47679
8.37975
1
1
1
1
1
1
1
1
1
1
1
1
1
1
1
1
1
1
1
1
1
1
1
1
1
1
1
1
1
1
1
1
1
1
1
1
1
1
1
1
1
1
1
1
1
1
1
1
1
1
1
1
1
1
1
1
1
1
1
1
1
1
1
1
1
1
1
1
1
1
1
1
1
1
1.00014
1.02079
5.79784
10.0751
9.79492
9.68932
9.59956
9.51783
9.44601
9.38903
9.33774
9.2777
9.20674
9.13888
9.08381
9.01923
8.92148
8.82771
8.7719
8.7161
8.62224
8.53763
1
1
1
1
1
1
1
1
1
1
1
1
1
1
1
1
1
1
1
1
1
1
1
1
1
1
1
1
1
1
1
1
1
1
1
1
1
1
1
1
1
1
1
1
1
1
1
1
1
1
1
1
1
1
1
1
1
1
1
1
1
1
1
1
1
1
1
1
1
1
1
1
1
1
1
1.00001
2.64519
8.80046
9.83303
9.75536
9.73828
9.68863
9.63404
9.57134
9.511
9.44938
9.37526
9.29673
9.22479
9.14269
9.04651
8.965
8.91014
8.84972
8.75496
8.67774
1
1
1
1
1
1
1
1
1
1
1
1
1
1
1
1
1
1
1
1
1
1
1
1
1
1
1
1
1
1
1
1
1
1
1
1
1
1
1
1
1
1
1
1
1
1
1
1
1
1
1
1
1
1
1
1
1
1
1
1
1
1
1
1
1
1
1
1
1
1
1
1
1
1
1
1
1.08339
6.50498
9.9336
9.93636
9.88372
9.79883
9.72727
9.66279
9.59479
9.52276
9.4475
9.37286
9.30314
9.23006
9.1651
9.10966
9.05608
8.98474
8.9002
8.8338
1
1
1
1
1
1
1
1
1
1
1
1
1
1
1
1
1
1
1
1
1
1
1
1
1
1
1
1
1
1
1
1
1
1
1
1
1
1
1
1
1
1
1
1
1
1
1
1
1
1
1
1
1
1
1
1
1
1
1
1
1
1
1
1
1
1
1
1
1
1
1
1
1
1
1
1
1.00018
3.42306
9.16366
9.86919
9.82412
9.79886
9.75371
9.70966
9.66378
9.61058
9.55634
9.49944
9.43983
9.37899
9.3183
9.25325
9.18593
9.11035
9.04353
8.98828
1
1
1
1
1
1
1
1
1
1
1
1
1
1
1
1
1
1
1
1
1
1
1
1
1
1
1
1
1
1
1
1
1
1
1
1
1
1
1
1
1
1
1
1
1
1
1
1
1
1
1
1
1
1
1
1
1
1
1
1
1
1
1
1
1
1
1
1
1
1
1
1
1
1
1
1
1
1.31885
7.56714
10.0302
9.92758
9.85779
9.82234
9.78366
9.73814
9.68808
9.63437
9.57715
9.51849
9.45985
9.40155
9.34118
9.27821
9.21387
9.15202
9.08844
1
1
1
1
1
1
1
1
1
1
1
1
1
1
1
1
1
1
1
1
1
1
1
1
1
1
1
1
1
1
1
1
1
1
1
1
1
1
1
1
1
1
1
1
1
1
1
1
1
1
1
1
1
1
1
1
1
1
1
1
1
1
1
1
1
1
1
1
1
1
1
1
1
1
1
1
1
1.0031
4.98785
9.68677
9.90459
9.87443
9.84591
9.80251
9.75759
9.71146
9.66601
9.61955
9.57213
9.52283
9.47264
9.42207
9.36944
9.31749
9.26071
9.20154
1
1
1
1
1
1
1
1
1
1
1
1
1
1
1
1
1
1
1
1
1
1
1
1
1
1
1
1
1
1
1
1
1
1
1
1
1
1
1
1
1
1
1
1
1
1
1
1
1
1
1
1
1
1
1
1
1
1
1
1
1
1
1
1
1
1
1
1
1
1
1
1
1
1
1
1
1
0.999998
2.45454
8.72755
10.0439
9.97268
9.9179
9.86703
9.82063
9.7759
9.73291
9.69099
9.64863
9.60455
9.55525
9.50176
9.44684
9.39228
9.33726
9.28218
1
1
1
1
1
1
1
1
1
1
1
1
1
1
1
1
1
1
1
1
1
1
1
1
1
1
1
1
1
1
1
1
1
1
1
1
1
1
1
1
1
1
1
1
1
1
1
1
1
1
1
1
1
1
1
1
1
1
1
1
1
1
1
1
1
1
1
1
1
1
1
1
1
1
1
1
1
1
1.07771
6.8276
10.0809
10.0508
9.9695
9.91858
9.86897
9.82323
9.7787
9.73457
9.68994
9.64454
9.59721
9.54964
9.50108
9.44984
9.39597
9.34054
1
1
1
1
1
1
1
1
1
1
1
1
1
1
1
1
1
1
1
1
1
1
1
1
1
1
1
1
1
1
1
1
1
1
1
1
1
1
1
1
1
1
1
1
1
1
1
1
1
1
1
1
1
1
1
1
1
1
1
1
1
1
1
1
1
1
1
1
1
1
1
1
1
1
1
1
1
1
1.00013
4.46527
9.64291
9.988
9.95725
9.93336
9.89476
9.85563
9.81436
9.77138
9.72721
9.68183
9.63477
9.58724
9.53775
9.48737
9.4368
9.38513
1
1
1
1
1
1
1
1
1
1
1
1
1
1
1
1
1
1
1
1
1
1
1
1
1
1
1
1
1
1
1
1
1
1
1
1
1
1
1
1
1
1
1
1
1
1
1
1
1
1
1
1
1
1
1
1
1
1
1
1
1
1
1
1
1
1
1
1
1
1
1
1
1
1
1
1
1
1
1
2.3595
8.68661
10.176
10.0887
10.0405
9.98855
9.94116
9.89295
9.8442
9.79568
9.74668
9.69707
9.64761
9.59702
9.54632
9.49583
9.44472
1
1
1
1
1
1
1
1
1
1
1
1
1
1
1
1
1
1
1
1
1
1
1
1
1
1
1
1
1
1
1
1
1
1
1
1
1
1
1
1
1
1
1
1
1
1
1
1
1
1
1
1
1
1
1
1
1
1
1
1
1
1
1
1
1
1
1
1
1
1
1
1
1
1
1
1
1
1
1
1.07626
7.08129
10.2231
10.1377
10.0666
10.0164
9.97083
9.92577
9.87973
9.83328
9.78555
9.73732
9.68878
9.63918
9.58946
9.53942
9.48924
1
1
1
1
1
1
1
1
1
1
1
1
1
1
1
1
1
1
1
1
1
1
1
1
1
1
1
1
1
1
1
1
1
1
1
1
1
1
1
1
1
1
1
1
1
1
1
1
1
1
1
1
1
1
1
1
1
1
1
1
1
1
1
1
1
1
1
1
1
1
1
1
1
1
1
1
1
1
1
1.00014
5.17877
9.94465
10.1094
10.0809
10.0513
10.0108
9.96707
9.92093
9.87414
9.82612
9.77805
9.72965
9.68048
9.63141
9.58173
9.53202
1
1
1
1
1
1
1
1
1
1
1
1
1
1
1
1
1
1
1
1
1
1
1
1
1
1
1
1
1
1
1
1
1
1
1
1
1
1
1
1
1
1
1
1
1
1
1
1
1
1
1
1
1
1
1
1
1
1
1
1
1
1
1
1
1
1
1
1
1
1
1
1
1
1
1
1
1
1
1
1
3.28946
9.31544
10.1554
10.0986
10.0671
10.0257
9.98279
9.93874
9.89449
9.8492
9.8038
9.75776
9.7109
9.66399
9.61623
9.56804
1
1
1
1
1
1
1
1
1
1
1
1
1
1
1
1
1
1
1
1
1
1
1
1
1
1
1
1
1
1
1
1
1
1
1
1
1
1
1
1
1
1
1
1
1
1
1
1
1
1
1
1
1
1
1
1
1
1
1
1
1
1
1
1
1
1
1
1
1
1
1
1
1
1
1
1
1
1
1
1
1.87691
8.39174
10.2999
10.2013
10.1491
10.0952
10.0451
9.99697
9.95025
9.90395
9.85801
9.81159
9.76449
9.71708
9.66876
9.61991
1
1
1
1
1
1
1
1
1
1
1
1
1
1
1
1
1
1
1
1
1
1
1
1
1
1
1
1
1
1
1
1
1
1
1
1
1
1
1
1
1
1
1
1
1
1
1
1
1
1
1
1
1
1
1
1
1
1
1
1
1
1
1
1
1
1
1
1
1
1
1
1
1
1
1
1
1
1
1
1
1.03977
6.97062
10.3167
10.2342
10.1663
10.1123
10.0645
10.0196
9.97539
9.93119
9.8866
9.84125
9.79513
9.74851
9.70107
9.6529
1
1
1
1
1
1
1
1
1
1
1
1
1
1
1
1
1
1
1
1
1
1
1
1
1
1
1
1
1
1
1
1
1
1
1
1
1
1
1
1
1
1
1
1
1
1
1
1
1
1
1
1
1
1
1
1
1
1
1
1
1
1
1
1
1
1
1
1
1
1
1
1
1
1
1
1
1
1
1
1
1.00004
5.45014
10.0794
10.1938
10.1552
10.1238
10.0851
10.0444
10.0015
9.95775
9.91315
9.86786
9.82194
9.7756
9.72862
9.68109
1
1
1
1
1
1
1
1
1
1
1
1
1
1
1
1
1
1
1
1
1
1
1
1
1
1
1
1
1
1
1
1
1
1
1
1
1
1
1
1
1
1
1
1
1
1
1
1
1
1
1
1
1
1
1
1
1
1
1
1
1
1
1
1
1
1
1
1
1
1
1
1
1
1
1
1
1
1
1
1
1
4.0316
9.7015
10.2179
10.1704
10.1453
10.1096
10.0721
10.0305
9.98721
9.94261
9.89719
9.85122
9.80492
9.75807
9.71085
1
1
1
1
1
1
1
1
1
1
1
1
1
1
1
1
1
1
1
1
1
1
1
1
1
1
1
1
1
1
1
1
1
1
1
1
1
1
1
1
1
1
1
1
1
1
1
1
1
1
1
1
1
1
1
1
1
1
1
1
1
1
1
1
1
1
1
1
1
1
1
1
1
1
1
1
1
1
1
1
1
2.79322
9.15695
10.2737
10.2052
10.1721
10.1292
10.087
10.043
9.99871
9.95395
9.90903
9.86401
9.81865
9.77273
9.72674
1
1
1
1
1
1
1
1
1
1
1
1
1
1
1
1
1
1
1
1
1
1
1
1
1
1
1
1
1
1
1
1
1
1
1
1
1
1
1
1
1
1
1
1
1
1
1
1
1
1
1
1
1
1
1
1
1
1
1
1
1
1
1
1
1
1
1
1
1
1
1
1
1
1
1
1
1
1
1
1
1
1.84358
8.4141
10.3366
10.2521
10.2077
10.1611
10.1167
10.0728
10.0293
9.98587
9.94222
9.89821
9.85374
9.80867
9.76324
1
1
1
1
1
1
1
1
1
1
1
1
1
1
1
1
1
1
1
1
1
1
1
1
1
1
1
1
1
1
1
1
1
1
1
1
1
1
1
1
1
1
1
1
1
1
1
1
1
1
1
1
1
1
1
1
1
1
1
1
1
1
1
1
1
1
1
1
1
1
1
1
1
1
1
1
1
1
1
1
1
1.27674
7.49461
10.3808
10.2867
10.2259
10.1747
10.1282
10.085
10.0423
9.99949
9.9566
9.91341
9.86984
9.82571
9.78128
1
1
1
1
1
1
1
1
1
1
1
1
1
1
1
1
1
1
1
1
1
1
1
1
1
1
1
1
1
1
1
1
1
1
1
1
1
1
1
1
1
1
1
1
1
1
1
1
1
1
1
1
1
1
1
1
1
1
1
1
1
1
1
1
1
1
1
1
1
1
1
1
1
1
1
1
1
1
1
1
1
1.00533
6.51627
10.2892
10.2909
10.2282
10.1879
10.1449
10.1033
10.061
10.0181
9.97516
9.9318
9.88818
9.8441
9.79988
1
1
1
1
1
1
1
1
1
1
1
1
1
1
1
1
1
1
1
1
1
1
1
1
1
1
1
1
1
1
1
1
1
1
1
1
1
1
1
1
1
1
1
1
1
1
1
1
1
1
1
1
1
1
1
1
1
1
1
1
1
1
1
1
1
1
1
1
1
1
1
1
1
1
1
1
1
1
1
1
1
1.00001
5.56077
10.1456
10.2771
10.223
10.1924
10.1534
10.1142
10.0736
10.0321
9.9904
9.94802
9.90511
9.86138
9.81749
1
1
1
1
1
1
1
1
1
1
1
1
1
1
1
1
1
1
1
1
1
1
1
1
1
1
1
1
1
1
1
1
1
1
1
1
1
1
1
1
1
1
1
1
1
1
1
1
1
1
1
1
1
1
1
1
1
1
1
1
1
1
1
1
1
1
1
1
1
1
1
1
1
1
1
1
1
1
1
1
1
1
4.6447
9.96989
10.2959
10.2391
10.2103
10.172
10.1339
10.0941
10.0531
10.0116
9.96919
9.92636
9.88259
9.83842
1
1
1
1
1
1
1
1
1
1
1
1
1
1
1
1
1
1
1
1
1
1
1
1
1
1
1
1
1
1
1
1
1
1
1
1
1
1
1
1
1
1
1
1
1
1
1
1
1
1
1
1
1
1
1
1
1
1
1
1
1
1
1
1
1
1
1
1
1
1
1
1
1
1
1
1
1
1
1
1
1
1
3.86057
9.73808
10.3232
10.2525
10.2206
10.1818
10.1441
10.1048
10.0646
10.0236
9.98165
9.93947
9.8963
9.85247
1
1
1
1
1
1
1
1
1
1
1
1
1
1
1
1
1
1
1
1
1
1
1
1
1
1
1
1
1
1
1
1
1
1
1
1
1
1
1
1
1
1
1
1
1
1
1
1
1
1
1
1
1
1
1
1
1
1
1
1
1
1
1
1
1
1
1
1
1
1
1
1
1
1
1
1
1
1
1
1
1
1
3.20181
9.49433
10.3491
10.2688
10.2338
10.1932
10.1545
10.1145
10.0741
10.0329
9.99122
9.94937
9.9068
9.86348
1
1
1
1
1
1
1
1
1
1
1
1
1
1
1
1
1
1
1
1
1
1
1
1
1
1
1
1
1
1
1
1
1
1
1
1
1
1
1
1
1
1
1
1
1
1
1
1
1
1
1
1
1
1
1
1
1
1
1
1
1
1
1
1
1
1
1
1
1
1
1
1
1
1
1
1
1
1
1
1
1
1
2.67335
9.24509
10.3623
10.28
10.2438
10.2024
10.1632
10.1227
10.0825
10.0412
9.99987
9.95813
9.91589
9.87287
1
1
1
1
1
1
1
1
1
1
1
1
1
1
1
1
1
1
1
1
1
1
1
1
1
1
1
1
1
1
1
1
1
1
1
1
1
1
1
1
1
1
1
1
1
1
1
1
1
1
1
1
1
1
1
1
1
1
1
1
1
1
1
1
1
1
1
1
1
1
1
1
1
1
1
1
1
1
1
1
1
1
2.28534
8.96801
10.3724
10.2899
10.2527
10.2109
10.1714
10.1306
10.0904
10.0491
10.0081
9.96637
9.92421
9.88143
1
1
1
1
1
1
1
1
1
1
1
1
1
1
1
1
1
1
1
1
1
1
1
1
1
1
1
1
1
1
1
1
1
1
1
1
1
1
1
1
1
1
1
1
1
1
1
1
1
1
1
1
1
1
1
1
1
1
1
1
1
1
1
1
1
1
1
1
1
1
1
1
1
1
1
1
1
1
1
1
1
1
2.01454
8.70297
10.3741
10.2956
10.2585
10.2172
10.1777
10.137
10.0969
10.0558
10.0151
9.97339
9.93122
9.88875
1
1
1
1
1
1
1
1
1
1
1
1
1
1
1
1
1
1
1
1
1
1
1
1
1
1
1
1
1
1
1
1
1
1
1
1
1
1
1
1
1
1
1
1
1
1
1
1
1
1
1
1
1
1
1
1
1
1
1
1
1
1
1
1
1
1
1
1
1
1
1
1
1
1
1
1
1
1
1
1
1
1
1.82713
8.47115
10.3691
10.2968
10.2609
10.2206
10.1816
10.1414
10.1016
10.061
10.0208
9.97914
9.93691
9.89482
1
1
1
1
1
1
1
1
1
1
1
1
1
1
1
1
1
1
1
1
1
1
1
1
1
1
1
1
1
1
1
1
1
1
1
1
1
1
1
1
1
1
1
1
1
1
1
1
1
1
1
1
1
1
1
1
1
1
1
1
1
1
1
1
1
1
1
1
1
1
1
1
1
1
1
1
1
1
1
1
1
1
1.69949
8.28774
10.3641
10.2969
10.2615
10.2223
10.184
10.1444
10.1049
10.0649
10.0249
9.98324
9.94102
9.8992
1
1
1
1
1
1
1
1
1
1
1
1
1
1
1
1
1
1
1
1
1
1
1
1
1
1
1
1
1
1
1
1
1
1
1
1
1
1
1
1
1
1
1
1
1
1
1
1
1
1
1
1
1
1
1
1
1
1
1
1
1
1
1
1
1
1
1
1
1
1
1
1
1
1
1
1
1
1
1
1
1
1
1.61791
8.15886
10.3593
10.2958
10.2601