/*--------------------------------*- C++ -*----------------------------------*\
  =========                 |
  \\      /  F ield         | OpenFOAM: The Open Source CFD Toolbox
   \\    /   O peration     | Website:  https://openfoam.org
    \\  /    A nd           | Version:  7
     \\/     M anipulation  |
\*---------------------------------------------------------------------------*/
FoamFile
{
    version     2.0;
    format      ascii;
    class       volScalarField;
    location    "8.4";
    object      rho;
}
// * * * * * * * * * * * * * * * * * * * * * * * * * * * * * * * * * * * * * //

dimensions      [1 -3 0 0 0 0 0];

internalField   nonuniform List<scalar> 
19968
(
1.40001
1.40001
1.40001
1.40001
1.40001
1.40001
1.40001
1.40001
1.40001
1.40001
1.40001
1.40001
1.40001
1.40001
1.40001
1.40001
1.40001
1.40001
1.40001
1.40001
1.40001
1.40001
1.40001
1.40001
1.40001
1.40001
1.40001
1.40001
1.40001
1.40001
1.40001
1.40001
1.40001
1.40001
1.40001
1.40001
1.40001
1.40001
1.40001
1.40001
1.40001
1.40001
1.40001
1.40001
1.40001
1.40001
1.40001
1.40001
1.71582
4.59269
5.41806
5.43211
5.45453
5.47792
5.50269
5.52617
5.54778
5.56778
5.5866
5.60512
5.62395
5.64284
5.66168
5.68034
5.6986
5.71681
5.73481
5.75165
5.76675
5.78059
5.794
5.80746
5.82103
5.83465
5.84827
5.86196
5.87581
5.88964
5.90292
5.91508
5.92579
5.93508
5.94319
5.95047
5.95726
5.96394
5.97084
5.97817
5.9859
5.9936
6.00053
6.00594
6.00942
6.01105
6.01156
6.01156
1.40001
1.40001
1.40001
1.40001
1.40001
1.40001
1.40001
1.40001
1.40001
1.40001
1.40001
1.40001
1.40001
1.40001
1.40001
1.40001
1.40001
1.40001
1.40001
1.40001
1.40001
1.40001
1.40001
1.40001
1.40001
1.40001
1.40001
1.40001
1.40001
1.40001
1.40001
1.40001
1.40001
1.40001
1.40001
1.40001
1.40001
1.40001
1.40001
1.40001
1.40001
1.40001
1.40001
1.40001
1.40001
1.40001
1.40001
1.40001
1.6987
4.56739
5.41488
5.43145
5.45515
5.47819
5.50256
5.52564
5.54678
5.56647
5.58524
5.60384
5.62284
5.64179
5.66061
5.67915
5.69744
5.71568
5.73366
5.7504
5.76538
5.77911
5.79244
5.8059
5.81954
5.83325
5.84691
5.86057
5.87433
5.88803
5.9012
5.9133
5.92401
5.93334
5.94153
5.94888
5.95574
5.96243
5.96927
5.97646
5.98398
5.99143
5.99812
6.00336
6.00677
6.00843
6.00897
6.00904
1.40001
1.40001
1.40001
1.40001
1.40001
1.40001
1.40001
1.40001
1.40001
1.40001
1.40001
1.40001
1.40001
1.40001
1.40001
1.40001
1.40001
1.40001
1.40001
1.40001
1.40001
1.40001
1.40001
1.40001
1.40001
1.40001
1.40001
1.40001
1.40001
1.40001
1.40001
1.40001
1.40001
1.40001
1.40001
1.40001
1.40001
1.40001
1.40001
1.40001
1.40001
1.40001
1.40001
1.40001
1.40001
1.40001
1.40001
1.40001
1.66089
4.51413
5.41499
5.42962
5.4535
5.47603
5.50006
5.52283
5.54366
5.56311
5.58175
5.60031
5.61953
5.63871
5.65782
5.67655
5.69502
5.71333
5.73119
5.74772
5.7625
5.77609
5.78937
5.80286
5.81663
5.83046
5.84416
5.85775
5.87136
5.88488
5.89789
5.9099
5.92061
5.93002
5.93836
5.9459
5.95291
5.95968
5.9665
5.97355
5.98081
5.98797
5.99443
5.99953
6.00292
6.00465
6.00527
6.00544
1.40001
1.40001
1.40001
1.40001
1.40001
1.40001
1.40001
1.40001
1.40001
1.40001
1.40001
1.40001
1.40001
1.40001
1.40001
1.40001
1.40001
1.40001
1.40001
1.40001
1.40001
1.40001
1.40001
1.40001
1.40001
1.40001
1.40001
1.40001
1.40001
1.40001
1.40001
1.40001
1.40001
1.40001
1.40001
1.40001
1.40001
1.40001
1.40001
1.40001
1.40001
1.40001
1.40001
1.40001
1.40001
1.40001
1.40001
1.40001
1.60642
4.42538
5.41399
5.4286
5.45148
5.4733
5.49704
5.5196
5.54
5.55886
5.57704
5.59536
5.61474
5.6342
5.65376
5.67283
5.69154
5.70989
5.72752
5.74375
5.7583
5.7718
5.78509
5.79866
5.81252
5.82642
5.84008
5.85352
5.86689
5.88014
5.89293
5.90482
5.91553
5.92505
5.93354
5.94123
5.94833
5.95506
5.96166
5.96835
5.97517
5.9819
5.98806
5.99309
5.99661
5.99863
5.9995
5.99997
1.40001
1.40001
1.40001
1.40001
1.40001
1.40001
1.40001
1.40001
1.40001
1.40001
1.40001
1.40001
1.40001
1.40001
1.40001
1.40001
1.40001
1.40001
1.40001
1.40001
1.40001
1.40001
1.40001
1.40001
1.40001
1.40001
1.40001
1.40001
1.40001
1.40001
1.40001
1.40001
1.40001
1.40001
1.40001
1.40001
1.40001
1.40001
1.40001
1.40001
1.40001
1.40001
1.40001
1.40001
1.40001
1.40001
1.40001
1.40001
1.53781
4.30578
5.41631
5.42619
5.44865
5.46964
5.49258
5.51442
5.53422
5.55256
5.57043
5.58873
5.60844
5.62834
5.64846
5.66793
5.68685
5.70518
5.72251
5.73842
5.75283
5.76637
5.77974
5.79338
5.80732
5.82123
5.83483
5.8481
5.86122
5.87421
5.88681
5.89865
5.90948
5.91926
5.92807
5.93603
5.94326
5.94989
5.95611
5.96215
5.96813
5.974
5.97945
5.98403
5.98738
5.98945
5.99041
5.99106
1.40001
1.40001
1.40001
1.40001
1.40001
1.40001
1.40001
1.40001
1.40001
1.40001
1.40001
1.40001
1.40001
1.40001
1.40001
1.40001
1.40001
1.40001
1.40001
1.40001
1.40001
1.40001
1.40001
1.40001
1.40001
1.40001
1.40001
1.40001
1.40001
1.40001
1.40001
1.40001
1.40001
1.40001
1.40001
1.40001
1.40001
1.40001
1.40001
1.40001
1.40001
1.40001
1.40001
1.40001
1.40001
1.40001
1.40001
1.40001
1.42113
4.11247
5.42032
5.42615
5.44712
5.46816
5.49018
5.5109
5.52967
5.54711
5.5644
5.58257
5.60253
5.62285
5.64334
5.66281
5.68132
5.69908
5.71573
5.73122
5.74548
5.75901
5.77227
5.78566
5.7993
5.81294
5.82628
5.83923
5.85194
5.86445
5.87661
5.8882
5.89905
5.90907
5.91827
5.92662
5.93411
5.94079
5.94684
5.95249
5.95799
5.96339
5.96854
5.97306
5.97655
5.97889
5.98008
5.98097
1.40001
1.40001
1.40001
1.40001
1.40001
1.40001
1.40001
1.40001
1.40001
1.40001
1.40001
1.40001
1.40001
1.40001
1.40001
1.40001
1.40001
1.40001
1.40001
1.40001
1.40001
1.40001
1.40001
1.40001
1.40001
1.40001
1.40001
1.40001
1.40001
1.40001
1.40001
1.40001
1.40001
1.40001
1.40001
1.40001
1.40001
1.40001
1.40001
1.40001
1.40001
1.40001
1.40001
1.40001
1.40001
1.40001
1.40001
1.40001
1.40023
3.81542
5.38186
5.41074
5.43201
5.45454
5.47677
5.49752
5.51632
5.53373
5.55076
5.56868
5.58833
5.60853
5.62904
5.64848
5.6668
5.68452
5.70125
5.717
5.73165
5.7455
5.75881
5.77205
5.78552
5.79912
5.81249
5.8254
5.83786
5.84994
5.86169
5.87307
5.88403
5.89445
5.9042
5.91306
5.92087
5.92763
5.93348
5.93874
5.94375
5.94869
5.95354
5.95796
5.96153
5.96408
5.96541
5.96649
1.40001
1.40001
1.40001
1.40001
1.40001
1.40001
1.40001
1.40001
1.40001
1.40001
1.40001
1.40001
1.40001
1.40001
1.40001
1.40001
1.40001
1.40001
1.40001
1.40001
1.40001
1.40001
1.40001
1.40001
1.40001
1.40001
1.40001
1.40001
1.40001
1.40001
1.40001
1.40001
1.40001
1.40001
1.40001
1.40001
1.40001
1.40001
1.40001
1.40001
1.40001
1.40001
1.40001
1.40001
1.40001
1.40001
1.40001
1.40001
1.40001
3.41711
5.32449
5.39965
5.42288
5.44774
5.47113
5.49232
5.51093
5.5279
5.54441
5.56177
5.5805
5.59958
5.61896
5.63748
5.65494
5.67221
5.68886
5.70471
5.71944
5.73314
5.74595
5.75849
5.77137
5.7847
5.79801
5.81081
5.82289
5.83433
5.84536
5.85621
5.867
5.87763
5.88775
5.89694
5.90488
5.9115
5.91701
5.9218
5.92631
5.93082
5.93538
5.93968
5.94321
5.94583
5.94717
5.94831
1.40001
1.40001
1.40001
1.40001
1.40001
1.40001
1.40001
1.40001
1.40001
1.40001
1.40001
1.40001
1.40001
1.40001
1.40001
1.40001
1.40001
1.40001
1.40001
1.40001
1.40001
1.40001
1.40001
1.40001
1.40001
1.40001
1.40001
1.40001
1.40001
1.40001
1.40001
1.40001
1.40001
1.40001
1.40001
1.40001
1.40001
1.40001
1.40001
1.40001
1.40001
1.40001
1.40001
1.40001
1.40001
1.40001
1.40001
1.40001
1.40001
2.9393
5.2312
5.3922
5.41549
5.44104
5.46531
5.4874
5.50629
5.52305
5.53902
5.55543
5.57273
5.59031
5.6081
5.62538
5.64173
5.65822
5.67451
5.69002
5.70428
5.71723
5.72901
5.74045
5.75246
5.76534
5.7785
5.79115
5.80282
5.81351
5.82363
5.8337
5.84405
5.85461
5.86491
5.87428
5.88225
5.88872
5.89399
5.89854
5.90287
5.90727
5.91178
5.91604
5.91953
5.92214
5.92343
5.92455
1.40001
1.40001
1.40001
1.40001
1.40001
1.40001
1.40001
1.40001
1.40001
1.40001
1.40001
1.40001
1.40001
1.40001
1.40001
1.40001
1.40001
1.40001
1.40001
1.40001
1.40001
1.40001
1.40001
1.40001
1.40001
1.40001
1.40001
1.40001
1.40001
1.40001
1.40001
1.40001
1.40001
1.40001
1.40001
1.40001
1.40001
1.40001
1.40001
1.40001
1.40001
1.40001
1.40001
1.40001
1.40001
1.40001
1.40001
1.40001
1.40001
2.4043
5.05559
5.39664
5.41877
5.4423
5.46588
5.48753
5.50602
5.52207
5.53691
5.55155
5.56675
5.58246
5.59849
5.61452
5.62988
5.64553
5.66116
5.67598
5.68934
5.7012
5.71161
5.7215
5.73206
5.74383
5.7562
5.76812
5.7789
5.78849
5.79739
5.80633
5.81589
5.8261
5.83638
5.84582
5.85375
5.86002
5.865
5.86925
5.8733
5.87742
5.88159
5.88544
5.88853
5.89084
5.89191
5.89285
1.40001
1.40001
1.40001
1.40001
1.40001
1.40001
1.40001
1.40001
1.40001
1.40001
1.40001
1.40001
1.40001
1.40001
1.40001
1.40001
1.40001
1.40001
1.40001
1.40001
1.40001
1.40001
1.40001
1.40001
1.40001
1.40001
1.40001
1.40001
1.40001
1.40001
1.40001
1.40001
1.40001
1.40001
1.40001
1.40001
1.40001
1.40001
1.40001
1.40001
1.40001
1.40001
1.40001
1.40001
1.40001
1.40001
1.40001
1.40001
1.40001
1.88186
4.74261
5.41253
5.40984
5.43268
5.45362
5.47546
5.49448
5.51111
5.52645
5.54123
5.55616
5.57136
5.58653
5.60168
5.61642
5.63148
5.64665
5.66097
5.67355
5.68437
5.69361
5.70213
5.71125
5.7217
5.73305
5.74404
5.75377
5.762
5.76921
5.77629
5.78402
5.79261
5.80151
5.80972
5.81646
5.82162
5.82568
5.82936
5.83321
5.83735
5.84155
5.84532
5.8483
5.85059
5.85175
5.85275
1.40001
1.40001
1.40001
1.40001
1.40001
1.40001
1.40001
1.40001
1.40001
1.40001
1.40001
1.40001
1.40001
1.40001
1.40001
1.40001
1.40001
1.40001
1.40001
1.40001
1.40001
1.40001
1.40001
1.40001
1.40001
1.40001
1.40001
1.40001
1.40001
1.40001
1.40001
1.40001
1.40001
1.40001
1.40001
1.40001
1.40001
1.40001
1.40001
1.40001
1.40001
1.40001
1.40001
1.40001
1.40001
1.40001
1.40001
1.40001
1.40001
1.42465
4.10108
5.41196
5.42174
5.43436
5.45025
5.46861
5.48586
5.50164
5.51654
5.53076
5.54474
5.55869
5.57243
5.58605
5.59967
5.61335
5.62701
5.63993
5.65123
5.66066
5.6686
5.67552
5.68295
5.69173
5.70171
5.71163
5.72041
5.72761
5.73357
5.73913
5.74517
5.75211
5.7596
5.76671
5.7726
5.77704
5.78041
5.78334
5.7862
5.78887
5.79108
5.7925
5.79327
5.79405
5.79454
5.79518
1.40001
1.40001
1.40001
1.40001
1.40001
1.40001
1.40001
1.40001
1.40001
1.40001
1.40001
1.40001
1.40001
1.40001
1.40001
1.40001
1.40001
1.40001
1.40001
1.40001
1.40001
1.40001
1.40001
1.40001
1.40001
1.40001
1.40001
1.40001
1.40001
1.40001
1.40001
1.40001
1.40001
1.40001
1.40001
1.40001
1.40001
1.40001
1.40001
1.40001
1.40001
1.40001
1.40001
1.40001
1.40001
1.40001
1.40001
1.40001
1.40001
1.40005
3.21763
5.24963
5.36181
5.38718
5.41117
5.4311
5.44898
5.4651
5.48045
5.49546
5.5103
5.52476
5.53877
5.55216
5.56536
5.57869
5.59199
5.60463
5.61592
5.62502
5.63242
5.63852
5.6448
5.65226
5.66094
5.6698
5.67774
5.68413
5.68895
5.69279
5.69649
5.70065
5.70526
5.70966
5.71304
5.71494
5.71562
5.71573
5.71585
5.71618
5.71672
5.71744
5.7182
5.71975
5.72113
5.7226
1.40001
1.40001
1.40001
1.40001
1.40001
1.40001
1.40001
1.40001
1.40001
1.40001
1.40001
1.40001
1.40001
1.40001
1.40001
1.40001
1.40001
1.40001
1.40001
1.40001
1.40001
1.40001
1.40001
1.40001
1.40001
1.40001
1.40001
1.40001
1.40001
1.40001
1.40001
1.40001
1.40001
1.40001
1.40001
1.40001
1.40001
1.40001
1.40001
1.40001
1.40001
1.40001
1.40001
1.40001
1.40001
1.40001
1.40001
1.40001
1.40001
1.4
2.18418
4.89734
5.36201
5.3742
5.40171
5.42132
5.4374
5.4509
5.46359
5.47681
5.49084
5.50495
5.51836
5.53049
5.54161
5.55267
5.564
5.57504
5.58522
5.59331
5.59923
5.60371
5.60784
5.61294
5.61917
5.62582
5.63183
5.63644
5.63931
5.64058
5.64087
5.64091
5.64135
5.64212
5.6427
5.64266
5.64168
5.63978
5.63725
5.63417
5.63
5.62497
5.61845
5.6119
5.60559
5.59994
1.40001
1.40001
1.40001
1.40001
1.40001
1.40001
1.40001
1.40001
1.40001
1.40001
1.40001
1.40001
1.40001
1.40001
1.40001
1.40001
1.40001
1.40001
1.40001
1.40001
1.40001
1.40001
1.40001
1.40001
1.40001
1.40001
1.40001
1.40001
1.40001
1.40001
1.40001
1.40001
1.40001
1.40001
1.40001
1.40001
1.40001
1.40001
1.40001
1.40001
1.40001
1.40001
1.40001
1.40001
1.40001
1.40001
1.40001
1.40001
1.40001
1.40001
1.44424
3.98981
5.38395
5.39477
5.40421
5.41589
5.42562
5.43427
5.44281
5.45272
5.46441
5.47695
5.48882
5.49924
5.50816
5.51656
5.52534
5.53415
5.54251
5.54955
5.55429
5.55736
5.55934
5.56163
5.56493
5.56887
5.57252
5.57508
5.57595
5.57455
5.57108
5.56614
5.56071
5.55557
5.55062
5.54502
5.53747
5.52695
5.51292
5.49577
5.47673
5.45764
5.44235
5.43052
5.42617
5.42481
1.40001
1.40001
1.40001
1.40001
1.40001
1.40001
1.40001
1.40001
1.40001
1.40001
1.40001
1.40001
1.40001
1.40001
1.40001
1.40001
1.40001
1.40001
1.40001
1.40001
1.40001
1.40001
1.40001
1.40001
1.40001
1.40001
1.40001
1.40001
1.40001
1.40001
1.40001
1.40001
1.40001
1.40001
1.40001
1.40001
1.40001
1.40001
1.40001
1.40001
1.40001
1.40001
1.40001
1.40001
1.40001
1.40001
1.40001
1.40001
1.40001
1.40001
1.40006
2.63696
5.07046
5.3374
5.35789
5.3766
5.39091
5.40155
5.40953
5.41739
5.4273
5.43926
5.4516
5.46255
5.47129
5.47802
5.48404
5.49019
5.49628
5.50176
5.50554
5.50709
5.50701
5.50592
5.50485
5.50423
5.50391
5.50325
5.50143
5.49722
5.48935
5.47831
5.46516
5.45135
5.43777
5.42389
5.40787
5.38789
5.36327
5.33551
5.30692
5.27898
5.24502
5.20643
5.15075
5.17054
1.40001
1.40001
1.40001
1.40001
1.40001
1.40001
1.40001
1.40001
1.40001
1.40001
1.40001
1.40001
1.40001
1.40001
1.40001
1.40001
1.40001
1.40001
1.40001
1.40001
1.40001
1.40001
1.40001
1.40001
1.40001
1.40001
1.40001
1.40001
1.40001
1.40001
1.40001
1.40001
1.40001
1.40001
1.40001
1.40001
1.40001
1.40001
1.40001
1.40001
1.40001
1.40001
1.40001
1.40001
1.40001
1.40001
1.40001
1.40001
1.40001
1.40001
1.40001
1.56736
4.39031
5.36094
5.35403
5.364
5.37587
5.38558
5.39262
5.39807
5.4047
5.41329
5.42299
5.43196
5.43911
5.4441
5.44761
5.45085
5.4539
5.45645
5.45828
5.4586
5.4568
5.45301
5.44772
5.44207
5.43701
5.43232
5.42687
5.41924
5.40791
5.39186
5.37134
5.34818
5.32415
5.29928
5.27097
5.23597
5.19031
5.13293
5.05853
4.96244
4.81762
4.592
4.18296
3.2835
1.40001
1.40001
1.40001
1.40001
1.40001
1.40001
1.40001
1.40001
1.40001
1.40001
1.40001
1.40001
1.40001
1.40001
1.40001
1.40001
1.40001
1.40001
1.40001
1.40001
1.40001
1.40001
1.40001
1.40001
1.40001
1.40001
1.40001
1.40001
1.40001
1.40001
1.40001
1.40001
1.40001
1.40001
1.40001
1.40001
1.40001
1.40001
1.40001
1.40001
1.40001
1.40001
1.40001
1.40001
1.40001
1.40001
1.40001
1.40001
1.40001
1.40001
1.4
1.40153
3.23989
5.16094
5.31464
5.33265
5.352
5.36456
5.37123
5.37328
5.37629
5.38185
5.38946
5.39753
5.40437
5.40919
5.41192
5.41324
5.41395
5.41416
5.41392
5.41279
5.40984
5.40502
5.39781
5.38873
5.37898
5.36919
5.35907
5.34772
5.33329
5.31353
5.28745
5.25638
5.22217
5.1859
5.14426
5.0942
5.028
4.94505
4.83432
4.69508
4.49207
4.21843
3.6898
2.92529
1.40001
1.40001
1.40001
1.40001
1.40001
1.40001
1.40001
1.40001
1.40001
1.40001
1.40001
1.40001
1.40001
1.40001
1.40001
1.40001
1.40001
1.40001
1.40001
1.40001
1.40001
1.40001
1.40001
1.40001
1.40001
1.40001
1.40001
1.40001
1.40001
1.40001
1.40001
1.40001
1.40001
1.40001
1.40001
1.40001
1.40001
1.40001
1.40001
1.40001
1.40001
1.40001
1.40001
1.40001
1.40001
1.40001
1.40001
1.40001
1.40001
1.40001
1.40001
1.4
1.96583
4.71438
5.32764
5.32209
5.34273
5.35544
5.36113
5.36066
5.36136
5.36457
5.36975
5.37562
5.38035
5.38326
5.38425
5.383
5.3808
5.37777
5.37389
5.36924
5.36387
5.35735
5.34823
5.33624
5.32205
5.3068
5.29111
5.27474
5.25583
5.23182
5.20053
5.16262
5.11889
5.07152
5.01691
4.95258
4.87038
4.76746
4.63632
4.46814
4.2495
3.93783
3.494
2.97936
1.40001
1.40001
1.40001
1.40001
1.40001
1.40001
1.40001
1.40001
1.40001
1.40001
1.40001
1.40001
1.40001
1.40001
1.40001
1.40001
1.40001
1.40001
1.40001
1.40001
1.40001
1.40001
1.40001
1.40001
1.40001
1.40001
1.40001
1.40001
1.40001
1.40001
1.40001
1.40001
1.40001
1.40001
1.40001
1.40001
1.40001
1.40001
1.40001
1.40001
1.40001
1.40001
1.40001
1.40001
1.40001
1.40001
1.40001
1.40001
1.40001
1.40001
1.40001
1.4
1.42576
3.56384
5.2485
5.3045
5.31912
5.32956
5.3342
5.33595
5.33952
5.34436
5.34894
5.35309
5.35586
5.35677
5.35538
5.35144
5.34608
5.3398
5.33269
5.32464
5.31649
5.30745
5.29573
5.28084
5.26311
5.24358
5.22294
5.20154
5.17757
5.14898
5.11276
5.06928
5.01807
4.96128
4.89628
4.82041
4.7279
4.6136
4.47356
4.29669
4.0773
3.79442
3.45756
3.08328
1.40001
1.40001
1.40001
1.40001
1.40001
1.40001
1.40001
1.40001
1.40001
1.40001
1.40001
1.40001
1.40001
1.40001
1.40001
1.40001
1.40001
1.40001
1.40001
1.40001
1.40001
1.40001
1.40001
1.40001
1.40001
1.40001
1.40001
1.40001
1.40001
1.40001
1.40001
1.40001
1.40001
1.40001
1.40001
1.40001
1.40001
1.40001
1.40001
1.40001
1.40001
1.40001
1.40001
1.40001
1.40001
1.40001
1.40001
1.40001
1.40001
1.40001
1.40001
1.40001
1.4
2.08829
4.81995
5.32947
5.30631
5.31184
5.31448
5.31624
5.31981
5.32496
5.32893
5.3318
5.33283
5.33159
5.32739
5.32004
5.31114
5.30189
5.29263
5.28267
5.27223
5.26023
5.24504
5.22663
5.20522
5.1819
5.15698
5.13107
5.10217
5.06874
5.02783
4.97961
4.92329
4.85995
4.78814
4.70525
4.60742
4.48961
4.35046
4.17662
3.97592
3.73789
3.46935
3.18399
1.40001
1.40001
1.40001
1.40001
1.40001
1.40001
1.40001
1.40001
1.40001
1.40001
1.40001
1.40001
1.40001
1.40001
1.40001
1.40001
1.40001
1.40001
1.40001
1.40001
1.40001
1.40001
1.40001
1.40001
1.40001
1.40001
1.40001
1.40001
1.40001
1.40001
1.40001
1.40001
1.40001
1.40001
1.40001
1.40001
1.40001
1.40001
1.40001
1.40001
1.40001
1.40001
1.40001
1.40001
1.40001
1.40001
1.40001
1.40001
1.40001
1.40001
1.40001
1.40001
1.4
1.43366
3.59584
5.25148
5.27845
5.28859
5.29162
5.29476
5.29908
5.3041
5.30703
5.30843
5.30777
5.30521
5.29895
5.28896
5.27711
5.26486
5.25269
5.24091
5.22853
5.2139
5.19576
5.17425
5.14963
5.1232
5.09474
5.06459
5.03077
4.99228
4.94701
4.89506
4.83563
4.76858
4.69309
4.607
4.50792
4.39171
4.25902
4.09846
3.92016
3.72138
3.49924
3.27152
1.40001
1.40001
1.40001
1.40001
1.40001
1.40001
1.40001
1.40001
1.40001
1.40001
1.40001
1.40001
1.40001
1.40001
1.40001
1.40001
1.40001
1.40001
1.40001
1.40001
1.40001
1.40001
1.40001
1.40001
1.40001
1.40001
1.40001
1.40001
1.40001
1.40001
1.40001
1.40001
1.40001
1.40001
1.40001
1.40001
1.40001
1.40001
1.40001
1.40001
1.40001
1.40001
1.40001
1.40001
1.40001
1.40001
1.40001
1.40001
1.40001
1.40001
1.40001
1.40001
1.40001
1.40003
2.01934
4.76445
5.28932
5.26975
5.26933
5.26978
5.27279
5.27653
5.2784
5.27775
5.2755
5.2722
5.26462
5.25346
5.24078
5.22679
5.21212
5.19847
5.18417
5.1673
5.14671
5.12291
5.09614
5.06775
5.03689
5.00318
4.96486
4.92157
4.87247
4.81766
4.75638
4.68788
4.61156
4.52521
4.42907
4.31565
4.19374
4.04795
3.89034
3.72311
3.53285
3.34283
1.40001
1.40001
1.40001
1.40001
1.40001
1.40001
1.40001
1.40001
1.40001
1.40001
1.40001
1.40001
1.40001
1.40001
1.40001
1.40001
1.40001
1.40001
1.40001
1.40001
1.40001
1.40001
1.40001
1.40001
1.40001
1.40001
1.40001
1.40001
1.40001
1.40001
1.40001
1.40001
1.40001
1.40001
1.40001
1.40001
1.40001
1.40001
1.40001
1.40001
1.40001
1.40001
1.40001
1.40001
1.40001
1.40001
1.40001
1.40001
1.40001
1.40001
1.40001
1.40001
1.40001
1.40001
1.42501
3.36426
5.15834
5.23765
5.2399
5.24359
5.25063
5.25501
5.25635
5.25301
5.24853
5.24379
5.23476
5.22261
5.2096
5.19429
5.17719
5.16097
5.1435
5.12348
5.10017
5.07434
5.04639
5.01709
4.98487
4.94848
4.90636
4.85889
4.80651
4.74944
4.68699
4.61824
4.54271
4.45797
4.36531
4.25676
4.14491
4.01323
3.87469
3.73116
3.56723
3.39914
1.40001
1.40001
1.40001
1.40001
1.40001
1.40001
1.40001
1.40001
1.40001
1.40001
1.40001
1.40001
1.40001
1.40001
1.40001
1.40001
1.40001
1.40001
1.40001
1.40001
1.40001
1.40001
1.40001
1.40001
1.40001
1.40001
1.40001
1.40001
1.40001
1.40001
1.40001
1.40001
1.40001
1.40001
1.40001
1.40001
1.40001
1.40001
1.40001
1.40001
1.40001
1.40001
1.40001
1.40001
1.40001
1.40001
1.40001
1.40001
1.40001
1.40001
1.40001
1.40001
1.40001
1.40001
1.40002
1.74467
4.54323
5.27548
5.24959
5.23872
5.23379
5.23139
5.22814
5.22151
5.21443
5.20735
5.19696
5.1843
5.17135
5.15702
5.13978
5.1227
5.10299
5.08066
5.05542
5.02801
4.99875
4.96838
4.93517
4.89747
4.85353
4.80372
4.74919
4.69043
4.62731
4.55903
4.48567
4.40333
4.31451
4.21345
4.10879
3.99051
3.86927
3.73974
3.59452
3.44886
1.40001
1.40001
1.40001
1.40001
1.40001
1.40001
1.40001
1.40001
1.40001
1.40001
1.40001
1.40001
1.40001
1.40001
1.40001
1.40001
1.40001
1.40001
1.40001
1.40001
1.40001
1.40001
1.40001
1.40001
1.40001
1.40001
1.40001
1.40001
1.40001
1.40001
1.40001
1.40001
1.40001
1.40001
1.40001
1.40001
1.40001
1.40001
1.40001
1.40001
1.40001
1.40001
1.40001
1.40001
1.40001
1.40001
1.40001
1.40001
1.40001
1.40001
1.40001
1.40001
1.40001
1.40001
1.40001
1.40648
2.94048
5.03363
5.18517
5.19278
5.19916
5.19845
5.19529
5.18825
5.17914
5.16948
5.15707
5.14399
5.13137
5.11849
5.10263
5.0859
5.06455
5.04033
5.01346
4.9846
4.95387
4.92215
4.88755
4.84917
4.80529
4.75545
4.70073
4.6414
4.57806
4.51022
4.43913
4.35882
4.27452
4.18032
4.08281
3.97786
3.86781
3.7463
3.62186
3.49347
1.40001
1.40001
1.40001
1.40001
1.40001
1.40001
1.40001
1.40001
1.40001
1.40001
1.40001
1.40001
1.40001
1.40001
1.40001
1.40001
1.40001
1.40001
1.40001
1.40001
1.40001
1.40001
1.40001
1.40001
1.40001
1.40001
1.40001
1.40001
1.40001
1.40001
1.40001
1.40001
1.40001
1.40001
1.40001
1.40001
1.40001
1.40001
1.40001
1.40001
1.40001
1.40001
1.40001
1.40001
1.40001
1.40001
1.40001
1.40001
1.40001
1.40001
1.40001
1.40001
1.40001
1.40001
1.40001
1.40001
1.55263
3.98832
5.17471
5.1843
5.17816
5.17366
5.17106
5.16406
5.15335
5.14083
5.12568
5.11015
5.09617
5.08296
5.06788
5.05138
5.02934
5.00439
4.9768
4.94537
4.91268
4.87893
4.84266
4.80358
4.76051
4.71207
4.659
4.60045
4.53818
4.4703
4.40079
4.32316
4.24273
4.15547
4.06636
3.97014
3.86561
3.75684
3.64952
3.53215
1.40001
1.40001
1.40001
1.40001
1.40001
1.40001
1.40001
1.40001
1.40001
1.40001
1.40001
1.40001
1.40001
1.40001
1.40001
1.40001
1.40001
1.40001
1.40001
1.40001
1.40001
1.40001
1.40001
1.40001
1.40001
1.40001
1.40001
1.40001
1.40001
1.40001
1.40001
1.40001
1.40001
1.40001
1.40001
1.40001
1.40001
1.40001
1.40001
1.40001
1.40001
1.40001
1.40001
1.40001
1.40001
1.40001
1.40001
1.40001
1.40001
1.40001
1.40001
1.40001
1.40001
1.40001
1.40001
1.40001
1.40113
2.11797
4.75416
5.17909
5.15218
5.15179
5.14731
5.14055
5.12938
5.1151
5.09895
5.08152
5.06512
5.04971
5.03353
5.01635
4.99459
4.96977
4.94222
4.90916
4.87389
4.83812
4.79975
4.7603
4.71781
4.67133
4.621
4.56481
4.50643
4.43827
4.36967
4.29564
4.2178
4.13798
4.05439
3.96334
3.86722
3.7728
3.67247
3.56535
1.40001
1.40001
1.40001
1.40001
1.40001
1.40001
1.40001
1.40001
1.40001
1.40001
1.40001
1.40001
1.40001
1.40001
1.40001
1.40001
1.40001
1.40001
1.40001
1.40001
1.40001
1.40001
1.40001
1.40001
1.40001
1.40001
1.40001
1.40001
1.40001
1.40001
1.40001
1.40001
1.40001
1.40001
1.40001
1.40001
1.40001
1.40001
1.40001
1.40001
1.40001
1.40001
1.40001
1.40001
1.40001
1.40001
1.40001
1.40001
1.40001
1.40001
1.40001
1.40001
1.40001
1.40001
1.40001
1.40001
1.40001
1.43075
3.09765
5.03765
5.13489
5.13257
5.12857
5.12147
5.10983
5.09461
5.07847
5.06003
5.04107
5.02292
5.00422
4.98473
4.96233
4.9363
4.90906
4.87548
4.83947
4.80186
4.76346
4.72319
4.68054
4.63576
4.58757
4.53481
4.47823
4.41298
4.34626
4.27527
4.20038
4.12572
4.04474
3.96041
3.87351
3.78779
3.6911
3.59581
1.40001
1.40001
1.40001
1.40001
1.40001
1.40001
1.40001
1.40001
1.40001
1.40001
1.40001
1.40001
1.40001
1.40001
1.40001
1.40001
1.40001
1.40001
1.40001
1.40001
1.40001
1.40001
1.40001
1.40001
1.40001
1.40001
1.40001
1.40001
1.40001
1.40001
1.40001
1.40001
1.40001
1.40001
1.40001
1.40001
1.40001
1.40001
1.40001
1.40001
1.40001
1.40001
1.40001
1.40001
1.40001
1.40001
1.40001
1.40001
1.40001
1.40001
1.40001
1.40001
1.40001
1.40001
1.40001
1.40001
1.40001
1.40007
1.57801
3.78796
5.08491
5.13202
5.1238
5.11347
5.09966
5.08144
5.06329
5.04378
5.0226
5.00169
4.98047
4.95796
4.93333
4.90544
4.87697
4.84466
4.80855
4.77087
4.73134
4.69128
4.64804
4.60402
4.55674
4.50663
4.45134
4.39088
4.32703
4.25914
4.18876
4.11652
4.03919
3.96127
3.8817
3.80013
3.70973
3.62412
1.40001
1.40001
1.40001
1.40001
1.40001
1.40001
1.40001
1.40001
1.40001
1.40001
1.40001
1.40001
1.40001
1.40001
1.40001
1.40001
1.40001
1.40001
1.40001
1.40001
1.40001
1.40001
1.40001
1.40001
1.40001
1.40001
1.40001
1.40001
1.40001
1.40001
1.40001
1.40001
1.40001
1.40001
1.40001
1.40001
1.40001
1.40001
1.40001
1.40001
1.40001
1.40001
1.40001
1.40001
1.40001
1.40001
1.40001
1.40001
1.40001
1.40001
1.40001
1.40001
1.40001
1.40001
1.40001
1.40001
1.40001
1.40001
1.40166
1.80298
4.4801
5.17168
5.14236
5.11412
5.08683
5.06235
5.03997
5.0192
4.99879
4.97758
4.95602
4.93302
4.90714
4.87789
4.84757
4.81594
4.77968
4.74242
4.70329
4.66355
4.62171
4.57795
4.53146
4.48184
4.42892
4.37197
4.31115
4.24666
4.1806
4.11033
4.03755
3.9651
3.89066
3.81181
3.72946
3.64961
1.40001
1.40001
1.40001
1.40001
1.40001
1.40001
1.40001
1.40001
1.40001
1.40001
1.40001
1.40001
1.40001
1.40001
1.40001
1.40001
1.40001
1.40001
1.40001
1.40001
1.40001
1.40001
1.40001
1.40001
1.40001
1.40001
1.40001
1.40001
1.40001
1.40001
1.40001
1.40001
1.40001
1.40001
1.40001
1.40001
1.40001
1.40001
1.40001
1.40001
1.40001
1.40001
1.40001
1.40001
1.40001
1.40001
1.40001
1.40001
1.40001
1.40001
1.40001
1.40001
1.40001
1.40001
1.40001
1.40001
1.40001
1.40001
1.40001
1.40887
2.58028
4.90284
5.09791
5.0676
5.04699
5.02823
5.0117
4.99466
4.97677
4.95731
4.93494
4.91134
4.88515
4.85481
4.82388
4.79193
4.7557
4.7183
4.67958
4.64045
4.59902
4.5554
4.50956
4.46096
4.40954
4.35488
4.29665
4.23564
4.17283
4.10534
4.03715
3.96968
3.89877
3.8232
3.74813
3.67277
1.40001
1.40001
1.40001
1.40001
1.40001
1.40001
1.40001
1.40001
1.40001
1.40001
1.40001
1.40001
1.40001
1.40001
1.40001
1.40001
1.40001
1.40001
1.40001
1.40001
1.40001
1.40001
1.40001
1.40001
1.40001
1.40001
1.40001
1.40001
1.40001
1.40001
1.40001
1.40001
1.40001
1.40001
1.40001
1.40001
1.40001
1.40001
1.40001
1.40001
1.40001
1.40001
1.40001
1.40001
1.40001
1.40001
1.40001
1.40001
1.40001
1.40001
1.40001
1.40001
1.40001
1.40001
1.40001
1.40001
1.40001
1.40001
1.40001
1.40002
1.48129
3.21248
4.98062
5.03343
5.02015
5.01688
5.00626
4.99152
4.97339
4.95273
4.92877
4.90341
4.87624
4.84404
4.81179
4.77731
4.73953
4.70073
4.66123
4.62175
4.58107
4.5374
4.49211
4.44453
4.39444
4.34152
4.2854
4.2272
4.16647
4.102
4.03778
3.97361
3.90498
3.8333
3.76394
3.6931
1.40001
1.40001
1.40001
1.40001
1.40001
1.40001
1.40001
1.40001
1.40001
1.40001
1.40001
1.40001
1.40001
1.40001
1.40001
1.40001
1.40001
1.40001
1.40001
1.40001
1.40001
1.40001
1.40001
1.40001
1.40001
1.40001
1.40001
1.40001
1.40001
1.40001
1.40001
1.40001
1.40001
1.40001
1.40001
1.40001
1.40001
1.40001
1.40001
1.40001
1.40001
1.40001
1.40001
1.40001
1.40001
1.40001
1.40001
1.40001
1.40001
1.40001
1.40001
1.40001
1.40001
1.40001
1.40001
1.40001
1.40001
1.40001
1.40001
1.40001
1.40044
1.6031
3.59397
4.98458
5.01086
5.00593
4.99862
4.98478
4.96735
4.9465
4.92222
4.89596
4.8674
4.83519
4.80184
4.76562
4.72713
4.68763
4.6474
4.60667
4.56571
4.5227
4.47707
4.43034
4.3818
4.33042
4.27616
4.21998
4.16065
4.09868
4.03751
3.97534
3.90877
3.84133
3.77725
3.71145
1.40001
1.40001
1.40001
1.40001
1.40001
1.40001
1.40001
1.40001
1.40001
1.40001
1.40001
1.40001
1.40001
1.40001
1.40001
1.40001
1.40001
1.40001
1.40001
1.40001
1.40001
1.40001
1.40001
1.40001
1.40001
1.40001
1.40001
1.40001
1.40001
1.40001
1.40001
1.40001
1.40001
1.40001
1.40001
1.40001
1.40001
1.40001
1.40001
1.40001
1.40001
1.40001
1.40001
1.40001
1.40001
1.40001
1.40001
1.40001
1.40001
1.40001
1.40001
1.40001
1.40001
1.40001
1.40001
1.40001
1.40001
1.40001
1.40001
1.40001
1.40001
1.4023
1.7249
3.91571
5.01154
5.01018
4.9953
4.978
4.95898
4.93674
4.91232
4.88669
4.8586
4.82741
4.79397
4.75781
4.71962
4.68019
4.63972
4.59829
4.55649
4.5136
4.46823
4.42152
4.37368
4.32322
4.27027
4.21535
4.15706
4.09693
4.03753
3.97659
3.91317
3.85117
3.79269
3.73343
1.40001
1.40001
1.40001
1.40001
1.40001
1.40001
1.40001
1.40001
1.40001
1.40001
1.40001
1.40001
1.40001
1.40001
1.40001
1.40001
1.40001
1.40001
1.40001
1.40001
1.40001
1.40001
1.40001
1.40001
1.40001
1.40001
1.40001
1.40001
1.40001
1.40001
1.40001
1.40001
1.40001
1.40001
1.40001
1.40001
1.40001
1.40001
1.40001
1.40001
1.40001
1.40001
1.40001
1.40001
1.40001
1.40001
1.40001
1.40001
1.40001
1.40001
1.40001
1.40001
1.40001
1.40001
1.40001
1.40001
1.40001
1.40001
1.40001
1.40001
1.40001
1.40001
1.40575
1.86263
4.19718
5.01934
5.00313
4.9804
4.95591
4.93055
4.9036
4.87625
4.8469
4.81553
4.78228
4.74703
4.71033
4.67231
4.63292
4.59221
4.55051
4.50768
4.46316
4.41699
4.36895
4.31862
4.26631
4.21229
4.15483
4.09634
4.03944
3.9815
3.92418
3.871
3.82179
3.77445
1.40001
1.40001
1.40001
1.40001
1.40001
1.40001
1.40001
1.40001
1.40001
1.40001
1.40001
1.40001
1.40001
1.40001
1.40001
1.40001
1.40001
1.40001
1.40001
1.40001
1.40001
1.40001
1.40001
1.40001
1.40001
1.40001
1.40001
1.40001
1.40001
1.40001
1.40001
1.40001
1.40001
1.40001
1.40001
1.40001
1.40001
1.40001
1.40001
1.40001
1.40001
1.40001
1.40001
1.40001
1.40001
1.40001
1.40001
1.40001
1.40001
1.40001
1.40001
1.40001
1.40001
1.40001
1.40001
1.40001
1.40001
1.40001
1.40001
1.40001
1.40001
1.40001
1.40002
1.41156
2.01696
4.40373
5.02999
5.00315
4.97224
4.93976
4.90811
4.87588
4.84198
4.8079
4.77297
4.7374
4.7015
4.66472
4.62675
4.58755
4.54715
4.50517
4.46157
4.4159
4.36787
4.31758
4.26531
4.21192
4.15639
4.10203
4.05128
4.00176
3.95857
3.92072
3.8925
3.86866
1.40001
1.40001
1.40001
1.40001
1.40001
1.40001
1.40001
1.40001
1.40001
1.40001
1.40001
1.40001
1.40001
1.40001
1.40001
1.40001
1.40001
1.40001
1.40001
1.40001
1.40001
1.40001
1.40001
1.40001
1.40001
1.40001
1.40001
1.40001
1.40001
1.40001
1.40001
1.40001
1.40001
1.40001
1.40001
1.40001
1.40001
1.40001
1.40001
1.40001
1.40001
1.40001
1.40001
1.40001
1.40001
1.40001
1.40001
1.40001
1.40001
1.40001
1.40001
1.40001
1.40001
1.40001
1.40001
1.40001
1.40001
1.40001
1.40001
1.40001
1.40001
1.40001
1.40001
1.40004
1.4206
2.16651
4.5882
5.02596
4.99487
4.96036
4.92055
4.88265
4.84523
4.80801
4.77026
4.73314
4.69651
4.65959
4.62185
4.58312
4.54317
4.50166
4.45879
4.41382
4.36651
4.31704
4.26696
4.21762
4.16909
4.127
4.09253
4.06265
4.04671
4.03604
4.03362
4.02433
1.40001
1.40001
1.40001
1.40001
1.40001
1.40001
1.40001
1.40001
1.40001
1.40001
1.40001
1.40001
1.40001
1.40001
1.40001
1.40001
1.40001
1.40001
1.40001
1.40001
1.40001
1.40001
1.40001
1.40001
1.40001
1.40001
1.40001
1.40001
1.40001
1.40001
1.40001
1.40001
1.40001
1.40001
1.40001
1.40001
1.40001
1.40001
1.40001
1.40001
1.40001
1.40001
1.40001
1.40001