/*--------------------------------*- C++ -*----------------------------------*\
  =========                 |
  \\      /  F ield         | OpenFOAM: The Open Source CFD Toolbox
   \\    /   O peration     | Website:  https://openfoam.org
    \\  /    A nd           | Version:  7
     \\/     M anipulation  |
\*---------------------------------------------------------------------------*/
FoamFile
{
    version     2.0;
    format      ascii;
    class       volScalarField;
    location    "8.4";
    object      T;
}
// * * * * * * * * * * * * * * * * * * * * * * * * * * * * * * * * * * * * * //

dimensions      [0 0 0 1 0 0 0];

internalField   nonuniform List<scalar> 
19968
(
1
1
1
1
1
1
1
1
1
1
1
1
1
1
1
1
1
1
1
1
1
1
1
1
1
1
1
1
1
1
1
1
1
1
1
1
1
1
1
1
1
1
1
1
1
1
1
1
1.27484
2.45581
2.68829
2.69369
2.69865
2.70286
2.70711
2.71114
2.71478
2.71801
2.72102
2.72427
2.72815
2.73265
2.73736
2.74162
2.74502
2.74781
2.75045
2.75323
2.75625
2.75934
2.76225
2.76485
2.76725
2.7697
2.77237
2.7752
2.77801
2.78059
2.78289
2.78496
2.78687
2.78864
2.79024
2.79165
2.79293
2.79416
2.79546
2.79686
2.79834
2.79981
2.80111
2.80211
2.80276
2.80306
2.80315
2.80314
1
1
1
1
1
1
1
1
1
1
1
1
1
1
1
1
1
1
1
1
1
1
1
1
1
1
1
1
1
1
1
1
1
1
1
1
1
1
1
1
1
1
1
1
1
1
1
1
1.26278
2.45019
2.68745
2.69343
2.69871
2.70289
2.70708
2.711
2.71452
2.71768
2.72071
2.72402
2.72798
2.7325
2.73716
2.74134
2.74472
2.74751
2.75017
2.75298
2.756
2.75907
2.76196
2.76454
2.76695
2.76943
2.77211
2.77494
2.77773
2.78028
2.78256
2.78462
2.78653
2.78831
2.78992
2.79135
2.79264
2.79388
2.79516
2.79654
2.79798
2.79939
2.80065
2.80163
2.80226
2.80256
2.80266
2.80267
1
1
1
1
1
1
1
1
1
1
1
1
1
1
1
1
1
1
1
1
1
1
1
1
1
1
1
1
1
1
1
1
1
1
1
1
1
1
1
1
1
1
1
1
1
1
1
1
1.23319
2.43474
2.68637
2.6923
2.69796
2.70225
2.70645
2.71029
2.71371
2.71687
2.71999
2.72344
2.72751
2.73203
2.73661
2.74068
2.74403
2.74686
2.7496
2.75247
2.75552
2.75856
2.76139
2.76395
2.76637
2.76889
2.7716
2.77443
2.77718
2.77969
2.78194
2.78398
2.7859
2.78769
2.78933
2.79079
2.79211
2.79336
2.79464
2.79599
2.79738
2.79874
2.79995
2.8009
2.80153
2.80184
2.80195
2.80198
1
1
1
1
1
1
1
1
1
1
1
1
1
1
1
1
1
1
1
1
1
1
1
1
1
1
1
1
1
1
1
1
1
1
1
1
1
1
1
1
1
1
1
1
1
1
1
1
1.18909
2.40904
2.68565
2.69093
2.6966
2.70118
2.70555
2.70937
2.71275
2.71596
2.71923
2.7228
2.72693
2.73137
2.7358
2.73974
2.74307
2.74601
2.74888
2.75187
2.75493
2.75792
2.76065
2.76316
2.76559
2.76814
2.77088
2.7737
2.7764
2.77885
2.78105
2.78307
2.78499
2.7868
2.78846
2.78994
2.79127
2.79251
2.79375
2.79503
2.79633
2.7976
2.79875
2.79968
2.80033
2.8007
2.80086
2.80095
1
1
1
1
1
1
1
1
1
1
1
1
1
1
1
1
1
1
1
1
1
1
1
1
1
1
1
1
1
1
1
1
1
1
1
1
1
1
1
1
1
1
1
1
1
1
1
1
1.12968
2.37189
2.68568
2.68951
2.69531
2.70007
2.70457
2.70844
2.71189
2.71519
2.71858
2.72221
2.7263
2.73055
2.73476
2.73856
2.74195
2.7451
2.74819
2.7513
2.75434
2.7572
2.75979
2.76221
2.76464
2.76724
2.77002
2.77282
2.77546
2.77784
2.78
2.78201
2.78395
2.7858
2.78751
2.78903
2.79037
2.79159
2.79275
2.79389
2.79503
2.79612
2.79713
2.79798
2.79859
2.79897
2.79914
2.79926
1
1
1
1
1
1
1
1
1
1
1
1
1
1
1
1
1
1
1
1
1
1
1
1
1
1
1
1
1
1
1
1
1
1
1
1
1
1
1
1
1
1
1
1
1
1
1
1
1.01919
2.3075
2.68643
2.68908
2.69462
2.69967
2.70439
2.70848
2.71203
2.71533
2.71869
2.72227
2.72614
2.72999
2.73378
2.73733
2.74074
2.74415
2.74751
2.75073
2.75367
2.75627
2.75859
2.76083
2.7632
2.76581
2.76858
2.77133
2.77387
2.77615
2.77822
2.78019
2.78212
2.78401
2.78577
2.78735
2.78873
2.78995
2.79107
2.79213
2.79315
2.79415
2.7951
2.79592
2.79655
2.79698
2.79719
2.79736
1
1
1
1
1
1
1
1
1
1
1
1
1
1
1
1
1
1
1
1
1
1
1
1
1
1
1
1
1
1
1
1
1
1
1
1
1
1
1
1
1
1
1
1
1
1
1
1
1.00014
2.21831
2.68146
2.68653
2.69113
2.69621
2.70111
2.70554
2.70947
2.71308
2.71658
2.72014
2.72376
2.7272
2.73061
2.73403
2.7376
2.74142
2.7452
2.74865
2.75155
2.75395
2.75607
2.75822
2.76061
2.7633
2.76614
2.76887
2.77134
2.77352
2.77553
2.77748
2.77945
2.7814
2.78324
2.78489
2.78632
2.78755
2.78862
2.7896
2.79052
2.79142
2.79229
2.79308
2.79372
2.79419
2.79442
2.79462
1
1
1
1
1
1
1
1
1
1
1
1
1
1
1
1
1
1
1
1
1
1
1
1
1
1
1
1
1
1
1
1
1
1
1
1
1
1
1
1
1
1
1
1
1
1
1
1
1
2.0894
2.6702
2.68432
2.6884
2.69307
2.69769
2.70214
2.70634
2.71032
2.71409
2.71769
2.72114
2.72433
2.72753
2.73088
2.73453
2.73855
2.74255
2.74611
2.74898
2.75128
2.7533
2.75539
2.75782
2.76058
2.76345
2.76615
2.76853
2.7706
2.77253
2.77444
2.77641
2.7784
2.78028
2.78197
2.78341
2.7846
2.7856
2.78648
2.78729
2.7881
2.7889
2.78966
2.79028
2.79074
2.79098
2.79119
1
1
1
1
1
1
1
1
1
1
1
1
1
1
1
1
1
1
1
1
1
1
1
1
1
1
1
1
1
1
1
1
1
1
1
1
1
1
1
1
1
1
1
1
1
1
1
1
1
1.91028
2.63958
2.67911
2.68335
2.68796
2.69253
2.69705
2.70142
2.7057
2.70982
2.7137
2.71725
2.72045
2.72361
2.72694
2.73055
2.73455
2.73855
2.74209
2.74493
2.74721
2.74923
2.75136
2.75385
2.75667
2.75956
2.76222
2.76452
2.76652
2.76838
2.77026
2.77221
2.7742
2.7761
2.7778
2.77923
2.7804
2.78135
2.78218
2.78294
2.78371
2.78449
2.78522
2.78582
2.78627
2.78649
2.78669
1
1
1
1
1
1
1
1
1
1
1
1
1
1
1
1
1
1
1
1
1
1
1
1
1
1
1
1
1
1
1
1
1
1
1
1
1
1
1
1
1
1
1
1
1
1
1
1
1
1.67743
2.5817
2.6727
2.6783
2.68324
2.68778
2.69197
2.69598
2.70013
2.70449
2.70877
2.71269
2.71616
2.7194
2.72271
2.72619
2.72998
2.73379
2.7372
2.74003
2.74239
2.74452
2.74671
2.74918
2.75194
2.75471
2.75724
2.75942
2.76134
2.76314
2.76498
2.76689
2.76887
2.77077
2.77248
2.77391
2.77505
2.77596
2.77673
2.77743
2.77813
2.77882
2.77946
2.77997
2.78037
2.78055
2.78072
1
1
1
1
1
1
1
1
1
1
1
1
1
1
1
1
1
1
1
1
1
1
1
1
1
1
1
1
1
1
1
1
1
1
1
1
1
1
1
1
1
1
1
1
1
1
1
1
1
1.37654
2.47888
2.67002
2.67318
2.67943
2.68321
2.68689
2.69044
2.69431
2.69866
2.7032
2.70748
2.71127
2.71463
2.71788
2.72117
2.72468
2.72825
2.73156
2.73442
2.73691
2.73921
2.7415
2.74396
2.7466
2.74923
2.75161
2.75369
2.75553
2.75724
2.75893
2.76066
2.76241
2.76411
2.76561
2.76684
2.7678
2.76856
2.76923
2.76991
2.77059
2.77127
2.77188
2.77237
2.77278
2.77301
2.7732
1
1
1
1
1
1
1
1
1
1
1
1
1
1
1
1
1
1
1
1
1
1
1
1
1
1
1
1
1
1
1
1
1
1
1
1
1
1
1
1
1
1
1
1
1
1
1
1
1
1.01561
2.29775
2.67844
2.67877
2.68016
2.68247
2.68547
2.68859
2.69186
2.69544
2.69918
2.70287
2.7063
2.70942
2.71236
2.71531
2.71836
2.72149
2.7245
2.72726
2.72976
2.73212
2.7344
2.73676
2.7392
2.74165
2.74391
2.74594
2.74778
2.7495
2.75115
2.75277
2.75436
2.75589
2.75727
2.75841
2.7593
2.75998
2.76054
2.76103
2.76142
2.7617
2.76184
2.7619
2.76203
2.76214
2.76227
1
1
1
1
1
1
1
1
1
1
1
1
1
1
1
1
1
1
1
1
1
1
1
1
1
1
1
1
1
1
1
1
1
1
1
1
1
1
1
1
1
1
1
1
1
1
1
1
1
1.00003
2.02006
2.64655
2.66156
2.66556
2.67066
2.67526
2.6794
2.68311
2.68666
2.69017
2.69363
2.69694
2.70003
2.70293
2.7058
2.70875
2.71178
2.71477
2.71759
2.72015
2.72255
2.72481
2.72706
2.72937
2.73167
2.73385
2.73587
2.73776
2.73951
2.7411
2.74251
2.74379
2.74495
2.74596
2.74674
2.74725
2.7475
2.74756
2.74755
2.74753
2.7475
2.74751
2.74752
2.74761
2.74762
2.74774
1
1
1
1
1
1
1
1
1
1
1
1
1
1
1
1
1
1
1
1
1
1
1
1
1
1
1
1
1
1
1
1
1
1
1
1
1
1
1
1
1
1
1
1
1
1
1
1
1
1
1.54895
2.51735
2.64618
2.6533
2.66163
2.66733
2.67205
2.67617
2.67994
2.68348
2.68684
2.68996
2.69285
2.69556
2.69819
2.70093
2.70377
2.70654
2.70916
2.71146
2.7135
2.71538
2.7172
2.71911
2.72105
2.72294
2.72474
2.72646
2.72803
2.72934
2.73035
2.73108
2.73168
2.7322
2.73263
2.7329
2.73294
2.73278
2.73238
2.73178
2.73094
2.72985
2.72815
2.72584
2.72319
2.72109
1
1
1
1
1
1
1
1
1
1
1
1
1
1
1
1
1
1
1
1
1
1
1
1
1
1
1
1
1
1
1
1
1
1
1
1
1
1
1
1
1
1
1
1
1
1
1
1
1
1
1.02834
2.25473
2.65628
2.65552
2.65682
2.65978
2.66341
2.66739
2.67128
2.67481
2.6779
2.68063
2.68312
2.68556
2.68807
2.69071
2.69345
2.69604
2.69837
2.70038
2.70203
2.70349
2.70483
2.70621
2.70768
2.70919
2.71067
2.71214
2.71345
2.7143
2.71473
2.7147
2.71444
2.71407
2.7137
2.71315
2.71213
2.7104
2.70785
2.70456
2.70082
2.69696
2.69349
2.68991
2.68735
2.68606
1
1
1
1
1
1
1
1
1
1
1
1
1
1
1
1
1
1
1
1
1
1
1
1
1
1
1
1
1
1
1
1
1
1
1
1
1
1
1
1
1
1
1
1
1
1
1
1
1
1
1.00005
1.76677
2.56228
2.63318
2.63915
2.64401
2.64882
2.65373
2.65819
2.66189
2.66497
2.66773
2.67039
2.67314
2.67603
2.67893
2.68171
2.68421
2.68632
2.68806
2.68942
2.69053
2.69147
2.6922
2.69296
2.69376
2.6946
2.6954
2.69604
2.69634
2.69609
2.69511
2.69351
2.69171
2.68992
2.688
2.68553
2.68213
2.67765
2.6723
2.66644
2.66058
2.65516
2.65285
2.64962
2.66386
1
1
1
1
1
1
1
1
1
1
1
1
1
1
1
1
1
1
1
1
1
1
1
1
1
1
1
1
1
1
1
1
1
1
1
1
1
1
1
1
1
1
1
1
1
1
1
1
1
1
1
1.12275
2.34877
2.63066
2.62989
2.63258
2.63687
2.64189
2.64663
2.65045
2.65355
2.65623
2.65884
2.66156
2.66454
2.66762
2.67048
2.6729
2.67474
2.67607
2.67718
2.67813
2.67868
2.679
2.6791
2.67906
2.67897
2.6789
2.67883
2.67855
2.6776
2.67563
2.6727
2.66924
2.66557
2.66164
2.65691
2.65067
2.64208
2.63078
2.61547
2.5952
2.56576
2.52381
2.45941
2.32954
1
1
1
1
1
1
1
1
1
1
1
1
1
1
1
1
1
1
1
1
1
1
1
1
1
1
1
1
1
1
1
1
1
1
1
1
1
1
1
1
1
1
1
1
1
1
1
1
1
1
1
1.00121
2.01789
2.59709
2.61275
2.61691
2.62282
2.62867
2.63369
2.63731
2.64028
2.64296
2.64567
2.64866
2.65198
2.65548
2.65874
2.6613
2.66306
2.66426
2.66522
2.66607
2.66662
2.66688
2.66673
2.66617
2.66524
2.66424
2.66331
2.66226
2.6606
2.65783
2.65382
2.64883
2.64318
2.63704
2.6297
2.62049
2.60777
2.59117
2.5682
2.53838
2.49478
2.43738
2.32783
2.16438
1
1
1
1
1
1
1
1
1
1
1
1
1
1
1
1
1
1
1
1
1
1
1
1
1
1
1
1
1
1
1
1
1
1
1
1
1
1
1
1
1
1
1
1
1
1
1
1
1
1
1
0.999999
1.39389
2.42548
2.59748
2.60263
2.61035
2.61639
2.62188
2.62572
2.62863
2.63108
2.63354
2.63644
2.63981
2.64351
2.64706
2.64959
2.65127
2.65232
2.653
2.65354
2.65401
2.6542
2.65389
2.65299
2.65141
2.64953
2.64761
2.64555
2.64291
2.63921
2.63408
2.62765
2.62002
2.6116
2.60161
2.58947
2.57339
2.5525
2.52499
2.48846
2.43985
2.36842
2.26262
2.13516
1
1
1
1
1
1
1
1
1
1
1
1
1
1
1
1
1
1
1
1
1
1
1
1
1
1
1
1
1
1
1
1
1
1
1
1
1
1
1
1
1
1
1
1
1
1
1
1
1
1
1
1
1.01573
2.11753
2.59613
2.59576
2.59751
2.60222
2.60798
2.6126
2.616
2.61841
2.62052
2.62309
2.62634
2.63013
2.6337
2.63628
2.63793
2.63881
2.63928
2.63959
2.63994
2.64004
2.63962
2.6385
2.63659
2.63416
2.63144
2.62844
2.62481
2.62016
2.61396
2.60626
2.59696
2.58647
2.57423
2.55958
2.54118
2.51767
2.48793
2.44903
2.39917
2.33183
2.24674
2.14955
1
1
1
1
1
1
1
1
1
1
1
1
1
1
1
1
1
1
1
1
1
1
1
1
1
1
1
1
1
1
1
1
1
1
1
1
1
1
1
1
1
1
1
1
1
1
1
1
1
1
1
1
1.00001
1.45707
2.43733
2.58686
2.58802
2.59383
2.59917
2.60266
2.60493
2.6065
2.60787
2.60987
2.61275
2.6162
2.61956
2.62209
2.62359
2.62422
2.6245
2.62473
2.62503
2.62504
2.62454
2.62321
2.62103
2.61825
2.61498
2.6113
2.60684
2.60132
2.59416
2.5854
2.57488
2.56284
2.54897
2.53263
2.51287
2.48834
2.4585
2.41985
2.37366
2.31654
2.24898
2.17309
1
1
1
1
1
1
1
1
1
1
1
1
1
1
1
1
1
1
1
1
1
1
1
1
1
1
1
1
1
1
1
1
1
1
1
1
1
1
1
1
1
1
1
1
1
1
1
1
1
1
1
1
1
1.02036
2.11655
2.58354
2.58576
2.58849
2.59123
2.59348
2.59485
2.59558
2.59614
2.59734
2.59938
2.60233
2.60543
2.60784
2.60904
2.60905
2.60882
2.60874
2.60888
2.60888
2.60834
2.60695
2.6047
2.60182
2.59824
2.59404
2.58889
2.58259
2.57471
2.56523
2.55399
2.541
2.52613
2.50886
2.48856
2.46408
2.43539
2.39946
2.35822
2.31053
2.2551
2.19572
1
1
1
1
1
1
1
1
1
1
1
1
1
1
1
1
1
1
1
1
1
1
1
1
1
1
1
1
1
1
1
1
1
1
1
1
1
1
1
1
1
1
1
1
1
1
1
1
1
1
1
1
1
1.00002
1.41019
2.40898
2.5754
2.57785
2.5816
2.58397
2.58486
2.58481
2.58475
2.58503
2.58613
2.58852
2.5912
2.59338
2.59426
2.59381
2.59277
2.59207
2.59177
2.59152
2.59086
2.58957
2.58751
2.58477
2.58115
2.57661
2.57092
2.56401
2.55569
2.54586
2.53437
2.52106
2.50588
2.48834
2.46845
2.44433
2.41782
2.38509
2.34863
2.30845
2.26143
2.21297
1
1
1
1
1
1
1
1
1
1
1
1
1
1
1
1
1
1
1
1
1
1
1
1
1
1
1
1
1
1
1
1
1
1
1
1
1
1
1
1
1
1
1
1
1
1
1
1
1
1
1
1
1
1
1.01522
2.03652
2.55874
2.56848
2.57149
2.57373
2.57539
2.57549
2.5755
2.57518
2.57565
2.57742
2.57951
2.58111
2.5814
2.58053
2.57853
2.57671
2.57531
2.57423
2.57314
2.57182
2.56997
2.56748
2.56397
2.55922
2.55307
2.5457
2.53713
2.52727
2.5159
2.50278
2.48786
2.47063
2.45137
2.42818
2.4038
2.37423
2.34227
2.30818
2.26782
2.2254
1
1
1
1
1
1
1
1
1
1
1
1
1
1
1
1
1
1
1
1
1
1
1
1
1
1
1
1
1
1
1
1
1
1
1
1
1
1
1
1
1
1
1
1
1
1
1
1
1
1
1
1
1
1
1.00002
1.23976
2.34745
2.56427
2.56189
2.56302
2.56389
2.5641
2.56404
2.56376
2.56415
2.56566
2.56735
2.56834
2.56836
2.56737
2.56484
2.56216
2.5596
2.55757
2.55587
2.55424
2.5523
2.54983
2.54632
2.54146
2.53512
2.52751
2.51887
2.50916
2.49818
2.48564
2.47154
2.45502
2.43668
2.41518
2.39242
2.36596
2.33815
2.30764
2.27233
2.23601
1
1
1
1
1
1
1
1
1
1
1
1
1
1
1
1
1
1
1
1
1
1
1
1
1
1
1
1
1
1
1
1
1
1
1
1
1
1
1
1
1
1
1
1
1
1
1
1
1
1
1
1
1
1
1
1.00414
1.85858
2.50758
2.54024
2.54497
2.54816
2.5496
2.55026
2.55067
2.55151
2.55316
2.55469
2.55541
2.55538
2.55452
2.55203
2.54892
2.5454
2.54242
2.53992
2.5377
2.53533
2.53255
2.52873
2.52368
2.51727
2.50963
2.50109
2.49162
2.48114
2.46929
2.45623
2.44058
2.42352
2.40377
2.38279
2.35959
2.33463
2.30628
2.27653
2.24498
1
1
1
1
1
1
1
1
1
1
1
1
1
1
1
1
1
1
1
1
1
1
1
1
1
1
1
1
1
1
1
1
1
1
1
1
1
1
1
1
1
1
1
1
1
1
1
1
1
1
1
1
1
1
1
1
1.101
2.21079
2.53611
2.53681
2.53568
2.53575
2.53654
2.53739
2.5386
2.5405
2.5422
2.54277
2.54268
2.54192
2.53974
2.53661
2.53267
2.52914
2.52607
2.52293
2.51987
2.51646
2.5121
2.50665
2.50005
2.49237
2.48398
2.47473
2.46478
2.45343
2.44128
2.42675
2.41098
2.39312
2.37436
2.35355
2.3302
2.30523
2.28006
2.25179
1
1
1
1
1
1
1
1
1
1
1
1
1
1
1
1
1
1
1
1
1
1
1
1
1
1
1
1
1
1
1
1
1
1
1
1
1
1
1
1
1
1
1
1
1
1
1
1
1
1
1
1
1
1
1
1
1.00067
1.45306
2.36513
2.51444
2.51393
2.51669
2.51927
2.52171
2.52388
2.52641
2.52883
2.52954
2.52936
2.52856
2.5266
2.5237
2.51998
2.51644
2.51323
2.50957
2.50576
2.50172
2.49669
2.49081
2.48387
2.47602
2.46769
2.4586
2.44944
2.43823
2.42667
2.41339
2.39865
2.38284
2.36573
2.34646
2.32549
2.30442
2.2814
2.25635
1
1
1
1
1
1
1
1
1
1
1
1
1
1
1
1
1
1
1
1
1
1
1
1
1
1
1
1
1
1
1
1
1
1
1
1
1
1
1
1
1
1
1
1
1
1
1
1
1
1
1
1
1
1
1
1
1
1.01832
1.89409
2.46887
2.49838
2.50281
2.50557
2.50794
2.51011
2.51262
2.51533
2.51603
2.51574
2.51482
2.5129
2.51017
2.50684
2.5034
2.50049
2.49685
2.49294
2.48851
2.48335
2.4771
2.46972
2.46166
2.4531
2.44412
2.43493
2.42419
2.41312
2.40077
2.38699
2.37267
2.35643
2.33887
2.32044
2.30207
2.28047
2.25882
1
1
1
1
1
1
1
1
1
1
1
1
1
1
1
1
1
1
1
1
1
1
1
1
1
1
1
1
1
1
1
1
1
1
1
1
1
1
1
1
1
1
1
1
1
1
1
1
1
1
1
1
1
1
1
1
1
1.00003
1.11807
2.12331
2.47691
2.496
2.4962
2.49758
2.499
2.50028
2.50191
2.50221
2.50177
2.50067
2.49873
2.49606
2.49297
2.48973
2.48707
2.4841
2.4805
2.47629
2.47105
2.46484
2.45719
2.44891
2.43997
2.4309
2.42136
2.41125
2.40062
2.38896
2.3763
2.3627
2.34738
2.33145
2.31489
2.2977
2.27807
2.25904
1
1
1
1
1
1
1
1
1
1
1
1
1
1
1
1
1
1
1
1
1
1
1
1
1
1
1
1
1
1
1
1
1
1
1
1
1
1
1
1
1
1
1
1
1
1
1
1
1
1
1
1
1
1
1
1
1
1
1.00094
1.26873
2.26526
2.47927
2.48097
2.48239
2.48305
2.4838
2.4846
2.48509
2.48502
2.48438
2.48302
2.48097
2.47839
2.47555
2.4731
2.47078
2.46763
2.46391
2.45909
2.45318
2.44594
2.43766
2.42861
2.41919
2.40962
2.39979
2.38949
2.37843
2.36673
2.3536
2.3393
2.32466
2.30924
2.29258
2.27495
2.25784
1
1
1
1
1
1
1
1
1
1
1
1
1
1
1
1
1
1
1
1
1
1
1
1
1
1
1
1
1
1
1
1
1
1
1
1
1
1
1
1
1
1
1
1
1
1
1
1
1
1
1
1
1
1
1
1
1
1
1
1.0052
1.65869
2.37613
2.45767
2.45566
2.45777
2.46037
2.46295
2.46489
2.46615
2.4662
2.46563
2.4645
2.46289
2.46073
2.45882
2.45701
2.45439
2.45114
2.44685
2.44149
2.43471
2.4267
2.41787
2.40853
2.39903
2.38937
2.37937
2.36892
2.35791
2.34541
2.33216
2.31855
2.30377
2.28763
2.27152
2.25545
1
1
1
1
1
1
1
1
1
1
1
1
1
1
1
1
1
1
1
1
1
1
1
1
1
1
1
1
1
1
1
1
1
1
1
1
1
1
1
1
1
1
1
1
1
1
1
1
1
1
1
1
1
1
1
1
1
1
1
1.00001
1.04979
1.90897
2.4176
2.44515
2.44451
2.44634
2.44757
2.44862
2.44934
2.44934
2.44899
2.4484
2.44764
2.44612
2.44478
2.44317
2.44082
2.43781
2.43388
2.42901
2.42295
2.41548
2.40717
2.39829
2.38916
2.37986
2.37028
2.36045
2.34996
2.33822
2.32596
2.31309
2.29867
2.28315
2.26804
2.25261
1
1
1
1
1
1
1
1
1
1
1
1
1
1
1
1
1
1
1
1
1
1
1
1
1
1
1
1
1
1
1
1
1
1
1
1
1
1
1
1
1
1
1
1
1
1
1
1
1
1
1
1
1
1
1
1
1
1
1
1
1.00021
1.13324
2.02489
2.41317
2.43577
2.43798
2.43814
2.43751
2.43665
2.4356
2.43444
2.43344
2.43248
2.43121
2.43001
2.42838
2.42616
2.4233
2.41963
2.41507
2.40962
2.40302
2.39533
2.3872
2.37882
2.37018
2.36127
2.35212
2.34218
2.33126
2.31989
2.30763
2.29366
2.27896
2.26477
2.25012
1
1
1
1
1
1
1
1
1
1
1
1
1
1
1
1
1
1
1
1
1
1
1
1
1
1
1
1
1
1
1
1
1
1
1
1
1
1
1
1
1
1
1
1
1
1
1
1
1
1
1
1
1
1
1
1
1
1
1
1
1
1.00125
1.21227
2.1037
2.39918
2.42922
2.42841
2.42755
2.42626
2.42446
2.42261
2.42109
2.41959
2.41796
2.41625
2.41417
2.41163
2.40858
2.40491
2.40049
2.39538
2.38946
2.38258
2.37523
2.36772
2.35991
2.35182
2.34345
2.33419
2.32408
2.31347
2.30178
2.28866
2.27533
2.26244
2.2494
1
1
1
1
1
1
1
1
1
1
1
1
1
1
1
1
1
1
1
1
1
1
1
1
1
1
1
1
1
1
1
1
1
1
1
1
1
1
1
1
1
1
1
1
1
1
1
1
1
1
1
1
1
1
1
1
1
1
1
1
1
1
1.00318
1.29557
2.15661
2.38986
2.41056
2.41324
2.41301
2.41223
2.41086
2.40937
2.40756
2.40551
2.40321
2.40054
2.39754
2.39414
2.39025
2.38581
2.38082
2.37524
2.36905
2.36246
2.35562
2.34853
2.34124
2.33365
2.32511
2.31581
2.30614
2.2956
2.28436
2.27359
2.26349
2.25322
1
1
1
1
1
1
1
1
1
1
1
1
1
1
1
1
1
1
1
1
1
1
1
1
1
1
1
1
1
1
1
1
1
1
1
1
1
1
1
1
1
1
1
1
1
1
1
1
1
1
1
1
1
1
1
1
1
1
1
1
1
1
1
1.00649
1.37899
2.19608
2.3766
2.39123
2.39504
2.39577
2.3957
2.39511
2.39386
2.39221
2.39001
2.38731
2.38421
2.38068
2.37666
2.37218
2.36723
2.36179
2.35594
2.34974
2.34329
2.33664
2.32978
2.32268
2.3148
2.30691
2.2993
2.29141
2.28481
2.27813
2.27291
2.26832
1
1
1
1
1
1
1
1
1
1
1
1
1
1
1
1
1
1
1
1
1
1
1
1
1
1
1
1
1
1
1
1
1
1
1
1
1
1
1
1
1
1
1
1
1
1
1
1
1
1
1
1
1
1
1
1
1
1
1
1
1
1
1
1.00001
1.01173
1.45326
2.22736
2.36779
2.37108
2.37359
2.37452
2.37552
2.37545
2.37493
2.37376
2.37205
2.36977
2.36685
2.36325
2.35904
2.35423
2.3489
2.34325
2.33729
2.33108
2.32463
2.31795
2.31174
2.30565
2.30087
2.29831
2.29572
2.29482
2.29515
2.29645
2.29568
1
1
1
1
1
1
1
1
1
1
1
1
1
1
1
1
1
1
1
1
1
1
1
1
1
1
1
1
1
1
1
1
1
1
1
1
1
1
1
1
1
1
1
1
1
1
1
1
1
1
1
1
1
1
1
1
1
1
1
1
1
1
1
1
1.00003
1.01859
1.55469
2.25439
2.35446
2.35289
2.35372
2.35391
2.35419
2.35458
2.35461
2.3543
2.35338
2.35165
2.34898
2.34541
2.34099
2.33602
2.33073
2.32499
2.31907
2.31313
2.30796
2.3043
2.30457
2.30625
2.30911
2.31339
2.31831
2.32248
2.3237
2.3211
1
1
1
1
1
1
1
1
1
1
1
1
1
1
1
1
1
1
1
1
1
1
1
1
1
1
1
1
1
1
1
1
1
1
1
1
1
1
1
1
1
1
1
1
1
1
1
1
1
1
1
1
1
1
1
1
1
1
1
1
1
1
1
1
1
1.00005
1.03226
1.61877
2.26396
2.34111
2.3383
2.33645
2.33561
2.33542
2.33552
2.33552
2.33522
2.3343
2.33256
2.3299
2.32629
2.3221
2.31726
2.31239
2.30806
2.30614
2.3081
2.31125
2.31749
2.32691
2.33422
2.34066
2.34498
2.34343
2.34045
2.33501
1
1
1
1
1
1
1
1
1
1
1
1
1
1
1
1
1
1
1
1
1
1
1
1
1
1
1
1
1
1
1
1
1
1
1
1
1
1
1
1
1
1
1
1
1
1
1
1
1
1
1
1
1
1
1
1
1
1
1
1
1
1
1
1
1
1
1.00013
1.04472
1.63804
2.25626
2.32844
2.32546
2.32334
2.32167
2.32042
2.31932
2.31814
2.3167
2.31464
2.31222
2.30912
2.30618
2.30278
2.30281
2.30583
2.31119
2.32167
2.33384
2.34597
2.35438
2.3603
2.36173
2.3584
2.35303
2.34718
2.34026
1
1
1
1
1
1
1
1
1
1
1
1
1
1
1
1
1
1
1
1
1
1
1
1
1
1
1
1
1
1
1
1
1
1
1
1
1
1
1
1
1
1
1
1
1
1
1
1
1
1
1
1
1
1
1
1
1
1
1
1
1
1
1
1
1
1
1
1.00022
1.04998
1.62362
2.23838
2.3172
2.31492
2.31268
2.31005
2.30747
2.30457
2.30161
2.29828
2.29514
2.29245
2.29285
2.29656
2.30494
2.31929
2.33484
2.35105
2.36326
2.37149
2.37284
2.37154
2.36856
2.36181
2.35491
2.34914
2.34291
1
1
1
1
1
1
1
1
1
1
1
1
1
1
1
1
1
1
1
1
1
1
1
1
1
1
1
1
1
1
1
1
1
1
1
1
1
1
1
1
1
1
1
1
1
1
1
1
1
1
1
1
1
1
1
1
1
1
1
1
1
1
1
1
1
1
1
1
1.00027
1.04768
1.60427
2.21651
2.30512
2.30375
2.3008
2.29758
2.29354
2.28929
2.28516
2.2831
2.28568
2.29444
2.30988
2.32932
2.35
2.3648
2.37534
2.38115
2.37881
2.37486
2.37098
2.36683
2.36032
2.35445
2.34978
2.34484
1
1
1
1
1
1
1
1
1
1
1
1
1
1
1
1
1
1
1
1
1
1
1
1
1
1
1
1
1
1
1
1
1
1
1
1
1
1
1
1
1
1
1
1
1
1
1
1
1
1
1
1
1
1
1
1
1
1
1
1
1
1
1
1
1
1
1
1
1
1.00025
1.04381
1.57332
2.18827
2.29209
2.29177
2.28777
2.28326
2.2789
2.27959
2.28597
2.30142
2.32301
2.34761
2.36722
2.37688
2.38417
2.38373
2.38065
2.37545
2.37109
2.36768
2.36373
2.35826
2.35407
2.35031
2.34636
1
1
1
1
1
1
1
1
1
1
1
1
1
1
1
1
1
1
1
1
1
1
1
1
1
1
1
1
1
1
1
1
1
1
1
1
1
1
1
1
1
1
1
1
1
1
1
1
1
1
1
1
1
1
1
1
1
1
1
1
1
1
1
1
1
1
1
1
1
1
1.00022
1.03777
1.52843
2.15007
2.27647
2.27477
2.2748
2.27739
2.29329
2.31931
2.34833
2.3714
2.38386
2.39144
2.38956
2.38673
2.3827
2.3774
2.37188
2.3684
2.36531
2.36121
2.35675
2.35413
2.35089
2.34704
1
1
1
1
1
1
1
1
1
1
1
1
1
1
1
1
1
1
1
1
1
1
1
1
1
1
1
1
1
1
1
1
1
1
1
1
1
1
1
1
1
1
1
1
1
1
1
1
1
1
1
1
1
1
1
1
1
1
1
1
1
1
1
1
1
1
1
1
1
1
1
1.00018
1.02999
1.4702
2.09604
2.2537
2.28288
2.3045
2.3434
2.37505
2.39118
2.40089
2.39774
2.39276
2.38853
2.38443
2.37924
2.37376
2.37025
2.3682
2.36487
2.36012
2.35652
2.35476
2.35163
2.34724
1
1
1
1
1
1
1
1
1
1
1
1
1
1
1
1
1
1
1
1
1
1
1
1
1
1
1
1
1
1
1
1
1
1
1
1
1
1
1
1
1
1
1
1
1
1
1
1
1
1
1
1
1
1
1
1
1
1
1
1
1
1
1
1
1
1
1
1
1
1
1
1
1.00013
1.02181
1.39121
2.03981
2.31042
2.37043
2.39522
2.40469
2.40361
2.39981
2.39423
2.38924
2.38622
2.38255
2.37745
2.37307
2.37095
2.36925
2.36532
2.35973
2.35665
2.35526
2.35167
2.34678
1
1
1
1
1
1
1
1
1
1
1
1
1
1
1
1
1
1
1
1
1
1
1
1
1
1
1
1
1
1
1
1
1
1
1
1
1
1
1
1
1
1
1
1
1
1
1
1
1
1
1
1
1
1
1
1
1
1
1
1
1
1
1
1
1
1
1
1
1
1
1
1
1
1.00008
1.01373
1.327
2.28151
2.46551
2.44242
2.42973
2.41812
2.40696
2.39728
2.39035
2.38632
2.38235
2.37806
2.37483
2.37331
2.37148
2.36661
2.36072
2.358
2.35617
2.35134
2.34597
1
1
1
1
1
1
1
1
1
1
1
1
1
1
1
1
1
1
1
1
1
1
1
1
1
1
1
1
1
1
1
1
1
1
1
1
1
1
1
1
1
1
1
1
1
1
1
1
1
1
1
1
1
1
1
1
1
1
1
1
1
1
1
1
1
1
1
1
1
1
1
1
1
1
1.00005
1.00908
2.1391
2.54528
2.50741
2.47722
2.45457
2.43642
2.42239
2.41172
2.40321
2.39568
2.38894
2.38353
2.37967
2.37544
2.36889
2.36306
2.36037
2.3577
2.3521
2.34733
1
1
1
1
1
1
1
1
1
1
1
1
1
1
1
1
1
1
1
1
1
1
1
1
1
1
1
1
1
1
1
1
1
1
1
1
1
1
1
1
1
1
1
1
1
1
1
1
1
1
1
1
1
1
1
1
1
1
1
1
1
1
1
1
1
1
1
1
1
1
1
1
1
1
1
1.00001
1.60315
2.48883
2.55879
2.54488
2.52819
2.50687
2.48592
2.46659
2.45023
2.43577
2.42225
2.41028
2.40026
2.39057
2.38097
2.37347
2.36851
2.36341
2.35621
2.35101
1
1
1
1
1
1
1
1
1
1
1
1
1
1
1
1
1
1
1
1
1
1
1
1
1
1
1
1
1
1
1
1
1
1
1
1
1
1
1
1
1
1
1
1
1
1
1
1
1
1
1
1
1
1
1
1
1
1
1
1
1
1
1
1
1
1
1
1
1
1
1
1
1
1
1
1
1.03868
2.27027
2.61515
2.60583
2.59115
2.57178
2.55163
2.53139
2.51092
2.49098
2.47224
2.45486
2.4393
2.42507
2.41328
2.40297
2.39363
2.38372
2.37404
2.36661
1
1
1
1
1
1
1
1
1
1
1
1
1
1
1
1
1
1
1
1
1
1
1
1
1
1
1
1
1
1
1
1
1
1
1
1
1
1
1
1
1
1
1
1
1
1
1
1
1
1
1
1
1
1
1
1
1
1
1
1
1
1
1
1
1
1
1
1
1
1
1
1
1
1
1
1
1.00009
1.78739
2.55073
2.60777
2.60302
2.59798
2.58955
2.5787
2.56558
2.55027
2.53394
2.51698
2.49993
2.48334
2.46757
2.45235
2.43792
2.42395
2.41196
2.40135
1
1
1
1
1
1
1
1
1
1
1
1
1
1
1
1
1
1
1
1
1
1
1
1
1
1
1
1
1
1
1
1
1
1
1
1
1
1
1
1
1
1
1
1
1
1
1
1
1
1
1
1
1
1
1
1
1
1
1
1
1
1
1
1
1
1
1
1
1
1
1
1
1
1
1
1
1
1.1503
2.36636
2.62069
2.61387
2.60904
2.60545
2.60042
2.59368
2.58522
2.57509
2.56339
2.55047
2.53664
2.52225
2.50739
2.49229
2.47727
2.46271
2.44855
1
1
1
1
1
1
1
1
1
1
1
1
1
1
1
1
1
1
1
1
1
1
1
1
1
1
1
1
1
1
1
1
1
1
1
1
1
1
1
1
1
1
1
1
1
1
1
1
1
1
1
1
1
1
1
1
1
1
1
1
1
1
1
1
1
1
1
1
1
1
1
1
1
1
1
1
1
1.00155
2.063
2.60466
2.61219
2.60994
2.6078
2.60429
2.60026
2.59575
2.59076
2.585
2.57834
2.57059
2.56175
2.55184
2.5409
2.52932
2.51677
2.50362
1
1
1
1
1
1
1
1
1
1
1
1
1
1
1
1
1
1
1
1
1
1
1
1
1
1
1
1
1
1
1
1
1
1
1
1
1
1
1
1
1
1
1
1
1
1
1
1
1
1
1
1
1
1
1
1
1
1
1
1
1
1
1
1
1
1
1
1
1
1
1
1
1
1
1
1
1
1
1.55163
2.49667
2.62327
2.61845
2.61469
2.6109
2.60739
2.60392
2.60048
2.59693
2.59305
2.58858
2.58307
2.57672
2.56973
2.56207
2.55362
2.54446
1
1
1
1
1
1
1
1
1
1
1
1
1
1
1
1
1
1
1
1
1
1
1
1
1
1
1
1
1
1
1
1
1
1
1
1
1
1
1
1
1
1
1
1
1
1
1
1
1
1
1
1
1
1
1
1
1
1
1
1
1
1
1
1
1
1
1
1
1
1
1
1
1
1
1
1
1
1
1.0352
2.29507
2.63524
2.63149
2.62367
2.61825
2.61346
2.60937
2.60564
2.6021
2.59857
2.59494
2.59107
2.587
2.58252
2.57738
2.5717
2.5656
1
1
1
1
1
1
1
1
1
1
1
1
1
1
1
1
1
1
1
1
1
1
1
1
1
1
1
1
1
1
1
1
1
1
1
1
1
1
1
1
1
1
1
1
1
1
1
1
1
1
1
1
1
1
1
1
1
1
1
1
1
1
1
1
1
1
1
1
1
1
1
1
1
1
1
1
1
1
1.00007
1.98431
2.60728
2.62714
2.62417
2.62151
2.6177
2.61393
2.61014
2.6064
2.60274
2.59912
2.59546
2.59179
2.58791
2.5839
2.57974
2.57534
1
1
1
1
1
1
1
1
1
1
1
1
1
1
1
1
1
1
1
1
1
1
1
1
1
1
1
1
1
1
1
1
1
1
1
1
1
1
1
1
1
1
1
1
1
1
1
1
1
1
1
1
1
1
1
1
1
1
1
1
1
1
1
1
1
1
1
1
1
1
1
1
1
1
1
1
1
1
1
1.52917
2.49778
2.6412
2.63523
2.63192
2.62783
2.62372
2.61941
2.61505
2.61077
2.60655
2.60238
2.59833
2.59429
2.59033
2.58644
2.58251
1
1
1
1
1
1
1
1
1
1
1
1
1
1
1
1
1
1
1
1
1
1
1
1
1
1
1
1
1
1
1
1
1
1
1
1
1
1
1
1
1
1
1
1
1
1
1
1
1
1
1
1
1
1
1
1
1
1
1
1
1
1
1
1
1
1
1
1
1
1
1
1
1
1
1
1
1
1
1
1.03447
2.32131
2.65014
2.6439
2.63854
2.63466
2.63094
2.62703
2.62284
2.6185
2.61401
2.60951
2.60506
2.60063
2.5963
2.59207
2.58794
1
1
1
1
1
1
1
1
1
1
1
1
1
1
1
1
1
1
1
1
1
1
1
1
1
1
1
1
1
1
1
1
1
1
1
1
1
1
1
1
1
1
1
1
1
1
1
1
1
1
1
1
1
1
1
1
1
1
1
1
1
1
1
1
1
1
1
1
1
1
1
1
1
1
1
1
1
1
1
1.00007
2.09801
2.6422
2.64473
2.64247
2.64015
2.63695
2.63333
2.62934
2.62518
2.62084
2.61645
2.61201
2.60752
2.60307
2.59861
2.59422
1
1
1
1
1
1
1
1
1
1
1
1
1
1
1
1
1
1
1
1
1
1
1
1
1
1
1
1
1
1
1
1
1
1
1
1
1
1
1
1
1
1
1
1
1
1
1
1
1
1
1
1
1
1
1
1
1
1
1
1
1
1
1
1
1
1
1
1
1
1
1
1
1
1
1
1
1
1
1
1
1.76876
2.58333
2.64877
2.64396
2.64116
2.63784
2.63454
2.63123
2.6279
2.62442
2.62081
2.61702
2.61305
2.60898
2.60477
2.60048
1
1
1
1
1
1
1
1
1
1
1
1
1
1
1
1
1
1
1
1
1
1
1
1
1
1
1
1
1
1
1
1
1
1
1
1
1
1
1
1
1
1
1
1
1
1
1
1
1
1
1
1
1
1
1
1
1
1
1
1
1
1
1
1
1
1
1
1
1
1
1
1
1
1
1
1
1
1
1
1
1.38056
2.46853
2.65747
2.65128
2.6479
2.64398
2.64025
2.63674
2.6334
2.63008
2.6267
2.62318
2.61948
2.61563
2.61161
2.60747
1
1
1
1
1
1
1
1
1
1
1
1
1
1
1
1
1
1
1
1
1
1
1
1
1
1
1
1
1
1
1
1
1
1
1
1
1
1
1
1
1
1
1
1
1
1
1
1
1
1
1
1
1
1
1
1
1
1
1
1
1
1
1
1
1
1
1
1
1
1
1
1
1
1
1
1
1
1
1
1
1.01856
2.31779
2.66665
2.66017
2.65434
2.64958
2.64547
2.64175
2.63817
2.63465
2.63111
2.6275
2.62381
2.62006
2.61621
2.61228
1
1
1
1
1
1
1
1
1
1
1
1
1
1
1
1
1
1
1
1
1
1
1
1
1
1
1
1
1
1
1
1
1
1
1
1
1
1
1
1
1
1
1
1
1
1
1
1
1
1
1
1
1
1
1
1
1
1
1
1
1
1
1
1
1
1
1
1
1
1
1
1
1
1
1
1
1
1
1
1
1.00002
2.13878
2.66113
2.66073
2.6573
2.65441
2.651
2.6475
2.64383
2.64004
2.63615
2.63221
2.62826
2.62435
2.62044
2.61654
1
1
1
1
1
1
1
1
1
1
1
1
1
1
1
1
1
1
1
1
1
1
1
1
1
1
1
1
1
1
1
1
1
1
1
1
1
1
1
1
1
1
1
1
1
1
1
1
1
1
1
1
1
1
1
1
1
1
1
1
1
1
1
1
1
1
1
1
1
1
1
1
1
1
1
1
1
1
1
1
1
1.91586
2.6296
2.66523
2.66103
2.65838
2.65508
2.65177
2.64819
2.64444
2.64054
2.63656
2.63258
2.62863
2.6247
2.62079
1
1
1
1
1
1
1
1
1
1
1
1
1
1
1
1
1
1
1
1
1
1
1
1
1
1
1
1
1
1
1
1
1
1
1
1
1
1
1
1
1
1
1
1
1
1
1
1
1
1
1
1
1
1
1
1
1
1
1
1
1
1
1
1
1
1
1
1
1
1
1
1
1
1
1
1
1
1
1
1
1
1.6566
2.56704
2.66755
2.66225
2.65934
2.65571
2.65222
2.6487
2.64522
2.64173
2.63821
2.63466
2.63105
2.62737
2.62366
1
1
1
1
1
1
1
1
1
1
1
1
1
1
1
1
1
1
1
1
1
1
1
1
1
1
1
1
1
1
1
1
1
1
1
1
1
1
1
1
1
1
1
1
1
1
1
1
1
1
1
1
1
1
1
1
1
1
1
1
1
1
1
1
1
1
1
1
1
1
1
1
1
1
1
1
1
1
1
1
1
1.37415
2.47817
2.66728
2.66182
2.65949
2.65664
2.65366
2.65056
2.64748
2.64437
2.64122
2.63799
2.63465
2.63119
2.62764
1
1
1
1
1
1
1
1
1
1
1
1
1
1
1
1
1
1
1
1
1
1
1
1
1
1
1
1
1
1
1
1
1
1
1
1
1
1
1
1
1
1
1
1
1
1
1
1
1
1
1
1
1
1
1
1
1
1
1
1
1
1
1
1
1
1
1
1
1
1
1
1
1
1
1
1
1
1
1
1
1
1.14395
2.38256
2.67318
2.66649
2.66234
2.65892
2.6558
2.6528
2.64976
2.64663
2.64343
2.64017
2.63685
2.63345
2.63001
1
1
1
1
1
1
1
1
1
1
1
1
1
1
1
1
1
1
1
1
1
1
1
1
1
1
1
1
1
1
1
1
1
1
1
1
1
1
1
1
1
1
1
1
1
1
1
1
1
1
1
1
1
1
1
1
1
1
1
1
1
1
1
1
1
1
1
1
1
1
1
1
1
1
1
1
1
1
1
1
1
1.00272
2.27481
2.67453
2.67339
2.66765
2.66411
2.66062
2.65732
2.65398
2.65056
2.6471
2.64361
2.6401
2.63657
2.63307
1
1
1
1
1
1
1
1
1
1
1
1
1
1
1
1
1
1
1
1
1
1
1
1
1
1
1
1
1
1
1
1
1
1
1
1
1
1
1
1
1
1
1
1
1
1
1
1
1
1
1
1
1
1
1
1
1
1
1
1
1
1
1
1
1
1
1
1
1
1
1
1
1
1
1
1
1
1
1
1
1
1
2.15226
2.66712
2.67533
2.67111
2.66845
2.66513
2.66178
2.65834
2.65482
2.65127
2.64765
2.644
2.64033
2.63673
1
1
1
1
1
1
1
1
1
1
1
1
1
1
1
1
1
1
1
1
1
1
1
1
1
1
1
1
1
1
1
1
1
1
1
1
1
1
1
1
1
1
1
1
1
1
1
1
1
1
1
1
1
1
1
1
1
1
1
1
1
1
1
1
1
1
1
1
1
1
1
1
1
1
1
1
1
1
1
1
1
1
2.01603
2.64861
2.6773
2.67311
2.67093
2.66796
2.66491
2.66165
2.65825
2.65476
2.65117
2.64754
2.64387
2.64023
1
1
1
1
1
1
1
1
1
1
1
1
1
1
1
1
1
1
1
1
1
1
1
1
1
1
1
1
1
1
1
1
1
1
1
1
1
1
1
1
1
1
1
1
1
1
1
1
1
1
1
1
1
1
1
1
1
1
1
1
1
1
1
1
1
1
1
1
1
1
1
1
1
1
1
1
1
1
1
1
1
1
1.88268
2.62494
2.67842
2.67328
2.67103
2.6682
2.66538
2.66238
2.65924
2.65598
2.65261
2.6492
2.6457
2.64216
1
1
1
1
1
1
1
1
1
1
1
1
1
1
1
1
1
1
1
1
1
1
1
1
1
1
1
1
1
1
1
1
1
1
1
1
1
1
1
1
1
1
1
1
1
1
1
1
1
1
1
1
1
1
1
1
1
1
1
1
1
1
1
1
1
1
1
1
1
1
1
1
1
1
1
1
1
1
1
1
1
1
1.75271
2.60207
2.67952
2.67368
2.67129
2.66843
2.66566
2.66274
2.65975
2.65663
2.65342
2.65016
2.6468
2.64336
1
1
1
1
1
1
1
1
1
1
1
1
1
1
1
1
1
1
1
1
1
1
1
1
1
1
1
1
1
1
1
1
1
1
1
1
1
1
1
1
1
1
1
1
1
1
1
1
1
1
1
1
1
1
1
1
1
1
1
1
1
1
1
1
1
1
1
1
1
1
1
1
1
1
1
1
1
1
1
1
1
1
1.62956
2.57806
2.68037
2.67433
2.67181
2.6689
2.66615
2.66329
2.66041
2.6574
2.65432
2.65114
2.64785
2.64446
1
1
1
1
1
1
1
1
1
1
1
1
1
1
1
1
1
1
1
1
1
1
1
1
1
1
1
1
1
1
1
1
1
1
1
1
1
1
1
1
1
1
1
1
1
1
1
1
1
1
1
1
1
1
1
1
1
1
1
1
1
1
1
1
1
1
1
1
1
1
1
1
1
1
1
1
1
1
1
1
1
1
1.52434
2.55128
2.68177
2.67566
2.67295
2.66994
2.66712
2.66422
2.66137
2.6584
2.65539
2.65225
2.649
2.64564
1
1
1
1
1
1
1
1
1
1
1
1
1
1
1
1
1
1
1
1
1
1
1
1
1
1
1
1
1
1
1
1
1
1
1
1
1
1
1
1
1
1
1
1
1
1
1
1
1
1
1
1
1
1
1
1
1
1
1
1
1
1
1
1
1
1
1
1
1
1
1
1
1
1
1
1
1
1
1
1
1
1
1.44105
2.5254
2.68272
2.67688
2.67409
2.671
2.66809
2.66512
2.66221
2.65923
2.65624
2.65312
2.6499
2.64659
1
1
1
1
1
1
1
1
1
1
1
1
1
1
1
1
1
1
1
1
1
1
1
1
1
1
1
1
1
1
1
1
1
1
1
1
1
1
1
1
1
1
1
1
1
1
1
1
1
1
1
1
1
1
1
1
1
1
1
1
1
1
1
1
1
1
1
1
1
1
1
1
1
1
1
1
1
1
1
1
1
1
1.37702
2.50163
2.68275
2.67734
2.67457
2.67151
2.66857
2.66556
2.6626
2.6596
2.65661
2.65349
2.65028
2.64702
1
1
1
1
1
1
1
1
1
1
1
1
1
1
1
1
1
1
1
1
1
1
1
1
1
1
1
1
1
1
1
1
1
1
1
1
1
1
1
1
1
1
1
1
1
1
1
1
1
1
1
1
1
1
1
1
1
1
1
1
1
1
1
1
1
1
1
1
1
1
1
1
1
1
1
1
1
1
1
1
1
1
1.32978
2.48167
2.68232
2.67729
2.67458
2.67159
2.66867
2.66567
2.66268
2.65966
2.65665
2.6535
2.65029
2.64707
1
1
1
1
1
1
1
1
1
1
1
1
1
1
1
1
1
1
1
1
1
1
1
1
1
1
1
1
1
1
1
1
1
1
1
1
1
1
1
1
1
1
1
1
1
1
1
1
1
1
1
1
1
1
1
1
1
1
1
1
1
1
1
1
1
1
1
1
1
1
1
1
1
1
1
1
1
1
1
1
1
1
1.29775
2.46714
2.68162
2.67692
2.67427
2.67137
2.66851
2.66554
2.66253