/*--------------------------------*- C++ -*----------------------------------*\
  =========                 |
  \\      /  F ield         | OpenFOAM: The Open Source CFD Toolbox
   \\    /   O peration     | Website:  https://openfoam.org
    \\  /    A nd           | Version:  7
     \\/     M anipulation  |
\*---------------------------------------------------------------------------*/
FoamFile
{
    version     2.0;
    format      ascii;
    class       volScalarField;
    location    "35";
    object      p;
}
// * * * * * * * * * * * * * * * * * * * * * * * * * * * * * * * * * * * * * //

dimensions      [0 2 -2 0 0 0 0];

internalField   nonuniform List<scalar> 
16000
(
8.5543882e-06
-0.00013177527
-0.00044327607
-0.0008456367
-0.0012638483
-0.0016525201
-0.0019807796
-0.002229784
-0.002388895
-0.0024524095
-0.00241739
-0.0022823789
-0.0020468037
-0.0017109065
-0.0012760457
-0.00074523182
-0.00012377748
0.00058004987
0.0013544745
0.0021838458
0.0030485386
0.0039251908
0.0047873147
0.0056063163
0.0063528746
0.006998619
0.0075179988
0.0078902123
0.0081010464
0.0081444536
0.00802369
0.0077518873
0.0073520461
0.0068565677
0.0063062636
0.0057486644
0.0052388835
0.0048332773
0.0045935039
0.0045548113
0.00015312084
8.2058939e-06
-0.00024188173
-0.0005507632
-0.00087295811
-0.0011741579
-0.0014301199
-0.0016246636
-0.0017474257
-0.0017919626
-0.0017543362
-0.0016321854
-0.001424256
-0.0011303142
-0.00075134952
-0.00028996674
0.00024912442
0.00085861107
0.0015281562
0.0022441256
0.0029895228
0.0037443246
0.0044858241
0.005189659
0.0058309694
0.0063858588
0.0068330157
0.0071553522
0.0073415277
0.0073872337
0.0072961177
0.0070802156
0.0067597982
0.0063626531
0.0059229349
0.0054795637
0.0050736905
0.004748846
0.004550322
0.0045150593
0.00047177253
0.00025389061
-1.9455838e-06
-0.00028099411
-0.00056123918
-0.00081817544
-0.0010340163
-0.0011967064
-0.0012980385
-0.0013324894
-0.0012963395
-0.0011870583
-0.0010030075
-0.00074343275
-0.00040867962
-5.6298445e-07
0.0004771825
0.0010184414
0.0016143188
0.0022528784
0.0029191154
0.0035950809
0.0042604218
0.0048931424
0.0054706933
0.0059713284
0.006375637
0.0066681039
0.0068385323
0.0068831877
0.0068055651
0.0066167083
0.0063349925
0.0059853056
0.0055976807
0.0052055051
0.0048432592
0.0045451618
0.0043476853
0.0042804797
0.00089338844
0.00056213095
0.00026144028
-2.4344882e-05
-0.00029494971
-0.00053409967
-0.00073022885
-0.00087612567
-0.00096672121
-0.00099831923
-0.00096810378
-0.00087378729
-0.00071349904
-0.00048590207
-0.00019048942
0.00017199627
0.0005990778
0.0010860501
0.0016255402
0.0022071967
0.0028175826
0.0034402455
0.0040562287
0.0046447559
0.0051842715
0.0056537474
0.0060341906
0.0063102278
0.0064715806
0.0065142302
0.0064411211
0.0062623508
0.0059948404
0.0056614641
0.0052895988
0.0049092052
0.0045508895
0.0042444446
0.0040164218
0.0038808249
0.0013441877
0.00088451946
0.00052136697
0.00021105441
-6.6655327e-05
-0.00030271669
-0.00049145013
-0.0006305927
-0.00071849072
-0.00075358126
-0.00073420108
-0.00065844665
-0.00052423358
-0.00032955121
-7.286726e-05
0.00024636316
0.00062713489
0.0010663275
0.0015581905
0.0020939421
0.0026615546
0.0032457874
0.0038285552
0.0043896185
0.004907611
0.0053613463
0.0057313381
0.006001428
0.0061603602
0.0062030792
0.0061315182
0.0059547423
0.0056884661
0.0053540377
0.0049769122
0.0045847434
0.0042058752
0.0038673921
0.0035846932
0.0033610363
0.0017710374
0.0011779076
0.00074324511
0.00039719961
0.00010063953
-0.00014365252
-0.00033536649
-0.00047695108
-0.00057009639
-0.0006153808
-0.00061231693
-0.00055937927
-0.00045421091
-0.00029401106
-7.6057671e-05
0.00020167306
0.00053983506
0.00093704078
0.0013892428
0.0018892259
0.0024262779
0.002986123
0.0035511705
0.004101169
0.0046142349
0.0050682173
0.0054422959
0.0057186907
0.0058843403
0.0059323594
0.0058630231
0.005684043
0.0054100451
0.0050613635
0.004662304
0.0042392301
0.0038196796
0.0034302075
0.0030776813
0.0027503687
0.002128732
0.0014037538
0.00089416445
0.00050593367
0.00018266581
-7.8311913e-05
-0.0002815179
-0.00043373071
-0.00053972988
-0.00060205961
-0.00062127226
-0.00059609549
-0.00052376676
-0.0004005438
-0.00022234281
1.4527371e-05
0.00031257117
0.00067230326
0.001091497
0.0015645477
0.0020820182
0.00263046
0.0031925324
0.0037475842
0.0042726504
0.0047438798
0.0051382713
0.0054355516
0.0056200133
0.0056821365
0.0056197879
0.0054387486
0.0051523666
0.0047803009
0.0043465122
0.0038771655
0.0034003513
0.0029438422
0.0025076353
0.0020661
0.0023787059
0.0015273025
0.00094322692
0.00051004875
0.00015546263
-0.00012809049
-0.00034948325
-0.00051940363
-0.00064538187
-0.00073165143
-0.00077956892
-0.00078790601
-0.00075329879
-0.00067087167
-0.00053498532
-0.00034008041
-8.1591103e-05
0.00024311442
0.00063382853
0.0010867074
0.0015936646
0.0021420692
0.00271472
0.0032903405
0.0038444978
0.0043510425
0.0047839765
0.0051195673
0.0053384677
0.0054275957
0.0053815723
0.0052035226
0.004905033
0.0045050802
0.004027888
0.0035005381
0.0029530819
0.0024161323
0.0018847211
0.0013222099
0.0024871527
0.0015168594
0.00086112888
0.00038266482
-5.6431199e-06
-0.00031586696
-0.00056084588
-0.00075477031
-0.00090755969
-0.0010248219
-0.00110844
-0.0011569804
-0.001166246
-0.0011300032
-0.0010408315
-0.00089107211
-0.00067385156
-0.00038415179
-1.9871401e-05
0.00041719397
0.00092055154
0.0014785551
0.0020741823
0.0026854464
0.0032862011
0.0038475433
0.0043397485
0.0047346114
0.0050079385
0.0051418606
0.005126662
0.0049619152
0.0046567736
0.0042292222
0.0037040217
0.0031101161
0.0024809689
0.0018517056
0.001213764
0.00052027344
0.0024236025
0.0013433452
0.00062030344
9.773359e-05
-0.00032530572
-0.00066515683
-0.00093831825
-0.0011621149
-0.0013485073
-0.0015041637
-0.0016312121
-0.0017277592
-0.0017885369
-0.0018057155
-0.001769842
-0.0016708834
-0.0014993566
-0.001247518
-0.00091057217
-0.00048784327
1.6198326e-05
0.00059131561
0.0012208984
0.0018823476
0.0025476899
0.0031849137
0.0037599246
0.0042390487
0.0045918994
0.0047942573
0.0048305356
0.0046954719
0.004394858
0.0039451519
0.003371627
0.0027057465
0.0019857476
0.0012530239
0.00049651839
-0.00034063155
0.0021602796
0.00098012867
0.00019515336
-0.00036939894
-0.00082734542
-0.0011991256
-0.0015046512
-0.0017640623
-0.0019910487
-0.0021930528
-0.0023721873
-0.0025258634
-0.0026475193
-0.0027275009
-0.0027540636
-0.0027144924
-0.0025963263
-0.0023886656
-0.0020835248
-0.0016771925
-0.0011715067
-0.00057458694
9.784381e-05
0.00082296023
0.0015710583
0.0023067836
0.0029910776
0.003583808
0.0040469694
0.0043481696
0.0044639324
0.0043822797
0.0041041981
0.0036437426
0.0030264202
0.0022866053
0.0014685006
0.00062154655
-0.00026694569
-0.0012641187
0.0016719855
0.00040309323
-0.00043767022
-0.0010415063
-0.0015340876
-0.0019397988
-0.0022817536
-0.0025826325
-0.0028575937
-0.0031146159
-0.0033555808
-0.0035770048
-0.0037708408
-0.0039254061
-0.0040264203
-0.0040581682
-0.0040047948
-0.0038517199
-0.0035871386
-0.0032035453
-0.0026992185
-0.0020797544
-0.0013586746
-0.00055841208
0.00029000496
0.0011478893
0.0019707335
0.0027109429
0.003321363
0.0037593834
0.0039911906
0.0039955438
0.0037664146
0.0033139453
0.0026631975
0.0018516069
0.00093039781
-4.1155393e-05
-0.0010767519
-0.0022545901
0.00093631829
-0.00040909971
-0.001298898
-0.0019389713
-0.002465709
-0.00290728
-0.0032898027
-0.0036382584
-0.0039690665
-0.0042905679
-0.0046042619
-0.0049056305
-0.005184997
-0.0054284837
-0.0056190576
-0.0057377001
-0.0057647319
-0.0056813052
-0.0054710425
-0.005121759
-0.0046272171
-0.0039890435
-0.0032177124
-0.0023340953
-0.0013696603
-0.00036599917
0.00062674078
0.0015525956
0.0023536315
0.0029747129
0.003368809
0.003502201
0.0033587419
0.0029422172
0.0022758464
0.0013998849
0.00037352737
-0.00073225246
-0.0019317315
-0.0033153536
-6.5898578e-05
-0.0014746103
-0.0024061955
-0.0030792441
-0.0036395717
-0.0041189496
-0.0045463084
-0.004948719
-0.0053437087
-0.0057398758
-0.0061382649
-0.0065332635
-0.0069134942
-0.0072627747
-0.0075611454
-0.0077860122
-0.0079134576
-0.0079197633
-0.0077831532
-0.0074857213
-0.0070154933
-0.0063685978
-0.0055510804
-0.0045807314
-0.0034881117
-0.0023167534
-0.0011221238
3.088157e-05
0.0010719875
0.0019309969
0.002544293
0.0028617334
0.0028529647
0.0025118194
0.0018572042
0.00093123819
-0.0001981966
-0.00144642
-0.0028279255
-0.0044469037
-0.0013500797
-0.0028079539
-0.0037736837
-0.0044762947
-0.0050695714
-0.0055886761
-0.0060651667
-0.0065280252
-0.0069957888
-0.007477283
-0.0079731099
-0.0084765963
-0.0089746869
-0.009448872
-0.0098761611
-0.010230164
-0.010482352
-0.010603559
-0.010565778
-0.010344255
-0.0099198453
-0.0092815691
-0.0084291215
-0.0073752927
-0.0061478781
-0.0047907693
-0.0033637568
-0.0019406071
-0.00060511129
0.00055493696
0.0014555335
0.0020253494
0.0022146027
0.0020022066
0.0013988803
0.0004465329
-0.00077807506
-0.0021744709
-0.0037569585
-0.0056451368
-0.0029273167
-0.0044195422
-0.0054114863
-0.0061401052
-0.0067655318
-0.0073260741
-0.0078557463
-0.0083853068
-0.0089342723
-0.0095117461
-0.010117992
-0.010745406
-0.011379386
-0.01199918
-0.012578768
-0.013087832
-0.01349293
-0.013758932
-0.01385082
-0.013735877
-0.013386299
-0.012782165
-0.011914622
-0.010789073
-0.0094281037
-0.0078736818
-0.0061881112
-0.004453106
-0.0027663934
-0.0012354925
3.1264492e-05
0.00093584691
0.0014025382
0.0013887137
0.0008912441
-5.18143e-05
-0.0013555734
-0.0029018218
-0.0047041909
-0.0068993445
-0.0048038674
-0.0063153022
-0.0073253718
-0.0080762613
-0.0087326967
-0.0093358546
-0.0099220574
-0.010523765
-0.011161527
-0.011844873
-0.012573931
-0.013340401
-0.014128368
-0.014915045
-0.015671507
-0.016363508
-0.016952512
-0.01739702
-0.017654318
-0.017682705
-0.017444286
-0.016908307
-0.016055002
-0.014879611
-0.013396477
-0.011642584
-0.009679989
-0.0075963424
-0.0055026236
-0.0035273108
-0.0018066348
-0.00047124783
0.00036944926
0.00064275589
0.00032377059
-0.00055908773
-0.0019150429
-0.0036067065
-0.0056465626
-0.0081898574
-0.0069807689
-0.0084964387
-0.0095165587
-0.010285713
-0.010971385
-0.011617327
-0.012262063
-0.012939761
-0.013672161
-0.014469478
-0.015332025
-0.01625115
-0.017209967
-0.01818397
-0.019141584
-0.020044786
-0.020849928
-0.021508906
-0.021970794
-0.022184055
-0.022099429
-0.021673562
-0.020873377
-0.019681017
-0.018099084
-0.016155766
-0.013909065
-0.011449261
-0.0088984453
-0.0064058778
-0.0041382348
-0.002264486
-0.00093633638
-0.00026707337
-0.00031402994
-0.0010670796
-0.002434043
-0.0042579864
-0.0065499995
-0.0094852049
-0.0094536512
-0.010959411
-0.011981747
-0.012764771
-0.013476882
-0.014164128
-0.014867204
-0.015622113
-0.016452073
-0.01736838
-0.018371975
-0.019454315
-0.020597995
-0.021777207
-0.022958096
-0.024099149
-0.025151771
-0.026061229
-0.026768112
-0.027210446
-0.027326605
-0.02705911
-0.026359409
-0.025193675
-0.02354907
-0.021440626
-0.018917499
-0.016067882
-0.013021064
-0.0099449679
-0.0070374907
-0.0045105258
-0.0025668276
-0.0013724226
-0.0010307331
-0.0015622387
-0.0028810984
-0.0048123952
-0.0073662247
-0.010738637
-0.012212826
-0.013696198
-0.014713446
-0.015505404
-0.016239628
-0.016964237
-0.017722207
-0.018551678
-0.019477816
-0.020513546
-0.02166102
-0.022912382
-0.024250257
-0.025648045
-0.027070068
-0.028471719
-0.029799776
-0.030993072
-0.031983713
-0.032699023
-0.033064385
-0.033007058
-0.032461206
-0.031374733
-0.029715611
-0.027481191
-0.024706324
-0.0214711
-0.017906183
-0.014193631
-0.010560776
-0.007264892
-0.0045675388
-0.0027004584
-0.0018296597
-0.0020228434
-0.0032127016
-0.0052110631
-0.0080288164
-0.011883849
-0.015243713
-0.016694924
-0.017700667
-0.018495892
-0.019245747
-0.020000328
-0.020805224
-0.021701284
-0.022716333
-0.023865682
-0.025153423
-0.026573072
-0.028107912
-0.029731118
-0.031405704
-0.033084435
-0.034709881
-0.036214804
-0.037523093
-0.038551466
-0.039212121
-0.039416455
-0.039080082
-0.038131238
-0.03651513
-0.034207273
-0.031222587
-0.027626171
-0.023542501
-0.019160638
-0.01473232
-0.010559361
-0.0069674359
-0.0042664357
-0.0027035296
-0.0024147943
-0.0033693064
-0.0053751497
-0.0084483639
-0.012829768
-0.018527669
-0.019940929
-0.020930057
-0.021721887
-0.022477959
-0.023250472
-0.024088318
-0.025036019
-0.026125118
-0.027374329
-0.028790588
-0.030369557
-0.032095843
-0.033942975
-0.035873171
-0.037837041
-0.039773402
-0.041609403
-0.043261175
-0.044635227
-0.04563084
-0.046143762
-0.04607138
-0.04531794
-0.043806869
-0.041487627
-0.038349812
-0.034436441
-0.029857088
-0.024798328
-0.019527732
-0.014386511
-0.0097656773
-0.0060632465
-0.0036266611
-0.002685616
-0.0032700193
-0.0052003861
-0.0085065662
-0.013454272
-0.02204326
-0.023418353
-0.024387549
-0.025167942
-0.025916869
-0.026689161
-0.027538251
-0.028513861
-0.029652784
-0.030978481
-0.032501839
-0.03422152
-0.036124107
-0.038183994
-0.040363032
-0.04261007
-0.04486058
-0.047036551
-0.04904688
-0.050788477
-0.052148345
-0.053006941
-0.053242997
-0.052739654
-0.051394537
-0.049129356
-0.045904433
-0.041734289
-0.036704676
-0.030988659
-0.024857852
-0.01868292
-0.012915862
-0.008048051
-0.0045444816
-0.0027563382
-0.002805708
-0.0045503092
-0.0080490996
-0.013596729
-0.025768072
-0.027112356
-0.028060626
-0.028819541
-0.029542644
-0.030288614
-0.031117494
-0.032086543
-0.033239945
-0.034607667
-0.036205853
-0.03803707
-0.040090456
-0.042341627
-0.044752303
-0.047269782
-0.04982643
-0.052339414
-0.054710878
-0.056828789
-0.058568708
-0.059796762
-0.060374047
-0.060162733
-0.059035546
-0.056885255
-0.053640358
-0.049281965
-0.043864035
-0.037534837
-0.030556103
-0.023313573
-0.016309456
-0.010126774
-0.0053604764
-0.0025110867
-0.0018302952
-0.0032479724
-0.0068770545
-0.013049211
-0.029681209
-0.031012148
-0.03194131
-0.032665678
-0.033337021
-0.034020248
-0.034785336
-0.03570052
-0.036820308
-0.038183378
-0.039812626
-0.041715403
-0.043883814
-0.046294796
-0.048909873
-0.051674682
-0.054518439
-0.057353583
-0.0600758
-0.062564652
-0.064685076
-0.066289982
-0.067224219
-0.067330269
-0.066456995
-0.064469082
-0.061262442
-0.05678196
-0.051043874
-0.044161664
-0.036372859
-0.028060837
-0.019761089
-0.012138161
-0.0059213145
-0.0017844799
-0.00015007717
-0.0010659003
-0.0047366724
-0.011546202
-0.033766707
-0.035115173
-0.036030137
-0.036702045
-0.037285587
-0.037856183
-0.038498904
-0.039297875
-0.040321794
-0.041620711
-0.043225847
-0.045150056
-0.047388513
-0.049919184
-0.052702907
-0.055683117
-0.058785431
-0.061917287
-0.064967886
-0.067808658
-0.070294544
-0.072266245
-0.073553844
-0.073982099
-0.073376791
-0.071577349
-0.068447947
-0.063896763
-0.057899186
-0.050526652
-0.041979832
-0.032621546
-0.022999129
-0.013840041
-0.0060016853
-0.00034738366
0.0024889747
0.0022860022
-0.0013069562
-0.0087524215
-0.038018421
-0.039432996
-0.040341477
-0.040934958
-0.041380233
-0.04177057
-0.042213894
-0.042816981
-0.043667581
-0.044830106
-0.046345549
-0.048232589
-0.050489048
-0.053093074
-0.056003767
-0.059161296
-0.062486726
-0.065881761
-0.069228682
-0.072390665
-0.075212938
-0.077524701
-0.079142327
-0.079874085
-0.079526503
-0.077914455
-0.074873135
-0.070275788
-0.064056826
-0.056242032
-0.046986114
-0.036615089
-0.025665095
-0.01490114
-0.0052912402
0.0021078566
0.0064157375
0.0071749823
0.0038156067
-0.0042479753
-0.042447348
-0.04399992
-0.044910848
-0.045386213
-0.045621698
-0.045740544
-0.045884791
-0.046192757
-0.046776959
-0.047719129
-0.049070968
-0.050856552
-0.05307512
-0.055703372
-0.058696939
-0.061991042
-0.065500703
-0.069120665
-0.072725398
-0.076169254
-0.079287596
-0.081898367
-0.083804947
-0.084800402
-0.084673487
-0.083217301
-0.08024088
-0.075585536
-0.06914702
-0.060905566
-0.050965435
-0.039603965
-0.027324919
-0.014902164
-0.0033868784
0.0059807732
0.012049875
0.014063043
0.011136597
0.0024908745
-0.047093414
-0.048886123
-0.049805255
-0.050099185
-0.050022103
-0.04974657
-0.049464418
-0.049356471
-0.049566019
-0.050194352
-0.051303646
-0.0529217
-0.05504677
-0.057651483
-0.060685462
-0.064076636
-0.067731951
-0.071537464
-0.07535885
-0.07904011
-0.082406452
-0.085264265
-0.087404034
-0.088604232
-0.088637012
-0.087275384
-0.084304914
-0.079538312
-0.072836268
-0.064136328
-0.053492265
-0.041126448
-0.027493967
-0.013349757
0.00020554424
0.011771755
0.019918259
0.023528594
0.021290032
0.012118987
-0.052045617
-0.054218446
-0.055138179
-0.055146545
-0.054607301
-0.053771967
-0.052902712
-0.052235126
-0.051948326
-0.052163457
-0.052950828
-0.054338379
-0.056319421
-0.058858655
-0.06189647
-0.065350195
-0.06911636
-0.073070116
-0.077068233
-0.080940502
-0.084502547
-0.087548314
-0.08985488
-0.091185965
-0.091298127
-0.089943959
-0.086887551
-0.081915677
-0.074857319
-0.065611146
-0.054183222
-0.040739608
-0.025676587
-0.0097067945
0.0060549886
0.020081962
0.030669791
0.036293447
0.035076018
0.025465385
-0.057478291
-0.060214294
-0.061091526
-0.060639927
-0.059418665
-0.057801227
-0.056144605
-0.054750505
-0.053835673
-0.053537632
-0.053929095
-0.055031904
-0.056828511
-0.059270396
-0.06228542
-0.065775249
-0.069624421
-0.073695225
-0.077829883
-0.081849022
-0.085553738
-0.088725018
-0.091126037
-0.09250524
-0.092601204
-0.091148779
-0.087889586
-0.082584862
-0.075033728
-0.065098642
-0.052740737
-0.03807069
-0.021420422
-0.003442341
0.01476824
0.031597079
0.045084315
0.053256201
0.053516573
0.043607345
-0.063719123
-0.067237874
-0.06794749
-0.066741147
-0.064513136
-0.061816203
-0.05912646
-0.056817551
-0.055138649
-0.054233857
-0.054167688
-0.054946282
-0.056533261
-0.058860741
-0.061836626
-0.065347132
-0.069259478
-0.073421165
-0.07766
-0.081783493
-0.085578744
-0.088812749
-0.091233812
-0.092574138
-0.092554084
-0.090888416
-0.087295424
-0.081509782
-0.073299593
-0.062490301
-0.04899785
-0.032876047
-0.014386627
0.0058946387
0.02692422
0.047044633
0.064067357
0.07553105
0.077939257
0.068005149
-0.071381297
-0.075894
-0.076132875
-0.073672732
-0.069958626
-0.065787794
-0.061769214
-0.058340476
-0.055765454
-0.054175531
-0.053609993
-0.054045889
-0.055417095
-0.057629188
-0.060565696
-0.064091977
-0.068056368
-0.072289752
-0.076604659
-0.080794129
-0.084631023
-0.087867811
-0.090237359
-0.091454935
-0.091221856
-0.089231092
-0.085175406
-0.07876002
-0.069717783
-0.057831726
-0.04296565
-0.02510821
-0.0044392387
0.018570026
0.042964733
0.067104917
0.088610682
0.10448318
0.11010474
0.10076063
-0.081631915
-0.087182138
-0.086270665
-0.081716712
-0.075815026
-0.069655181
-0.063961593
-0.059200884
-0.055613958
-0.053287128
-0.052209785
-0.052311279
-0.053484558
-0.055599836
-0.058511434
-0.062060421
-0.066074676
-0.070367513
-0.074735827
-0.0789582
-0.082793462
-0.08597982
-0.088234933
-0.089257193
-0.08872859
-0.086319267
-0.081694075
-0.074525063
-0.064503196
-0.051359035
-0.03488973
-0.014997878
0.0082486201
0.034515301
0.063013442
0.092225957
0.11965995
0.14172254
0.15240449
0.14512471
-0.096760269
-0.10273858
-0.099198356
-0.091155672
-0.082062928
-0.073261881
-0.065508234
-0.059217416
-0.054540602
-0.051469811
-0.04991061
-0.049723409
-0.050746247
-0.052806415
-0.055724915
-0.059316704
-0.063388774
-0.067737237
-0.072144221
-0.07637501
-0.080175729
-0.083271734
-0.085366906
-0.086144072
-0.085266981
-0.082383171
-0.077128644
-0.069138923
-0.058055989
-0.043545096
-0.02531554
-0.003151065
0.023041253
0.053141681
0.086633744
0.12228339
0.15778124
0.18895205
0.20809827
0.2063281
-0.12133982
-0.12518746
-0.11587323
-0.10208134
-0.088417456
-0.076198428
-0.066005889
-0.058052361
-0.052291452
-0.048550383
-0.046608542
-0.04623318
-0.047194963
-0.049272887
-0.052253208
-0.055925509
-0.060077736
-0.06449115
-0.068935702
-0.073166061
-0.07691843
-0.079908179
-0.081828344
-0.082349142
-0.081119076
-0.077764776
-0.071896185
-0.063110631
-0.050996445
-0.035142032
-0.015145618
0.0093693592
0.038725804
0.073130078
0.11252018
0.15626299
0.20263128
0.24752354
0.28130134
0.29235694
-0.16445727
-0.158433
-0.13714849
-0.11415757
-0.094107425
-0.077631322
-0.064737997
-0.055161914
-0.048490042
-0.04429171
-0.04217303
-0.041787616
-0.042832671
-0.045039926
-0.048165029
-0.05197736
-0.056251093
-0.060757647
-0.065259467
-0.069505015
-0.07322485
-0.076128644
-0.07790308
-0.078210832
-0.076690819
-0.072948078
-0.066577982
-0.057140886
-0.044172588
-0.027180572
-0.0056362339
0.021035123
0.053464465
0.092331972
0.13829662
0.19182727
0.25266839
0.3175118
0.37626894
0.41537112
-0.24629413
-0.20631818
-0.16213047
-0.12552911
-0.097143877
-0.075878393
-0.060487775
-0.04975257
-0.04266048
-0.038436449
-0.036490591
-0.036365643
-0.037697619
-0.040185434
-0.043567541
-0.047604527
-0.052066224
-0.056722019
-0.061333468
-0.065648619
-0.06939765
-0.072289585
-0.074009954
-0.074220173
-0.07255884
-0.06860586
-0.061961959
-0.052156135
-0.038683139
-0.020981326
0.0015960515
0.029825637
0.06468683
0.10746537
0.15987162
0.2241784
0.30290606
0.3955328
0.49624402
0.60321291
-0.42543889
-0.26573027
-0.17722149
-0.12463611
-0.089116733
-0.065102863
-0.049324071
-0.039185549
-0.032983943
-0.029674337
-0.028570983
-0.029187035
-0.031157113
-0.034190194
-0.038037913
-0.042473636
-0.047278478
-0.052231508
-0.057102565
-0.061646868
-0.06560091
-0.068679287
-0.070571965
-0.070940847
-0.069408134
-0.065630006
-0.059132555
-0.049453003
-0.036074916
-0.018403336
0.0042717627
0.032847733
0.068543214
0.11314267
0.16943728
0.24201784
0.33806674
0.46591649
0.64305531
0.92086289
-0.79331285
-0.32444208
-0.14899733
-0.087725287
-0.055345688
-0.035999384
-0.025091417
-0.019200867
-0.016355398
-0.015618977
-0.016494216
-0.018654035
-0.021853159
-0.02588853
-0.03057555
-0.035733949
-0.041179169
-0.046716418
-0.052136128
-0.057210314
-0.061689637
-0.065301031
-0.067746034
-0.068701064
-0.067824658
-0.064708095
-0.058941908
-0.050072557
-0.037593483
-0.020927234
0.00061063638
0.027881351
0.062059067
0.10491369
0.15945165
0.23152833
0.3338518
0.49409256
0.79001671
1.3837787
1.2043592e-05
-0.00013081854
-0.00044301029
-0.00084556817
-0.0012639714
-0.0016527725
-0.0019811159
-0.00223018
-0.0023893345
-0.0024528787
-0.0024178755
-0.0022828687
-0.0020472876
-0.0017113751
-0.0012764889
-0.00074563819
-0.000124134
0.00057975685
0.0013542569
0.0021837124
0.0030484947
0.0039252416
0.0047874663
0.0056065732
0.0063532332
0.0069990632
0.0075185036
0.0078907546
0.0081016119
0.0081450313
0.0080242549
0.0077523935
0.0073524443
0.0068568361
0.0063064204
0.0057487482
0.0052388684
0.0048330854
0.0045930971
0.0045546007
0.000153981
8.7129947e-06
-0.00024144048
-0.00055029742
-0.00087245428
-0.0011736027
-0.0014295156
-0.0016240229
-0.001746765
-0.0017912988
-0.0017536842
-0.0016315578
-0.0014236644
-0.0011297709
-0.00075086798
-0.00028956072
0.00024944189
0.00085882981
0.001528269
0.002244127
0.0029894064
0.0037440823
0.0044854539
0.0051891694
0.0058303797
0.0063851912
0.0068322857
0.0071545685
0.0073407056
0.00738641
0.0072953445
0.007079532
0.006759207
0.0063621354
0.0059224945
0.0054792495
0.0050735639
0.0047488194
0.0045502297
0.0045151287
0.00047224912
0.00025415391
-1.6377351e-06
-0.00028073525
-0.00056104888
-0.0008180239
-0.0010338903
-0.0011966002
-0.001297948
-0.0013324136
-0.0012962793
-0.0011870141
-0.0010029786
-0.00074341796
-0.00040867786
-5.7425548e-07
0.00047715666
0.0010183997
0.0016142625
0.0022528125
0.0029190453
0.0035950085
0.004260343
0.0048930523
0.0054705939
0.0059712318
0.0063755563
0.0066680378
0.0068384621
0.0068830947
0.0068054552
0.0066166118
0.0063349294
0.005985252
0.0055975861
0.0052053549
0.0048431089
0.0045450486
0.0043475489
0.0042804626
0.00089387224
0.00056218706
0.00026168323
-2.412413e-05
-0.00029481828
-0.0005340143
-0.00073017552
-0.00087610112
-0.00096671904
-0.00099833412
-0.00096813334
-0.00087383056
-0.00071355494
-0.00048596855
-0.00019056311
0.00017191956
0.00059900105
0.0010859738
0.0016254637
0.0022071217
0.002817515
0.0034401945
0.0040561986
0.0046447416
0.0051842627
0.0056537402
0.006034195
0.0063102584
0.0064716359
0.006514283
0.0064411392
0.0062623313
0.0059948155
0.0056614604
0.0052895939
0.0049091435
0.0045507503
0.0042442779
0.0040162769
0.0038807057
0.0013447263
0.00088436898
0.00052157979
0.00021130419
-6.6486989e-05
-0.00030257198
-0.00049131705
-0.00063047723
-0.00071839253
-0.00075349769
-0.0007341307
-0.00065838961
-0.0005241911
-0.00032952494
-7.2858028e-05
0.00024635679
0.00062711617
0.0010662988
0.0015581505
0.0020938869
0.0026614825
0.0032457041
0.0038284716
0.0043895421
0.0049075373
0.005361262
0.0057312366
0.0060013221
0.0061602741
0.0062030207
0.0061314617
0.0059546508
0.005688336
0.00535391
0.0049768255
0.0045846755
0.0042057571
0.0038672484
0.0035846639
0.0033608219
0.0017716673
0.0011775701
0.00074342567
0.00039745355
0.0001007987
-0.00014351197
-0.00033522858
-0.00047682543
-0.00056998592
-0.00061528506
-0.00061223504
-0.0005593105
-0.00045415512
-0.00029396948
-7.6032878e-05
0.00020167906
0.00053982334
0.00093701552
0.0013892077
0.0018891804
0.0024262165
0.0029860418
0.0035510743
0.0041010714
0.0046141475
0.0050681367
0.0054422048
0.0057185765
0.0058842152
0.0059322538
0.0058629512
0.0056839786
0.0054099454
0.0050612228
0.0046621682
0.0042391283
0.0038195589
0.0034300893
0.00307774
0.0027500532
0.0021294638
0.0014032495
0.00089431913
0.00050619065
0.00018281026
-7.8186669e-05
-0.00028139152
-0.00043361354
-0.00053962516
-0.00060196824
-0.00062119507
-0.00059603245
-0.00052371684
-0.00040050597
-0.00022231779
1.4536558e-05
0.00031256153
0.00067227549
0.0010914564
0.0015645004
0.0020819649
0.0026303941
0.0031924474
0.003747483
0.0042725487
0.0047437937
0.0051381996
0.0054354729
0.0056199082
0.0056820143
0.0056196823
0.0054386784
0.0051523053
0.0047802054
0.0043463832
0.0038770345
0.0034001968
0.0029437323
0.0025078013
0.0020657118
0.0023795413
0.0015266494
0.00094336322
0.00051031453
0.00015560122
-0.00012797011
-0.00034935867
-0.00051928668
-0.00064527479
-0.00073155464
-0.00077948434
-0.0007878356
-0.00075324331
-0.00067082999
-0.00053495556
-0.00034006269
-8.1588923e-05
0.00024309669
0.00063379049
0.001086655
0.0015936066
0.0021420082
0.0027146492
0.0032902498
0.0038443875
0.0043509296
0.0047838819
0.0051194933
0.0053383907
0.0054274907
0.0053814455
0.0052034089
0.0049049519
0.0045050076
0.0040277921
0.0035004088
0.0029528918
0.002416014
0.0018849933
0.0013217377
0.0024880895
0.0015160743
0.00086125278
0.00038294116
-5.5077794e-06
-0.00031574736
-0.00056071835
-0.00075465
-0.00090744875
-0.0010247193
-0.0011083468
-0.0011568989
-0.0011661791
-0.0011299525
-0.001040796
-0.00089104892
-0.00067383986
-0.00038415523
-1.9895963e-05
0.00041714623
0.00092048709
0.0014784845
0.0020741119
0.0026853697
0.0032861048
0.0038474239
0.0043396231
0.0047345052
0.0050078575
0.0051417808
0.0051265554
0.0049617859
0.0046566541
0.0042291312
0.003703944
0.0031100086
0.0024807624
0.0018515761
0.0012141343
0.00051970854
0.0024246351
0.0013424432
0.00062042086
9.8022387e-05
-0.00032517292
-0.00066503768
-0.0009381863
-0.0011619888
-0.0013483908
-0.0015040559
-0.0016311127
-0.0017276687
-0.0017884579
-0.0018056517
-0.0017697961
-0.0016708545
-0.0014993408
-0.0012475131
-0.00091058151
-0.00048787414
1.6142408e-05
0.00059123839
0.0012208141
0.0018822666
0.0025476069
0.0031848131
0.0037597991
0.0042389142
0.0045917834
0.0047941687
0.0048304513
0.0046953636
0.0043947287
0.0039450322
0.0033715389
0.0027056515
0.0019855367
0.0012528944
0.00049699341
-0.0003412995
0.0021614001
0.00097912271
0.00019526895
-0.00036909452
-0.00082721246
-0.0011990063
-0.0015045148
-0.0017639288
-0.0019909236
-0.0021929366
-0.0023720805
-0.0025257656
-0.0026474303
-0.002727423
-0.0027540016
-0.0027144502
-0.0025963034
-0.0023886572
-0.0020835269
-0.0016772072
-0.0011715409
-0.00057465205
9.7753864e-05
0.00082286173
0.001570965
0.0023066927
0.0029909722
0.003583678
0.0040468291
0.0043480469
0.0044638368
0.0043821893
0.004104087
0.0036436172
0.0030263152
0.0022865034
0.0014682766
0.00062142354
-0.00026634832
-0.0012649006
0.0016731861
0.00040199576
-0.00043755446
-0.0010411843
-0.0015339504
-0.0019396769
-0.0022816124
-0.0025824919
-0.0028574589
-0.0031144882
-0.0033554627
-0.0035768975
-0.0037707432
-0.0039253173
-0.0040263424
-0.0040581067
-0.0040047549
-0.0038517021
-0.0035871374
-0.0032035552
-0.0026992418
-0.0020797978
-0.0013587484
-0.00055851371
0.00028989242
0.0011477828
0.0019706329
0.0027108316
0.0033212297
0.0037592409
0.0039910649
0.0039954427
0.003766317
0.0033138345
0.0026630928
0.0018514946
0.00093014636
-4.127692e-05
-0.0010760136
-0.0022554986
0.0009375909
-0.00041027432
-0.0012987814
-0.0019386326
-0.0024655645
-0.0029071519
-0.0032896547
-0.0036381107
-0.003968923
-0.0042904286
-0.0046041298
-0.0049055091
-0.0051848878
-0.0054283853
-0.0056189683
-0.0057376213
-0.0057646697
-0.0056812666
-0.0054710291
-0.0051217656
-0.0046272373
-0.0039890732
-0.0032177625
-0.0023341772
-0.0013697725
-0.00036612459
0.00062662122
0.0015524842
0.0023535135
0.0029745777
0.0033686681
0.003502076
0.0033586355
0.0029421167
0.0022757563
0.0013997741
0.00037324343
-0.00073237995
-0.0019308348
-0.0033164083
-6.4563731e-05
-0.0014758452
-0.0024060766
-0.0030788908
-0.0036394195
-0.0041188127
-0.0045461506
-0.0049485623
-0.0053435565
-0.0057397265
-0.0061381197
-0.0065331259
-0.0069133683
-0.0072626625
-0.0075610456
-0.0077859221
-0.0079133779
-0.0079197003
-0.0077831152
-0.0074857119
-0.0070155076
-0.0063686254
-0.0055511192
-0.0045807903
-0.0034882024
-0.0023168755
-0.0011222606
3.0750096e-05
0.0010718656
0.0019308728
0.0025441586
0.0028615978
0.0028528414
0.0025117136
0.0018571258
0.00093113757
-0.00019851019
-0.0014465546
-0.0028268487
-0.0044481309
-0.0013486954
-0.0028092317
-0.0037735595
-0.0044759283
-0.0050694121
-0.0055885303
-0.0060649974
-0.0065278566
-0.0069956258
-0.0074771239
-0.0079729541
-0.0084764447
-0.0089745431
-0.0094487407
-0.0098760454
-0.010230063
-0.010482262
-0.010603479
-0.010565715
-0.010344219
-0.0099198403
-0.0092815907
-0.0084291597
-0.0073753433
-0.0061479485
-0.0047908705
-0.0033638887
-0.0019407536
-0.00060525265
0.00055480665
0.0014554065
0.0020252197
0.0022144738
0.0020020919
0.001398805
0.00044644035
-0.000778419
-0.0021746096
-0.0037556716
-0.0056465671
-0.0029258978
-0.0044208466
-0.0054113541
-0.0061397258
-0.006765365
-0.0073259202
-0.0078555663
-0.0083851253