/*--------------------------------*- C++ -*----------------------------------*\
  =========                 |
  \\      /  F ield         | OpenFOAM: The Open Source CFD Toolbox
   \\    /   O peration     | Website:  https://openfoam.org
    \\  /    A nd           | Version:  7
     \\/     M anipulation  |
\*---------------------------------------------------------------------------*/
FoamFile
{
    version     2.0;
    format      ascii;
    class       surfaceScalarField;
    location    "35";
    object      phi;
}
// * * * * * * * * * * * * * * * * * * * * * * * * * * * * * * * * * * * * * //

dimensions      [0 3 -1 0 0 0 0];

internalField   nonuniform List<scalar> 
45600
(
2.7505441e-07
-2.823546e-07
-8.1997484e-11
4.032777e-07
-1.2819704e-07
-2.5829797e-11
1.3253067e-07
2.7075458e-07
-7.175664e-12
-5.6232452e-07
6.9485732e-07
-1.8503249e-12
-1.6393197e-06
1.076992e-06
3.3253033e-12
-3.027627e-06
1.3883006e-06
6.8142371e-12
-4.6524681e-06
1.6248319e-06
9.0803113e-12
-6.4450997e-06
1.7926211e-06
1.0690029e-11
-8.3454258e-06
1.9003144e-06
1.1866591e-11
-1.0301444e-05
1.9560062e-06
1.2666433e-11
-1.2267403e-05
1.9659456e-06
1.3106739e-11
-1.4201582e-05
1.9341656e-06
1.322338e-11
-1.606424e-05
1.8626439e-06
1.3063799e-11
-1.7816028e-05
1.7517755e-06
1.2649864e-11
-1.9417055e-05
1.601015e-06
1.1965408e-11
-2.082666e-05
1.4095933e-06
1.0971111e-11
-2.2003909e-05
1.1772391e-06
9.6252567e-12
-2.290877e-05
9.0485303e-07
7.9108478e-12
-2.3503868e-05
5.9509215e-07
5.874024e-12
-2.3756701e-05
2.5282929e-07
3.6029965e-12
-2.364214e-05
-1.1456141e-07
1.183706e-12
-2.314501e-05
-4.9712881e-07
-1.3708697e-12
-2.2262576e-05
-8.8242961e-07
-4.0919892e-12
-2.1006618e-05
-1.2559511e-06
-6.9339912e-12
-1.9404864e-05
-1.6017457e-06
-9.6801095e-12
-1.7501558e-05
-1.9032954e-06
-1.1992563e-11
-1.5356973e-05
-2.144571e-06
-1.3630568e-11
-1.3045757e-05
-2.3112002e-06
-1.4639451e-11
-1.0654098e-05
-2.3916446e-06
-1.5268015e-11
-8.2758108e-06
-2.3782742e-06
-1.559598e-11
-6.0075643e-06
-2.2682341e-06
-1.5252079e-11
-3.9435347e-06
-2.0640161e-06
-1.366612e-11
-2.1697906e-06
-1.7737302e-06
-1.0751617e-11
-7.5853955e-07
-1.4112404e-06
-7.247513e-12
2.3821945e-07
-9.9675573e-07
-4.2325202e-12
7.9655468e-07
-5.5833797e-07
-2.2608046e-12
9.2927183e-07
-1.3271958e-07
4.0752868e-13
7.0557099e-07
2.2370121e-07
5.181198e-12
2.9045946e-07
4.1511069e-07
1.0982899e-11
2.9045856e-07
5.318596e-12
1.328328e-07
-4.1516375e-07
-2.3222487e-11
-3.0173688e-07
3.0638801e-07
-1.4707178e-11
-1.6154403e-06
1.5844711e-06
-1.2797556e-11
-3.8747358e-06
2.9541664e-06
-1.3508786e-11
-7.0073621e-06
4.2096331e-06
-1.4612503e-11
-1.0879766e-05
5.2607207e-06
-1.6101463e-11
-1.5335175e-05
6.0802589e-06
-1.7527696e-11
-2.0216009e-05
6.6734744e-06
-1.8583666e-11
-2.5374065e-05
7.0583896e-06
-1.9161547e-11
-3.0673276e-05
7.2552364e-06
-1.9250123e-11
-3.5988542e-05
7.2812304e-06
-1.8908194e-11
-4.1202829e-05
7.1484704e-06
-1.8203699e-11
-4.6203972e-05
6.8638032e-06
-1.7158794e-11
-5.0882099e-05
6.4299181e-06
-1.5755385e-11
-5.5128231e-05
5.8471599e-06
-1.3965831e-11
-5.8834318e-05
5.1156914e-06
-1.1775773e-11
-6.1894801e-05
4.237732e-06
-9.2074181e-12
-6.4209606e-05
3.2196651e-06
-6.3437597e-12
-6.5688355e-05
2.0738442e-06
-3.2709885e-12
-6.6255464e-05
8.1993774e-07
-3.9623978e-14
-6.5855978e-05
-5.1405133e-07
3.3755513e-12
-6.4460803e-05
-1.8923109e-06
7.0282314e-12
-6.2072472e-05
-3.2707707e-06
1.0737584e-11
-5.8729084e-05
-4.5993527e-06
1.4200513e-11
-5.4507071e-05
-5.823776e-06
1.710315e-11
-4.95219e-05
-6.8884879e-06
1.9360592e-11
-4.3926393e-05
-7.740103e-06
2.1169853e-11
-3.7906448e-05
-8.3311699e-06
2.2729956e-11
-3.1674142e-05
-8.6239726e-06
2.3842556e-11
-2.5458399e-05
-8.5940379e-06
2.389119e-11
-1.949361e-05
-8.2330458e-06
2.2425169e-11
-1.4006718e-05
-7.5509323e-06
1.9824939e-11
-9.2032886e-06
-6.5771815e-06
1.7145395e-11
-5.2529037e-06
-5.3616387e-06
1.5015244e-11
-2.273985e-06
-3.9756793e-06
1.2773103e-11
-3.1727589e-07
-2.5150502e-06
9.1108028e-12
6.5705537e-07
-1.1070597e-06
3.6729126e-12
8.0367232e-07
7.7068021e-08
7.7160894e-13
4.1783741e-07
8.0092519e-07
2.67895e-12
7.0830221e-07
-1.8751408e-12
-2.7360779e-07
-1.4154274e-07
-1.2866953e-11
-1.6275159e-06
1.6603042e-06
-7.636412e-12
-4.2894358e-06
4.2464001e-06
-8.9283732e-12
-8.274704e-06
6.9394421e-06
-7.5076739e-12
-1.3474438e-05
9.4093731e-06
-5.519175e-12
-1.9708737e-05
1.1495024e-05
-4.3948956e-12
-2.6765761e-05
1.3137288e-05
-3.6553026e-12
-3.4426623e-05
1.433434e-05
-3.0803058e-12
-4.2478634e-05
1.5110404e-05
-2.624711e-12
-5.0720451e-05
1.5497056e-05
-2.1985361e-12
-5.8962294e-05
1.5523075e-05
-1.7465404e-12
-6.7023688e-05
1.5209865e-05
-1.2818447e-12
-7.4730528e-05
1.4570644e-05
-8.3734488e-13
-8.1912715e-05
1.3612105e-05
-4.2902785e-13
-8.8403142e-05
1.2337587e-05
-5.1183747e-14
-9.403847e-05
1.0751018e-05
3.2688794e-13
-9.8661789e-05
8.8610503e-06
7.4946527e-13
-0.00010212709
6.6849629e-06
1.2106164e-12
-0.00010430522
4.2519736e-06
1.6343323e-12
-0.00010509099
1.605713e-06
1.9129264e-12
-0.00010441063
-1.1944165e-06
2.0312375e-12
-0.00010222945
-4.0734977e-06
2.1020268e-12
-9.855851e-05
-6.9417096e-06
2.284499e-12
-9.3459995e-05
-9.6978699e-06
2.6141343e-12
-8.7050387e-05
-1.2233387e-05
2.8830085e-12
-7.9500992e-05
-1.4437884e-05
2.8010894e-12
-7.1035277e-05
-1.6205822e-05
2.3426198e-12
-6.1922722e-05
-1.744373e-05
1.9162315e-12
-5.2469146e-05
-1.8077553e-05
2.0364337e-12
-4.3003679e-05
-1.8059507e-05
2.6980975e-12
-3.3862824e-05
-1.7373901e-05
3.187209e-12
-2.5372229e-05
-1.6041528e-05
2.7983531e-12
-1.7826885e-05
-1.4122529e-05
1.8311895e-12
-1.1470408e-05
-1.1718123e-05
1.5550466e-12
-6.473867e-06
-8.9722239e-06
2.7438146e-12
-2.914047e-06
-6.0748678e-06
4.3570396e-12
-7.5122744e-07
-3.2698737e-06
4.3588354e-12
1.943511e-07
-8.6850848e-07
3.2841439e-12
2.6548922e-07
7.2977528e-07
3.9535107e-12
9.7379324e-07
4.6189602e-13
-7.458596e-07
6.0433004e-07
-1.3061617e-11
-3.1796594e-06
4.0941057e-06
-1.6273125e-12
-7.3461334e-06
8.4128813e-06
-7.0461728e-12
-1.3163087e-05
1.2756402e-05
-6.4023324e-12
-2.0455848e-05
1.6702138e-05
-3.8117661e-12
-2.8992662e-05
2.0031841e-05
-2.4758629e-12
-3.85139e-05
2.2658528e-05
-1.5466129e-12
-4.8752696e-05
2.4573137e-05
-7.119478e-13
-5.9446998e-05
2.5804706e-05
-6.2861684e-14
-7.0344846e-05
2.6394904e-05
4.3186419e-13
-8.1205138e-05
2.6383365e-05
8.5727776e-13
-9.1795988e-05
2.5800715e-05
1.255029e-12
-0.00010189242
2.4667072e-05
1.6210862e-12
-0.00011127463
2.299432e-05
1.9280828e-12
-0.00011972778
2.0790735e-05
2.1370887e-12
-0.00012704361
1.8066841e-05
2.2248468e-12
-0.00013302416
1.4841597e-05
2.225893e-12
-0.00013748741
1.1148217e-05
2.2117862e-12
-0.00014027451
7.0390691e-06
2.2173718e-12
-0.00014125805
2.5892497e-06
2.1745686e-12
-0.00014035077
-2.1016977e-06
1.9592914e-12
-0.00013751438
-6.9098883e-06
1.479755e-12
-0.00013276701
-1.1689072e-05
8.734559e-13
-0.0001261893
-1.6275586e-05
4.1505651e-13
-0.00011792788
-2.0494807e-05
2.5584366e-13
-0.00010819591
-2.4169857e-05
2.0798825e-13
-9.7269868e-05
-2.7131857e-05
-1.2807261e-13
-8.5482408e-05
-2.9231189e-05
-8.8859632e-13
-7.3210947e-05
-3.0349015e-05
-1.6037305e-12
-6.0862266e-05
-3.0408187e-05
-1.5322171e-12
-4.8853453e-05
-2.9382712e-05
-5.2454273e-13
-3.7589904e-05
-2.7305074e-05
5.6787134e-13
-2.7441314e-05
-2.4271117e-05
7.214898e-13
-1.8716692e-05
-2.0442748e-05
1.0545682e-13
-1.163946e-05
-1.6049462e-05
1.428296e-13
-6.3235763e-06
-1.1390756e-05
1.791224e-12
-2.7515395e-06
-6.8419094e-06
4.0370431e-12
-7.5715404e-07
-2.8628915e-06
4.8344242e-12
-9.5293803e-09
-1.7856878e-08
4.1998828e-12
9.6426115e-07
3.2175439e-12
-1.2279746e-06
1.8323193e-06
-1.4541553e-11
-4.7881272e-06
7.6542537e-06
4.3644544e-12
-1.0521566e-05
1.4146326e-05
-6.1721982e-12
-1.8214358e-05
2.0449202e-05
-7.2443273e-12
-2.7603961e-05
2.6091746e-05
-4.8822266e-12
-3.8396317e-05
3.0824201e-05
-4.1968524e-12
-5.0283071e-05
3.4545286e-05
-3.8595196e-12
-6.2954794e-05
3.7244865e-05
-3.3491878e-12
-7.6109044e-05
3.895896e-05
-2.8478858e-12
-8.9453776e-05
3.9739639e-05
-2.4238385e-12
-0.00010270747
3.9637063e-05
-2.0411131e-12
-0.00011559753
3.8690772e-05
-1.6542716e-12
-0.00012785834
3.6927883e-05
-1.2322151e-12
-0.00013923019
3.4366173e-05
-7.6202409e-13
-0.00014945974
3.1020284e-05
-2.6776625e-13
-0.00015830246
2.6909567e-05
1.8478861e-13
-0.00016552722
2.2066359e-05
5.4287937e-13
-0.00017092273
1.6543723e-05
8.3331083e-13
-0.00017430557
1.0421914e-05
1.1608345e-12
-0.00017552934
3.8130106e-06
1.6019063e-12
-0.00017449411
-3.1369247e-06
2.0901716e-12
-0.00017115587
-1.0248132e-05
2.415879e-12
-0.00016553478
-1.7310156e-05
2.4241971e-12
-0.00015772189
-2.4088486e-05
2.2165923e-12
-0.00014788318
-3.0333514e-05
2.1371395e-12
-0.00013626059
-3.5792456e-05
2.4442815e-12
-0.00012316895
-4.0223491e-05
2.9456803e-12
-0.00010898871
-4.3411431e-05
3.0720171e-12
-9.4153796e-05
-4.5183932e-05
2.4967722e-12
-7.9134849e-05
-4.5427137e-05
1.6963593e-12
-6.4418061e-05
-4.4099504e-05
1.6386142e-12
-5.0480366e-05
-4.124277e-05
2.6527699e-12
-3.7762139e-05
-3.6989343e-05
3.7732918e-12
-2.6638822e-05
-3.1566064e-05
3.7040782e-12
-1.7393172e-05
-2.5295115e-05
2.5132702e-12
-1.0189919e-05
-1.8594015e-05
1.9691931e-12
-5.054739e-06
-1.1977094e-05
3.4252785e-12
-1.8598329e-06
-6.0577979e-06
4.1675719e-12
-3.2223066e-07
-1.5554575e-06
8.5051663e-13
6.4202341e-07
5.7876917e-12
-1.693173e-06
3.5255094e-06
-1.7006101e-11
-6.3714218e-06
1.2332492e-05
9.7890438e-12
-1.3671469e-05
2.1446379e-05
-5.236802e-12
-2.3234078e-05
3.0011818e-05
-7.3647703e-12
-3.469526e-05
3.7552934e-05
-4.6162315e-12
-4.7689836e-05
4.3818782e-05
-4.0765412e-12
-6.1857533e-05
4.8712989e-05
-3.9996581e-12
-7.6848072e-05
5.2235408e-05
-3.6441611e-12
-9.2323871e-05
5.4434763e-05
-3.2039187e-12
-0.00010796027
5.5376041e-05
-2.7768639e-12
-0.00012344396
5.5120759e-05
-2.3747913e-12
-0.00013847068
5.3717499e-05
-1.9947221e-12
-0.00015274321
5.1200415e-05
-1.6181719e-12
-0.00016597052
4.7593485e-05
-1.2059282e-12
-0.00017786872
4.2918484e-05
-7.1906507e-13
-0.00018816403
3.7204879e-05
-1.7410793e-13
-0.00019659787
3.0500199e-05
3.4015742e-13
-0.00020293382
2.2879668e-05
7.3259944e-13
-0.00020696612
1.4454216e-05
1.0152673e-12
-0.00020852927
5.3761635e-06
1.3208511e-12
-0.0002075081
-4.1581017e-06
1.7795358e-12
-0.00020384766
-1.3908571e-05
2.3540477e-12
-0.00019756245
-2.3595366e-05
2.7892622e-12
-0.00018874395
-3.2906988e-05
2.8307714e-12
-0.00017756587
-4.1511594e-05
2.5364238e-12
-0.00016428624
-4.9072087e-05
2.337296e-12
-0.0001492455
-5.5264238e-05
2.6442742e-12
-0.00013285989
-5.9797037e-05
3.3123044e-12
-0.00011560967
-6.2434158e-05
3.6269948e-12
-9.8021752e-05
-6.3015051e-05
3.0632858e-12
-8.0647219e-05
-6.1474041e-05
2.0852094e-12
-6.4034173e-05
-5.7855821e-05
1.8670344e-12
-4.8697445e-05
-5.2326075e-05
2.8933941e-12
-3.50869e-05
-4.5176608e-05
4.0814888e-12
-2.3556673e-05
-3.6825343e-05
3.9387104e-12
-1.4337867e-05
-2.7812825e-05
2.9532291e-12
-7.5174861e-06
-1.8797482e-05
3.5003827e-12
-3.0267233e-06
-1.0548564e-05
3.4273072e-12
-6.4248966e-07
-3.939687e-06
-1.7019315e-12
-4.746376e-10
8.5175571e-12
-2.1329403e-06
5.6584695e-06
-1.9758352e-11
-7.8910843e-06
1.8090622e-05
1.4626453e-11
-1.6717417e-05
3.0272716e-05
-4.4861429e-12
-2.8105755e-05
4.1400164e-05
-7.4532646e-12
-4.1585103e-05
5.1032287e-05
-4.1894091e-12
-5.6714147e-05
5.8947831e-05
-3.6323719e-12
-7.3078288e-05
6.5077134e-05
-3.6654322e-12
-9.0287094e-05
6.9444219e-05
-3.3982409e-12
-0.00010797132
7.2118997e-05
-3.0372449e-12
-0.00012577927
7.3183986e-05
-2.6500486e-12
-0.00014337273
7.271423e-05
-2.2386046e-12
-0.0001604234
7.0768173e-05
-1.8283666e-12
-0.00017661017
6.7387184e-05
-1.4476969e-12
-0.00019161812
6.2601434e-05
-1.0972416e-12
-0.00020513949
5.6439857e-05
-7.2583475e-13
-0.00021687681
4.8942205e-05
-2.6645421e-13
-0.00022654812
4.0171505e-05
2.7965239e-13
-0.00023389404
3.0225589e-05
8.0533517e-13
-0.00023868647
1.924665e-05
1.1768226e-12
-0.00024073839
7.4280812e-06
1.3735881e-12
-0.00023991434
-4.9821572e-06
1.5469173e-12
-0.00023614099
-1.7681916e-05
1.9084391e-12
-0.00022941744
-3.0318915e-05
2.4670806e-12
-0.00021982413
-4.25003e-05
2.9360661e-12
-0.0002075299
-5.3805831e-05
2.9506104e-12
-0.00019279607
-6.3805911e-05
2.4968693e-12
-0.00017597668
-7.2083635e-05
2.0794069e-12
-0.00015751362
-7.8260097e-05
2.2822949e-12
-0.00013792612
-8.2021665e-05
3.0476913e-12
-0.00011779372
-8.3147448e-05
3.5452288e-12
-9.7732945e-05
-8.1534812e-05
3.0614973e-12
-7.8368118e-05
-7.7220651e-05
2.0361957e-12
-6.0297859e-05
-7.0396338e-05
1.7786313e-12
-4.4059519e-05
-6.1414951e-05
2.768646e-12
-3.0094425e-05
-5.0790437e-05
3.7399917e-12
-1.8717259e-05
-3.9189991e-05
3.7970699e-12
-1.0093049e-05
-2.7421698e-05
4.4803398e-12
-4.2253102e-06
-1.6416309e-05
3.1846883e-12
-9.5848419e-07
-7.2065073e-06
-4.8149702e-12
-9.5896836e-07
1.0481425e-11
-2.5450566e-06
8.2035484e-06
-2.2554915e-11
-9.3288513e-06
2.4874397e-05
1.8941784e-11
-1.9615371e-05
4.055924e-05
-3.9532075e-12
-3.2756858e-05
5.4541659e-05
-7.7082489e-12
-4.8175895e-05
6.6451328e-05
-4.0195119e-12
-6.5354097e-05
7.6126039e-05
-3.4912343e-12
-8.3822143e-05
8.3545185e-05
-3.613068e-12
-0.00010315062
8.8772704e-05
-3.3916737e-12
-0.00012294162
9.1909996e-05
-3.1055804e-12
-0.00014282095
9.3063319e-05
-2.8072053e-12
-0.00016243133
9.2324618e-05
-2.4530083e-12
-0.00018142686
8.9763706e-05
-2.0419324e-12
-0.00019946923
8.5429553e-05
-1.6090223e-12
-0.00021622602
7.9358229e-05
-1.2088643e-12
-0.00023137128
7.1585116e-05
-8.6328682e-13
-0.00024458829
6.2159223e-05
-5.1388659e-13
-0.00025557457
5.1157778e-05
-6.3242732e-14
-0.00026404865
3.869967e-05
5.141283e-13
-0.00026975865
2.4956651e-05
1.1035113e-12
-0.00027249207
1.0161501e-05
1.5192425e-12
-0.00027208665
-5.3875739e-06
1.6841065e-12
-0.00026844169
-2.1326875e-05
1.7713865e-12
-0.00026152972
-3.7230891e-05
2.0543694e-12
-0.00025140736
-5.2622656e-05
2.6306635e-12
-0.00023822496
-6.698824e-05
3.1994715e-12
-0.00022223361
-7.9797253e-05
3.2766979e-12
-0.00020378861
-9.0528638e-05
2.7442435e-12
-0.0001833476
-9.8701111e-05
2.1473926e-12
-0.00016146239
-0.00010390688
2.2329648e-12
-0.00013876326
-0.00010584658
3.0443574e-12
-0.00011593534
-0.00010436273
3.6760675e-12
-9.3687539e-05
-9.9468449e-05
3.2967858e-12
-7.2715427e-05
-9.1368452e-05
2.3521079e-12
-5.3660741e-05
-8.0469642e-05
2.1065211e-12
-3.7071081e-05
-6.73801e-05
2.7817945e-12
-2.3363944e-05
-5.2897129e-05
3.7516691e-12
-1.2799314e-05
-3.7986331e-05
5.5140869e-12
-5.4648787e-06
-2.3750748e-05
3.4306584e-12
-1.2772571e-06
-1.1394121e-05
-7.8953456e-12
-2.2362373e-06
1.2746219e-11
-2.928483e-06
1.1132056e-05
-2.5293419e-11
-1.0673675e-05
3.2619566e-05
2.276953e-11
-2.2336178e-05
5.2221747e-05
-3.5934289e-12
-3.7135979e-05
6.9341468e-05
-8.0144582e-12
-5.4394113e-05
8.3709466e-05
-3.9252104e-12
-7.3517628e-05
9.5249558e-05
-3.4688669e-12
-9.3984297e-05
0.00010401186
-3.6986388e-12
-0.00011532795
0.00011011636
-3.4894179e-12
-0.00013712516
0.00011370721
-3.2177404e-12
-0.00015898352
0.00011492168
-2.9748e-12
-0.00018053176
0.00011387287
-2.7029599e-12
-0.00020141212
0.00011064407
-2.363252e-12
-0.00022127501
0.00010529244
-1.9398535e-12
-0.00023977615
9.785938e-05
-1.4678299e-12
-0.00025657635
8.8385311e-05
-1.0293577e-12
-0.00027134343
7.6926308e-05
-6.7237781e-13
-0.00028375656
6.3570903e-05
-3.3938902e-13
-0.0002935124
4.8455515e-05
9.9688928e-14
-0.00030033319
3.177744e-05
7.12383e-13
-0.00030397633
1.3804639e-05
1.3845273e-12
-0.00030424554
-5.1183602e-06
1.8690869e-12
-0.00030100294
-2.4569476e-05
2.0473582e-12
-0.00029418248
-4.4051348e-05
2.043356e-12
-0.00028380322
-6.3001922e-05
2.2246728e-12
-0.00026998218
-8.0809281e-05
2.7934453e-12
-0.00025294547
-9.6833969e-05
3.4607446e-12
-0.00023303597
-0.00011043813
3.6352343e-12
-0.00021071598
-0.0001210211
3.0806063e-12
-0.00018656265
-0.00012806021
2.3505605e-12
-0.00016125482
-0.00013115442
2.3138205e-12
-0.00013554997
-0.00013006758
3.0904256e-12
-0.00011025147
-0.00012476694
3.7508049e-12
-8.6167378e-05
-0.00011545254
3.4659535e-12
-6.4063729e-05
-0.00010257329
2.6409784e-12
-4.4616667e-05
-8.6827166e-05
2.2529985e-12
-2.8368529e-05
-6.9145269e-05
3.1174113e-12
-1.5693152e-05
-5.0661711e-05
5.9883046e-12
-6.7752209e-06
-3.2668681e-05
3.7567128e-12
-1.6070348e-06
-1.6562297e-05
-1.0736983e-11
-3.8432872e-06
1.5251264e-11
-3.2817001e-06
1.4413784e-05
-2.7877928e-11
-1.1915872e-05
4.1253711e-05
2.6160404e-11
-2.4855513e-05
6.5161392e-05
-3.4054731e-12
-4.1199919e-05
8.5685883e-05
-8.3758409e-12
-6.0176309e-05
0.00010268586
-3.8515756e-12
-8.1122246e-05
0.0001161955
-3.4555336e-12
-0.0001034663
0.00012635592
-3.8269757e-12
-0.00012670887
0.00013335894
-3.6576635e-12
-0.00015040463
0.00013740298
-3.3776362e-12
-0.00017414712
0.00013866417
-3.1285862e-12
-0.00019755592
0.00013728167
-2.885323e-12
-0.00022026666
0.00013335482
-2.6232085e-12
-0.00024192386
0.00012694964
-2.2929104e-12
-0.00026217665
0.00011811217
-1.8509286e-12
-0.00028067714
0.0001068858
-1.3306735e-12
-0.00029708127
9.3330441e-05
-8.3966351e-13
-0.00031105192
7.7541556e-05
-4.59732e-13
-0.00032226411
5.9667701e-05
-1.4376182e-13
-0.00033041217
3.9925498e-05
2.7100335e-13
-0.00033521894
1.8611408e-05
8.9536637e-13
-0.0003364471
-3.8902034e-06
1.6217738e-12
-0.0003339117
-2.7104874e-05
2.2396721e-12
-0.00032749593
-5.0467117e-05
2.442554e-12
-0.00031716684
-7.3331011e-05
2.3517409e-12
-0.00030299227
-9.4983862e-05
2.4068451e-12
-0.0002851568
-0.00011466944
2.9197436e-12
-0.00026397515
-0.00013161977
3.6413518e-12
-0.0002399006
-0.00014509566
3.9021234e-12
-0.00021352581
-0.000154435
3.3639133e-12
-0.00018557376
-0.00015910647
2.570309e-12
-0.00015687657
-0.00015876478
2.4460507e-12
-0.00012834162
-0.00015330189
3.1384212e-12
-0.00010090606
-0.00014288811
3.7504703e-12
-7.5482469e-05
-0.00012799688
3.4700277e-12
-5.2901144e-05
-0.00010940849
2.5561475e-12
-3.3855113e-05
-8.8191303e-05
2.7563252e-12
-1.8854783e-05
-6.5662045e-05
6.119242e-12
-8.1982626e-06
-4.3325203e-05
3.7553938e-12
-1.9611623e-06
-2.2799382e-05
-1.377679e-11
-5.8044676e-06
1.8033331e-11
-3.6023029e-06
1.8016117e-05
-3.0253237e-11
-1.3044873e-05
5.0696251e-05
2.9175263e-11
-2.7149289e-05
7.9265812e-05
-3.3524273e-12
-4.4907168e-05
0.00010344377
-8.8286919e-12
-6.5461501e-05
0.0001232402
-3.8562873e-12
-8.8087225e-05
0.00013882123
-3.4589011e-12
-0.00011216879
0.00015043749
-3.9583281e-12
-0.00013717741
0.00015836756
-3.8716361e-12
-0.00016264986
0.00016287544
-3.6266664e-12
-0.00018816991
0.00016418422
-3.3698211e-12
-0.00021335262
0.00016246438
-3.0976847e-12
-0.000237832
0.0001578342
-2.8368971e-12
-0.00026125187
0.00015036952
-2.5811479e-12
-0.0002832598
0.0001401201
-2.2583113e-12
-0.00030350379
0.0001271298
-1.7977406e-12
-0.00032163162
0.00011145828
-1.2239297e-12
-0.00033729241
9.3202339e-05
-6.6503695e-13
-0.00035014034
7.2515637e-05
-2.4421747e-13
-0.00035984075
4.9625905e-05
6.1348996e-14
-0.00036607838
2.4849043e-05
4.2439256e-13
-0.00036856892
-1.3996653e-06
9.9111793e-13
-0.0003670713
-2.8602496e-05
1.8882959e-12
-0.00036140633
-5.6132091e-05
2.6086638e-12
-0.00035147454
-8.3262802e-05
2.8565489e-12
-0.00033727778
-0.00010918062
2.7065923e-12
-0.00031894087
-0.00013300636
2.6358138e-12
-0.00029673172
-0.00015382893
3.0563016e-12
-0.00027107724
-0.00017075014
3.7700159e-12
-0.00024257161
-0.00018294063
4.0685862e-12
-0.00021197325
-0.00018970483
3.5589338e-12
-0.00018018758
-0.00019055046
2.7716999e-12
-0.0001482333
-0.00018525617
2.6198237e-12
-0.00011719275
-0.00017392866
3.2223075e-12
-8.8148945e-05
-0.00015704069
3.6381315e-12
-6.2115379e-05
-0.00013544206
3.0452921e-12
-3.9966487e-05
-0.0001103402
2.9571246e-12
-2.2377609e-05
-8.325093e-05
6.4958517e-12
-9.7826892e-06
-5.5920126e-05
3.5675657e-12
-2.3546948e-06
-3.0227358e-05
-1.7325078e-11
-8.1591833e-06
2.1108504e-11
-3.8870505e-06
2.1903199e-05
-3.241383e-11
-1.404866e-05
6.0857827e-05
3.1829206e-11
-2.9192052e-05
9.4409207e-05
-3.357453e-12
-4.8215261e-05
0.00012246699
-9.337969e-12
-7.0187836e-05
0.00014521278
-3.9797567e-12
-9.4330051e-05
0.00016296345
-3.5340821e-12
-0.0001199882
0.00017609564
-4.0959252e-12
-0.00014660906
0.00018498843
-4.078177e-12
-0.00017371586
0.00018998224
-3.908529e-12
-0.00020088683
0.00019135519
-3.7021979e-12
-0.00022773705
0.00018931461
-3.4240678e-12
-0.00025390377
0.00018400093
-3.1121387e-12
-0.00027903516
0.00017550091
-2.8289985e-12
-0.00030278228
0.00016386722
-2.5740597e-12
-0.00032479392
0.00014914144
-2.2593011e-12
-0.000344714
0.00013137835
-1.7848977e-12
-0.00036218121
0.00011066956
-1.1550674e-12
-0.00037683109
8.7165515e-05
-5.1432777e-13
-0.00038830037
6.1095186e-05
-3.3442767e-14
-0.00039623423
3.2782897e-05
2.8724675e-13
-0.00040029634
2.6624421e-06
6.7506133e-13
-0.00040018383
-2.8715001e-05
1.2568806e-12
-0.00039564401
-6.0671915e-05
2.140354e-12
-0.00038649732
-9.2409497e-05
2.947454e-12
-0.00037266258
-0.00012301535
3.2638725e-12
-0.00035418493
-0.00015148402
3.0894062e-12
-0.00033126376
-0.00017675011
2.9178878e-12
-0.0003042778
-0.0001977361
3.2286717e-12
-0.00027380297
-0.00021341547
3.8674746e-12
-0.00024061828
-0.00022288951
4.1329718e-12
-0.00020569517
-0.00022547357
3.6438042e-12
-0.00017016637
-0.00022078498
2.9333596e-12
-0.00013527316
-0.00020882187
2.830133e-12
-0.00010229331
-0.00019002054
3.2126036e-12
-7.2455926e-05
-0.00016527945
3.0355664e-12
-4.6853289e-05
-0.00013594284
3.2547229e-12
-2.6361361e-05
-0.00010374286
7.2926827e-12
-1.1580441e-05
-7.070105e-05
3.5246022e-12
-2.8033142e-06
-3.9004463e-05
-2.1413052e-11
-1.0962522e-05
2.4529205e-11
-4.1321172e-06
2.603535e-05
-3.435791e-11
-1.4914096e-05
7.1639772e-05
3.406651e-11
-3.0957129e-05
0.00011045224
-3.3802147e-12
-5.108065e-05
0.00014259052
-9.8250033e-12
-7.4292266e-05
0.0001684244
-4.1898937e-12
-9.9766115e-05
0.0001884373
-3.7162501e-12
-0.00012681667
0.00020314621
-4.2921384e-12
-0.00015487129
0.00021304305
-4.2833252e-12
-0.00018344391
0.00021855487
-4.1630639e-12
-0.00021211147
0.00022002275
-4.0399072e-12
-0.00024049341
0.00021769655
-3.8310707e-12
-0.0002682349
0.00021174242
-3.5197937e-12
-0.00029499348
0.0002022595
-3.1662998e-12
-0.00032042901
0.00018930275
-2.8517791e-12
-0.00034419636
0.0001729088
-2.5896785e-12
-0.0003659407
0.00015312269
-2.2838142e-12
-0.00038529501
0.00013002386
-1.8020537e-12
-0.00040187997
0.00010375048
-1.1199814e-12
-0.0004153064
7.4521614e-05
-3.9007818e-13
-0.00042518073
4.2657228e-05
1.8896739e-13
-0.00043111392
8.595635e-06
5.8622315e-13
-0.00043273617
-2.7092749e-05
8.6124149e-13
-0.00042971411
-6.3693975e-05
1.4512811e-12
-0.00042177614
-0.00010034748
2.373589e-12
-0.00040874168
-0.00013604981
3.2554659e-12
-0.00039055534
-0.00016967036
3.6374459e-12
-0.00036732346
-0.00019998199
3.4674162e-12
-0.00033934976
-0.00022570981
3.2299269e-12
-0.00030716534
-0.0002455999
3.4242631e-12
-0.00027154681
-0.00025850805
3.9231168e-12
-0.00023351599
-0.0002635044
4.084922e-12
-0.00019431496
-0.000259986
3.6277934e-12
-0.0001553529
-0.00024778394
3.085292e-12
-0.00011812525
-0.00022724819
2.9150612e-12
-8.4111822e-05
-0.00019929288
2.6119603e-12
-5.4665475e-05
-0.00016538919
3.2132987e-12
-3.0907338e-05
-0.00012750101
8.2349247e-12
-1.3644696e-05
-8.7963695e-05
3.69761e-12
-3.3229923e-06
-4.9326142e-05
-2.6005537e-11
-1.4285542e-05
2.8473217e-11
-4.3334545e-06
3.036884e-05
-3.6038171e-11
-1.5627794e-05
8.2934075e-05
3.5815461e-11
-3.2417909e-05
0.00012724236
-3.4481921e-12
-5.3460303e-05
0.00016363293
-1.0246974e-11
-7.7712453e-05
0.00019267655
-4.4147044e-12
-0.00010431099
0.00021503585
-3.971134e-12
-0.0001325449
0.00023138012
-4.577793e-12
-0.00016182691
0.00024232507
-4.546611e-12
-0.00019166585
0.00024839382
-4.4137919e-12
-0.00022164122
0.00024999812
-4.328469e-12
-0.00025138094
0.00024743628
-4.21056e-12
-0.00028054261
0.00024090409
-3.9914556e-12
-0.00030879818
0.00023051507
-3.6521868e-12
-0.00033582174
0.00021632631
-3.2526555e-12
-0.00036128014
0.00019836719
-2.8943127e-12
-0.00038482592
0.00017666846
-2.613558e-12
-0.00040609252
0.00015129047
-2.3131182e-12
-0.00042469174
0.00012234971
-1.8295243e-12
-0.00044021381
9.004368e-05
-1.1017676e-12
-0.00045223061
5.4674029e-05
-2.7143154e-13
-0.00046030299
1.6668019e-05
4.149817e-13
-0.00046399353
-2.3402212e-05
8.0012228e-13
-0.00046288444
-6.4803067e-05
1.1244625e-12
-0.00045660336
-0.00010662856
1.7083903e-12
-0.00044485605
-0.00014779713
2.6301678e-12
-0.00042746609
-0.00018706032
3.5436188e-12
-0.00040442018
-0.0002230279
3.9666901e-12
-0.00037591557
-0.00025421442
3.8130712e-12
-0.00034240455
-0.00027911094
3.5348238e-12
-0.00030462859
-0.00029628401
3.5997222e-12
-0.00026363335
-0.00030449964
3.897582e-12
-0.00022075511
-0.00030286425
3.9308098e-12
-0.00017757162
-0.00029096744
3.5777728e-12
-0.000135815
-0.00026900481
3.0679269e-12
-9.7251924e-05
-0.00023785596
2.2729089e-12
-6.3544834e-05
-0.00019909628
2.9184813e-12
-3.6114688e-05
-0.00015493117
9.0949159e-12
-1.6028557e-05
-0.00010804983
3.9031202e-12
-3.9298358e-06
-6.1424832e-05
-3.1229248e-11
-1.8215412e-05
3.3132214e-11
-4.4872238e-06
3.4856101e-05
-3.7373162e-11
-1.6177324e-05
9.4624138e-05
3.7057497e-11
-3.3549898e-05
0.00014461494
-3.6034307e-12
-5.5314552e-05
0.00018539759
-1.0627342e-11
-8.0390362e-05
0.00021775237
-4.6198877e-12
-0.00010788479
0.00024253028
-4.2287284e-12
-0.00013706724
0.00026056257
-4.9108745e-12
-0.00016734026
0.00027259809
-4.8915004e-12
-0.00019821118
0.00027926474
-4.7296759e-12
-0.00022926559
0.00028105254
-4.6144188e-12
-0.00026014365
0.00027831434
-4.5179484e-12
-0.00029051963
0.00027128009
-4.3949988e-12
-0.00032008479
0.00026008023
-4.1724474e-12
-0.00034853314
0.00024477467
-3.8076023e-12
-0.0003755499
0.00022538395
-3.3557163e-12
-0.00040080215
0.00020192072
-2.9394869e-12
-0.00042393157
0.00017441988
-2.6241261e-12
-0.00044454927
0.00014296741
-2.3187743e-12
-0.00046223318
0.00010772759
-1.8317774e-12
-0.00047652859
6.8969439e-05
-1.0618545e-12
-0.00048695284
2.7092275e-05
-1.439082e-13
-0.0004930056
-1.7349449e-05
6.2580343e-13
-0.0004941856
-6.3623072e-05
1.107242e-12
-0.00049001578
-0.00011079837
1.468145e-12
-0.0004800777
-0.00015773521
2.0409836e-12
-0.00046405563
-0.0002030824
2.9348669e-12
-0.00044178972
-0.00024529382
3.8269949e-12
-0.00041333572
-0.00028266843
4.247538e-12
-0.00037902593
-0.00031342074
4.0998448e-12
-0.00033952331
-0.00033578663
3.7792999e-12
-0.00029585749
-0.00034816546
3.6832542e-12
-0.00024942978
-0.00034929197
3.7635751e-12
-0.00020197495
-0.00033842226
3.7398589e-12
-0.00015547282
-0.00031550694
3.3279503e-12
-0.00011201158
-0.00028131721
2.1841152e-12
-7.361749e-05
-0.00023749037
2.6840111e-12
-4.2077e-05
-0.00018647167
9.9751879e-12
-1.8784001e-05
-0.00013134283
4.0227638e-12
-4.64001e-06
-7.5568786e-05
-3.7322245e-11
-2.285546e-05
3.8615763e-11
-4.5902833e-06
3.9446423e-05
-3.8307158e-11
-1.6552689e-05
0.00010658651
3.7828394e-11
-3.4333348e-05
0.0001623956
-3.8345377e-12
-5.6610885e-05
0.00020767514
-1.1004407e-11
-8.2277181e-05
0.00024341867
-4.837836e-12
-0.00011041818
0.00027067129
-4.4632081e-12
-0.00014028891
0.00029043331
-5.2222059e-12
-0.0001712855
0.00030359469
-5.2635963e-12
-0.00020291687
0.00031089612
-5.1225199e-12
-0.00023477767
0.00031291334
-4.9760067e-12
-0.00026652356
0.00031006024
-4.8272354e-12
-0.00029784943
0.00030260596
-4.7026859e-12
-0.00032847058
0.00029070138
-4.5739518e-12
-0.00035810669
0.00027441078
-4.3477653e-12
-0.00038646822
0.00025374549
-3.9559173e-12
-0.00041324483
0.00022869732
-3.4450719e-12
-0.00043809565
0.00019927071
-2.9572026e-12
-0.00046064149
0.00016551326
-2.5881281e-12
-0.00048045929
0.00012754539
-2.259268e-12
-0.00049707942
8.558958e-05
-1.7595661e-12
-0.00050998716
4.0000011e-05
-9.5683739e-13
-0.00051862935
-8.7072571e-06
2.8931084e-14
-0.00052242831
-5.9824115e-05
8.9908253e-13
-0.00052080459
-0.00011242209
1.4772295e-12
-0.00051321086
-0.00016532895
1.8951511e-12
-0.00049917818
-0.00021711508
2.4660706e-12
-0.00047837546
-0.00026609654
3.3018856e-12
-0.00045068056
-0.00031036333
4.1108831e-12
-0.00041625888
-0.00034784242
4.4694015e-12
-0.00037564083
-0.00037640468
4.2866758e-12
-0.0003297853
-0.000394021
3.8841746e-12
-0.00028011188
-0.00039896539
3.6207996e-12
-0.00022848371
-0.00039005044
3.5734194e-12
-0.00017712615
-0.0003668645
3.3106974e-12
-0.00012847764
-0.00032996572
2.0709868e-12
-8.4985578e-05
-0.00028098244
2.5659116e-12
-4.8878637e-05
-0.00022257862
1.1078066e-11
-2.1960823e-05
-0.00015826065
4.1282366e-12
-5.4696775e-06
-9.2059887e-05
-4.4457032e-11
-2.8325183e-05
4.4999109e-11
-4.6407195e-06
4.4087181e-05
-3.8846959e-11
-1.6747988e-05
0.00011869374
3.815692e-11
-3.4756312e-05
0.00018040393
-4.0793665e-12
-5.7328462e-05
0.0002302473
-1.1366275e-11
-8.3339263e-05
0.00026942948
-5.1138028e-12
-0.00011185972
0.00029919174
-4.7167497e-12
-0.00014213475
0.00032070834
-5.4992018e-12
-0.00017355702
0.00033501697
-5.5956365e-12
-0.00020563943
0.00034297854
-5.5215943e-12
-0.00023798809
0.00034526201
-5.4080112e-12
-0.00027027699
0.00034234915
-5.2229355e-12
-0.00030222518
0.00033455415
-5.0194421e-12
-0.00033357651
0.00032205272
-4.8566391e-12
-0.00036408204
0.00030491632
-4.7101449e-12
-0.00039348457
0.00028314802
-4.4714329e-12
-0.00042150498
0.00025671774
-4.0467088e-12
-0.0004478303
0.00022559602
-3.471048e-12
-0.0004721032
0.00018978617
-2.9007746e-12
-0.00049391351
0.0001493557
-2.4589645e-12
-0.00051279205
0.00010446813
-2.0831742e-12
-0.00052820805
5.5416012e-05
-1.5556428e-12
-0.00053957137
2.6560623e-06
-7.1902317e-13
-0.0005462418
-5.3153676e-05
3.1099725e-13
-0.00054754738
-0.00011111651
1.2656997e-12
-0.00054281497
-0.00017006136
1.9412574e-12
-0.00053141577
-0.00022851428
2.4282406e-12
-0.00051282801
-0.00028468431
2.9936506e-12
-0.00048671734
-0.000336474
3.7299853e-12
-0.00045303244
-0.00038152733
4.3830092e-12
-0.00041210821
-0.00041732891
4.5976872e-12
-0.00036476272
-0.0004413665
4.3005366e-12
-0.00031236679
-0.00045136133
3.7911936e-12
-0.00025686079
-0.00044555645
3.4548456e-12
-0.00020069379
-0.0004230315
3.0649161e-12
-0.00014667113
-0.00038398838
1.6912151e-12
-9.7717401e-05
-0.00032993617
2.359621e-12
-5.659033e-05
-0.0002637057
1.2422504e-11
-2.5605326e-05
-0.00018924566