/*--------------------------------*- C++ -*----------------------------------*\
  =========                 |
  \\      /  F ield         | OpenFOAM: The Open Source CFD Toolbox
   \\    /   O peration     | Website:  https://openfoam.org
    \\  /    A nd           | Version:  7
     \\/     M anipulation  |
\*---------------------------------------------------------------------------*/
FoamFile
{
    version     2.0;
    format      ascii;
    class       surfaceScalarField;
    location    "35";
    object      phi_0;
}
// * * * * * * * * * * * * * * * * * * * * * * * * * * * * * * * * * * * * * //

dimensions      [0 3 -1 0 0 0 0];

internalField   nonuniform List<scalar> 
45600
(
2.7505431e-07
-2.8235452e-07
-8.2018113e-11
4.0327789e-07
-1.2819662e-07
-2.583758e-11
1.3253138e-07
2.7075454e-07
-7.1880763e-12
-5.6232386e-07
6.9485656e-07
-1.8742508e-12
-1.63932e-06
1.0769916e-06
3.2975587e-12
-3.027628e-06
1.3883015e-06
6.8174399e-12
-4.6524682e-06
1.6248334e-06
9.1363615e-12
-6.4450984e-06
1.7926213e-06
1.0765119e-11
-8.3454245e-06
1.900313e-06
1.1905303e-11
-1.0301445e-05
1.9560049e-06
1.2659406e-11
-1.2267404e-05
1.965946e-06
1.3095356e-11
-1.4201583e-05
1.9341673e-06
1.3240417e-11
-1.6064239e-05
1.862645e-06
1.3094736e-11
-1.7816027e-05
1.7517747e-06
1.2653769e-11
-1.9417055e-05
1.6010125e-06
1.1915903e-11
-2.082666e-05
1.4095911e-06
1.0880122e-11
-2.2003911e-05
1.1772394e-06
9.5448527e-12
-2.2908772e-05
9.0485622e-07
7.9068319e-12
-2.3503868e-05
5.9509543e-07
5.95478e-12
-2.3756698e-05
2.5282848e-07
3.6959185e-12
-2.3642137e-05
-1.1456739e-07
1.1769017e-12
-2.314501e-05
-4.971352e-07
-1.5072108e-12
-2.2262581e-05
-8.8242901e-07
-4.2361681e-12
-2.1006624e-05
-1.2559413e-06
-6.89761e-12
-1.9404864e-05
-1.601735e-06
-9.408983e-12
-1.7501548e-05
-1.9032966e-06
-1.1706708e-11
-1.5356963e-05
-2.1445878e-06
-1.3665874e-11
-1.3045759e-05
-2.3112181e-06
-1.5074442e-11
-1.0654114e-05
-2.3916416e-06
-1.5712393e-11
-8.2758268e-06
-2.3782467e-06
-1.549997e-11
-6.0075596e-06
-2.2682086e-06
-1.4563817e-11
-3.9435085e-06
-2.0640261e-06
-1.3095448e-11
-2.1697711e-06
-1.7737733e-06
-1.1099397e-11
-7.5855622e-07
-1.4112689e-06
-8.3426621e-12
2.3817789e-07
-9.9672687e-07
-4.8312288e-12
7.9653698e-07
-5.5827523e-07
-1.4291173e-12
9.293166e-07
-1.3270366e-07
1.900192e-12
7.05645e-07
2.2361887e-07
5.2613718e-12
2.9050031e-07
4.1498051e-07
8.6661344e-12
2.9039207e-07
1.9904836e-12
1.3283306e-07
-4.151635e-07
-2.3238531e-11
-3.0173721e-07
3.0638866e-07
-1.473775e-11
-1.6154404e-06
1.584472e-06
-1.2814074e-11
-3.8747348e-06
2.9541664e-06
-1.3508062e-11
-7.007361e-06
4.2096318e-06
-1.4623681e-11
-1.0879766e-05
5.2607195e-06
-1.6128261e-11
-1.5335176e-05
6.0802594e-06
-1.7522494e-11
-2.021601e-05
6.6734758e-06
-1.8515075e-11
-2.5374064e-05
7.0583898e-06
-1.9071226e-11
-3.0673275e-05
7.2552349e-06
-1.9207989e-11
-3.5988542e-05
7.2812285e-06
-1.8932468e-11
-4.120283e-05
7.1484699e-06
-1.8251265e-11
-4.6203973e-05
6.8638045e-06
-1.7179811e-11
-5.08821e-05
6.4299199e-06
-1.5736584e-11
-5.512823e-05
5.8471604e-06
-1.3936504e-11
-5.8834316e-05
5.1156894e-06
-1.1790539e-11
-6.18948e-05
4.2377287e-06
-9.3048777e-12
-6.4209608e-05
3.2196635e-06
-6.4753759e-12
-6.5688359e-05
2.0738468e-06
-3.3286796e-12
-6.6255466e-05
8.1994316e-07
6.2105984e-14
-6.5855975e-05
-5.1404867e-07
3.5783931e-12
-6.4460796e-05
-1.8923157e-06
7.1379892e-12
-6.2072467e-05
-3.2707806e-06
1.0597402e-11
-5.8729088e-05
-4.599358e-06
1.3892319e-11
-5.4507082e-05
-5.8237684e-06
1.6959699e-11
-4.9521907e-05
-6.8884718e-06
1.9648633e-11
-4.3926384e-05
-7.7400954e-06
2.1719518e-11
-3.7906429e-05
-8.3311842e-06
2.2960091e-11
-3.1674133e-05
-8.6239994e-06
2.3340877e-11
-2.5458417e-05
-8.594048e-06
2.3028525e-11
-1.9493641e-05
-8.2330207e-06
2.2174961e-11
-1.4006725e-05
-7.5508936e-06
2.0682284e-11
-9.2032545e-06
-6.5771761e-06
1.827943e-11
-5.2528627e-06
-5.3616834e-06
1.4959112e-11
-2.273992e-06
-3.9757271e-06
1.1280107e-11
-3.1734075e-07
-2.5150334e-06
7.8859233e-12
6.570007e-07
-1.1069734e-06
4.6271652e-12
8.0369917e-07
7.7145709e-08
3.4640198e-12
4.1794075e-07
8.0092386e-07
4.3838874e-12
7.082479e-07
-3.1729555e-12
-2.7360706e-07
-1.4154282e-07
-1.2894241e-11
-1.627516e-06
1.660304e-06
-7.69212e-12
-4.2894367e-06
4.2464008e-06
-8.975279e-12
-8.2747043e-06
6.9394433e-06
-7.5064593e-12
-1.3474437e-05
9.4093731e-06
-5.4858655e-12
-1.9708735e-05
1.1495022e-05
-4.3836461e-12
-2.6765762e-05
1.3137286e-05
-3.6723436e-12
-3.4426625e-05
1.433434e-05
-3.0715822e-12
-4.2478635e-05
1.5110405e-05
-2.5594719e-12
-5.072045e-05
1.5497056e-05
-2.1164077e-12
-5.8962292e-05
1.5523073e-05
-1.7111985e-12
-6.7023687e-05
1.5209863e-05
-1.3149045e-12
-7.4730529e-05
1.4570643e-05
-9.0850694e-13
-8.1912716e-05
1.3612106e-05
-4.8497595e-13
-8.8403144e-05
1.233759e-05
-4.9062041e-14
-9.4038469e-05
1.075102e-05
3.8266621e-13
-9.8661786e-05
8.8610488e-06
7.8556657e-13
-0.00010212708
6.6849583e-06
1.1497133e-12
-0.00010430522
4.2519698e-06
1.4826866e-12
-0.000105091
1.6057147e-06
1.8024788e-12
-0.00010441063
-1.1944091e-06
2.1134836e-12
-0.00010222944
-4.0734915e-06
2.3693905e-12
-9.8558501e-05
-6.9417128e-06
2.5081403e-12
-9.3459987e-05
-9.697883e-06
2.5181312e-12
-8.7050389e-05
-1.2233398e-05
2.4728589e-12
-7.9501007e-05
-1.4437879e-05
2.4787694e-12
-7.103529e-05
-1.6205801e-05
2.5642277e-12
-6.1922715e-05
-1.7443713e-05
2.6205683e-12
-5.246912e-05
-1.8077564e-05
2.5044992e-12
-4.3003661e-05
-1.8059542e-05
2.2412115e-12
-3.386284e-05
-1.7373922e-05
2.0847139e-12
-2.5372269e-05
-1.6041503e-05
2.2787705e-12
-1.7826902e-05
-1.4122478e-05
2.7277614e-12
-1.147037e-05
-1.1718105e-05
3.0176835e-12
-6.4738091e-06
-8.9722749e-06
2.9095585e-12
-2.9140414e-06
-6.0749431e-06
2.6365143e-12
-7.512923e-07
-3.2698928e-06
2.5407736e-12
1.9429923e-07
-8.6845744e-07
3.5384761e-12
2.6554031e-07
7.2982404e-07
5.662442e-12
9.7377966e-07
7.5862517e-13
-7.4585891e-07
6.0433032e-07
-1.3077936e-11
-3.1796586e-06
4.0941048e-06
-1.6690184e-12
-7.3461338e-06
8.4128805e-06
-7.1118237e-12
-1.3163088e-05
1.2756403e-05
-6.4405813e-12
-2.0455848e-05
1.6702139e-05
-3.782204e-12
-2.8992661e-05
2.0031841e-05
-2.4181875e-12
-3.8513899e-05
2.2658526e-05
-1.5273891e-12
-4.8752696e-05
2.4573135e-05
-7.3297322e-13
-5.9447e-05
2.5804707e-05
-6.9073462e-14
-7.0344847e-05
2.6394905e-05
4.7455956e-13
-8.1205137e-05
2.6383366e-05
9.2329008e-13
-9.1795987e-05
2.5800714e-05
1.2923943e-12
-0.00010189242
2.4667069e-05
1.5950279e-12
-0.00011127463
2.2994318e-05
1.843328e-12
-0.00011972779
2.0790735e-05
2.0474953e-12
-0.00012704361
1.8066844e-05
2.2098006e-12
-0.00013302416
1.48416e-05
2.3116096e-12
-0.00013748741
1.1148216e-05
2.3198456e-12
-0.0001402745
7.0390637e-06
2.2103977e-12
-0.00014125805
2.5892433e-06
2.0038818e-12
-0.00014035077
-2.1016979e-06
1.7639266e-12
-0.00013751438
-6.9098797e-06
1.4962209e-12
-0.00013276702
-1.1689062e-05
1.1881227e-12
-0.00012618929
-1.6275586e-05
7.8118346e-13
-0.00011792787
-2.0494823e-05
2.5524132e-13
-0.0001081959
-2.4169875e-05
-2.9258615e-13
-9.7269886e-05
-2.7131857e-05
-6.8167732e-13
-8.5482429e-05
-2.9231165e-05
-8.0644473e-13
-7.3210945e-05
-3.0348989e-05
-7.6590404e-13
-6.0862236e-05
-3.0408194e-05
-7.7148227e-13
-4.8853425e-05
-2.9382754e-05
-8.6416193e-13
-3.7589917e-05
-2.7305107e-05
-7.6293169e-13
-2.7441364e-05
-2.4271097e-05
-1.2672109e-13
-1.8716722e-05
-2.0442684e-05
9.6920811e-13
-1.1639427e-05
-1.6049422e-05
1.9770429e-12
-6.3235149e-06
-1.1390785e-05
2.4921011e-12
-2.7515343e-06
-6.8419682e-06
2.8447395e-12
-7.5720844e-07
-2.862907e-06
3.5726124e-12
-9.5397793e-09
-1.7828929e-08
4.4678548e-12
9.6427485e-07
3.7854395e-12
-1.227975e-06
1.8323203e-06
-1.4550056e-11
-4.7881262e-06
7.6542538e-06
4.3681771e-12
-1.0521565e-05
1.4146325e-05
-6.2025953e-12
-1.8214359e-05
2.0449201e-05
-7.3048829e-12
-2.7603963e-05
2.6091747e-05
-4.9049564e-12
-3.8396318e-05
3.0824203e-05
-4.1485073e-12
-5.0283069e-05
3.4545286e-05
-3.7936112e-12
-6.2954793e-05
3.7244863e-05
-3.3309245e-12
-7.6109044e-05
3.8958958e-05
-2.878395e-12
-8.9453777e-05
3.9739639e-05
-2.4509595e-12
-0.00010270747
3.9637065e-05
-2.0247533e-12
-0.00011559753
3.8690774e-05
-1.598561e-12
-0.00012785834
3.6927883e-05
-1.1780297e-12
-0.00013923019
3.436617e-05
-7.6585677e-13
-0.00014945973
3.102028e-05
-3.5727648e-13
-0.00015830246
2.6909566e-05
6.252428e-14
-0.00016552723
2.2066362e-05
5.0325747e-13
-0.00017092273
1.6543728e-05
9.4727246e-13
-0.00017430557
1.0421916e-05
1.3471961e-12
-0.00017552933
3.8130049e-06
1.6628717e-12
-0.00017449411
-3.136934e-06
1.902691e-12
-0.00017115587
-1.0248135e-05
2.1110241e-12
-0.0001655348
-1.7310146e-05
2.337978e-12
-0.00015772189
-2.4088471e-05
2.5579794e-12
-0.00014788317
-3.0333509e-05
2.6663159e-12
-0.00013626057
-3.5792472e-05
2.5829456e-12
-0.00012316895
-4.0223517e-05
2.3795896e-12
-0.00010898873
-4.3411438e-05
2.2680142e-12
-9.4153826e-05
-4.5183905e-05
2.39682e-12
-7.9134854e-05
-4.54271e-05
2.6476183e-12
-6.4418025e-05
-4.4099502e-05
2.7142384e-12
-5.0480325e-05
-4.1242816e-05
2.4806361e-12
-3.7762145e-05
-3.6989393e-05
2.2660172e-12
-2.6638877e-05
-3.156606e-05
2.4889846e-12
-1.7393208e-05
-2.529506e-05
3.0704117e-12
-1.0189887e-05
-1.8593976e-05
3.5765277e-12
-5.0546902e-06
-1.1977111e-05
4.0019697e-12
-1.8598447e-06
-6.057832e-06
3.3678459e-12
-3.2225505e-07
-1.5554595e-06
3.2985774e-13
6.4203667e-07
5.9075006e-12
-1.6931743e-06
3.5255101e-06
-1.7030309e-11
-6.3714222e-06
1.2332494e-05
9.8088529e-12
-1.3671468e-05
2.1446379e-05
-5.2089353e-12
-2.3234077e-05
3.0011817e-05
-7.3898721e-12
-3.4695261e-05
3.7552933e-05
-4.6755669e-12
-4.7689837e-05
4.3818783e-05
-4.0975587e-12
-6.1857533e-05
4.871299e-05
-3.9537408e-12
-7.684807e-05
5.2235409e-05
-3.5827033e-12
-9.2323869e-05
5.4434761e-05
-3.1883671e-12
-0.00010796027
5.5376039e-05
-2.8128533e-12
-0.00012344396
5.5120758e-05
-2.4214586e-12
-0.00013847069
5.37175e-05
-2.0048768e-12
-0.00015274321
5.1200417e-05
-1.5683619e-12
-0.00016597052
4.7593486e-05
-1.1241644e-12
-0.00017786872
4.2918482e-05
-6.8635374e-13
-0.00018816403
3.7204875e-05
-2.571083e-13
-0.00019659787
3.0500196e-05
1.8221768e-13
-0.00020293382
2.2879671e-05
6.5158208e-13
-0.00020696612
1.4454224e-05
1.1376188e-12
-0.00020852927
5.3761678e-06
1.5846521e-12
-0.00020750809
-4.1581068e-06
1.9307327e-12
-0.00020384765
-1.3908583e-05
2.1703205e-12
-0.00019756245
-2.3595373e-05
2.3659641e-12
-0.00018874396
-3.290698e-05
2.598641e-12
-0.00017756588
-4.1511573e-05
2.8618547e-12
-0.00016428623
-4.9072075e-05
3.0281698e-12
-0.00014924547
-5.5264253e-05
2.9686523e-12
-0.00013285988
-5.979707e-05
2.7365273e-12
-0.00011560969
-6.2434175e-05
2.5890958e-12
-9.8021791e-05
-6.3015025e-05
2.740839e-12
-8.0647231e-05
-6.1473994e-05
3.0764521e-12
-6.4034136e-05
-5.7855806e-05
3.2179907e-12
-4.8697397e-05
-5.2326114e-05
2.9954676e-12
-3.5086904e-05
-4.517666e-05
2.7172326e-12
-2.3556724e-05
-3.6825346e-05
2.7702883e-12
-1.4337892e-05
-2.7812784e-05
3.3517782e-12
-7.5174538e-06
-1.8797457e-05
4.5731721e-12
-3.0267029e-06
-1.0548579e-05
3.6053614e-12
-6.4249924e-07
-3.9397042e-06
-2.1182467e-12
-4.7345712e-10
8.3034361e-12
-2.1329409e-06
5.6584689e-06
-1.9789794e-11
-7.8910861e-06
1.8090623e-05
1.4613599e-11
-1.6717417e-05
3.0272718e-05
-4.4437112e-12
-2.8105754e-05
4.1400163e-05
-7.4178474e-12
-4.1585102e-05
5.1032285e-05
-4.2164687e-12
-5.6714149e-05
5.894783e-05
-3.6944319e-12
-7.307829e-05
6.5077135e-05
-3.6907678e-12
-9.0287094e-05
6.9444221e-05
-3.3612767e-12
-0.00010797132
7.2118998e-05
-2.9809369e-12
-0.00012577926
7.3183984e-05
-2.6279762e-12
-0.00014337273
7.2714228e-05
-2.2697655e-12
-0.00016042341
7.0768172e-05
-1.8911161e-12
-0.00017661017
6.7387185e-05
-1.4861148e-12
-0.00019161812
6.2601437e-05
-1.0546827e-12
-0.00020513949
5.6439859e-05
-6.1210769e-13
-0.00021687681
4.8942204e-05
-1.8519395e-13
-0.00022654812
4.01715e-05
2.1507974e-13
-0.00023389404
3.0225585e-05
6.0966626e-13
-0.00023868648
1.9246653e-05
1.0302907e-12
-0.0002407384
7.4280903e-06
1.4744747e-12
-0.00023991433
-4.9821492e-06
1.8813151e-12
-0.00023614098
-1.7681919e-05
2.175511e-12
-0.00022941743
-3.0318931e-05
2.3230773e-12
-0.00021982414
-4.2500313e-05
2.40133e-12
-0.00020752992
-5.3805825e-05
2.5343031e-12
-0.00019279609
-6.3805886e-05
2.7504519e-12
-0.00017597667
-7.2083615e-05
2.9102129e-12
-0.00015751359
-7.8260108e-05
2.8335892e-12
-0.00013792609
-8.2021703e-05
2.5448505e-12
-0.00011779373
-8.3147475e-05
2.3385861e-12
-9.7732989e-05
-8.1534793e-05
2.4917012e-12
-7.8368136e-05
-7.7220602e-05
2.9010987e-12
-6.0297824e-05
-7.0396316e-05
3.1483645e-12
-4.4059475e-05
-6.1414982e-05
2.9897574e-12
-3.0094432e-05
-5.079048e-05
2.6547428e-12
-1.8717301e-05
-3.9189993e-05
2.9758621e-12
-1.0093057e-05
-2.742167e-05
4.8145746e-12
-4.2252915e-06
-1.6416297e-05
3.7475249e-12
-9.5847536e-07
-7.2065166e-06
-4.7371268e-12
-9.5897662e-07
1.0292304e-11
-2.5450554e-06
8.2035474e-06
-2.2554751e-11
-9.3288527e-06
2.4874397e-05
1.8898021e-11
-1.9615373e-05
4.0559241e-05
-3.9594256e-12
-3.2756858e-05
5.454166e-05
-7.6640484e-12
-4.8175893e-05
6.6451328e-05
-3.9882234e-12
-6.5354096e-05
7.6126037e-05
-3.5219171e-12
-8.3822144e-05
8.3545184e-05
-3.6783263e-12
-0.00010315062
8.8772704e-05
-3.4259341e-12
-0.00012294162
9.1909998e-05
-3.0822879e-12
-0.00014282095
9.306332e-05
-2.7514785e-12
-0.00016243133
9.2324617e-05
-2.4117606e-12
-0.00018142686
8.9763704e-05
-2.0577358e-12
-0.00019946923
8.5429551e-05
-1.6856119e-12
-0.00021622602
7.9358229e-05
-1.281366e-12
-0.00023137128
7.158512e-05
-8.3707561e-13
-0.00024458829
6.2159227e-05
-3.7143871e-13
-0.00025557456
5.1157778e-05
7.7137494e-14
-0.00026404864
3.8699664e-05
4.8596456e-13
-0.00026975865
2.4956645e-05
8.7378888e-13
-0.00027249207
1.0161501e-05
1.2831778e-12
-0.00027208666
-5.3875634e-06
1.7259363e-12
-0.00026844169
-2.1326863e-05
2.1572981e-12
-0.00026152971
-3.723089e-05
2.4587005e-12
-0.00025140735
-5.2622673e-05
2.5749013e-12
-0.00023822495
-6.698826e-05
2.5868118e-12
-0.00022223363
-7.9797252e-05
2.6592559e-12
-0.00020378864
-9.0528611e-05
2.864034e-12
-0.0001833476
-9.8701081e-05
3.0581258e-12
-0.00016146236
-0.00010390688
3.0110739e-12
-0.00013876323
-0.00010584662
2.71016e-12
-0.00011593535
-0.00010436276
2.470775e-12
-9.3687582e-05
-9.9468437e-05
2.6151631e-12
-7.2715445e-05
-9.1368409e-05
3.0495726e-12
-5.3660708e-05
-8.0469621e-05
3.2719871e-12
-3.7071047e-05
-6.7380124e-05
2.9462662e-12
-2.3363955e-05
-5.2897159e-05
2.9858456e-12
-1.2799338e-05
-3.798633e-05
5.0701119e-12
-5.4648809e-06
-2.3750731e-05
3.6414092e-12
-1.277247e-06
-1.1394115e-05
-7.5777647e-12
-2.2362415e-06
1.2807815e-11
-2.9284813e-06
1.1132056e-05
-2.5246418e-11
-1.0673674e-05
3.2619565e-05
2.2752017e-11
-2.233618e-05
5.2221746e-05
-3.6427683e-12
-3.7135981e-05
6.9341469e-05
-8.0233532e-12
-5.4394113e-05
8.3709468e-05
-3.8852545e-12
-7.3517627e-05
9.5249558e-05
-3.440245e-12
-9.3984296e-05
0.00010401186
-3.7269176e-12
-0.00011532795
0.00011011636
-3.5525314e-12
-0.00013712516
0.00011370721
-3.2626465e-12
-0.00015898352
0.00011492168
-2.9666265e-12
-0.00018053176
0.00011387287
-2.6418357e-12
-0.00020141212
0.00011064407
-2.2928483e-12
-0.000221275
0.00010529243
-1.933014e-12
-0.00023977615
9.7859377e-05
-1.5580644e-12
-0.00025657635
8.8385311e-05
-1.1455931e-12
-0.00027134344
7.6926312e-05
-6.7930574e-13
-0.00028375656
6.357091e-05
-1.7802391e-13
-0.0002935124
4.8455517e-05
3.0981786e-13
-0.00030033318
3.1777434e-05
7.452812e-13
-0.00030397632
1.3804629e-05
1.1348316e-12
-0.00030424555
-5.1183632e-06
1.5272295e-12
-0.00030100295
-2.4569465e-05
1.9890511e-12
-0.00029418249
-4.4051331e-05
2.447085e-12
-0.00028380321
-6.3001917e-05
2.7731725e-12
-0.00026998216
-8.0809297e-05
2.8779044e-12
-0.00025294546
-9.6833994e-05
2.8330125e-12
-0.00023303599
-0.00011043814
2.840387e-12
-0.00021071601
-0.00012102108
3.0193927e-12
-0.00018656266
-0.00012806018
3.2330427e-12
-0.00016125478
-0.00013115442
3.2121875e-12
-0.00013554993
-0.00013006761
2.91557e-12
-0.00011025148
-0.00012476698
2.6770095e-12
-8.6167418e-05
-0.00011545253
2.8373483e-12
-6.4063741e-05
-0.00010257326
3.1912092e-12
-4.461664e-05
-8.6827151e-05
3.1039058e-12
-2.8368509e-05
-6.9145286e-05
3.1932796e-12
-1.569316e-05
-5.0661729e-05
5.5386706e-12
-6.7752333e-06
-3.266868e-05
3.5154265e-12
-1.6070352e-06
-1.6562288e-05
-1.0632183e-11
-3.8432841e-06
1.5396547e-11
-3.2817001e-06
1.4413785e-05
-2.782431e-11
-1.191587e-05
4.125371e-05
2.6201884e-11
-2.4855513e-05
6.516139e-05
-3.4338204e-12
-4.1199921e-05
8.5685883e-05
-8.4331387e-12
-6.0176311e-05
0.00010268586
-3.8677028e-12
-8.1122246e-05
0.0001161955
-3.4217176e-12
-0.0001034663
0.00012635592
-3.7968336e-12
-0.00012670887
0.00013335894
-3.6732911e-12
-0.00015040463
0.00013740298
-3.4334063e-12
-0.00017414712
0.00013866417
-3.1863606e-12
-0.00019755592
0.00013728167
-2.8948325e-12
-0.00022026666
0.00013335482
-2.5558039e-12
-0.00024192386
0.00012694964
-2.1898741e-12
-0.00026217665
0.00011811217
-1.8163653e-12
-0.00028067714
0.0001068858
-1.4322642e-12
-0.00029708127
9.3330439e-05
-1.0087634e-12
-0.00031105193
7.7541561e-05
-5.1969991e-13
-0.00032226411
5.9667709e-05
2.1856294e-14
-0.00033041216
3.9925502e-05
5.5802226e-13
-0.00033521893
1.8611402e-05
1.0170549e-12
-0.00033644709
-3.8902164e-06
1.3793431e-12
-0.0003339117
-2.7104881e-05
1.7920502e-12
-0.00032749595
-5.0467108e-05
2.2495992e-12
-0.00031716685
-7.3330991e-05
2.7256401e-12
-0.00030299226
-9.4983849e-05
3.0780642e-12
-0.00028515677
-0.00011466945
3.1771771e-12
-0.00026397514
-0.0001316198
3.0797975e-12
-0.00023990061
-0.00014509567
3.0169826e-12
-0.00021352584
-0.00015443498
3.1496123e-12
-0.00018557377
-0.00015910644
3.3492832e-12
-0.00015687654
-0.00015876477
3.3279782e-12
-0.0001283416
-0.00015330191
3.0518243e-12
-0.00010090607
-0.00014288814
2.8755844e-12
-7.54825e-05
-0.00012799688
2.9885819e-12
-5.2901149e-05
-0.00010940847
2.9531083e-12
-3.3855095e-05
-8.8191293e-05
3.2916582e-12
-1.8854773e-05
-6.5662055e-05
6.1698483e-12
-8.1982674e-06
-4.3325213e-05
3.5161181e-12
-1.9611684e-06
-2.2799382e-05
-1.3904216e-11
-5.8044635e-06
1.8073705e-11
-3.6023047e-06
1.8016118e-05
-3.0243697e-11
-1.3044873e-05
5.0696252e-05
2.9236431e-11
-2.7149288e-05
7.9265811e-05
-3.3192075e-12
-4.4907168e-05
0.00010344377
-8.8664809e-12
-6.5461503e-05
0.0001232402
-3.920461e-12
-8.8087227e-05
0.00013882123
-3.4811758e-12
-0.00011216879
0.00015043749
-3.9282978e-12
-0.00013717741
0.00015836756
-3.8310305e-12
-0.00016264986
0.00016287544
-3.6200307e-12
-0.00018816991
0.00016418421
-3.4163349e-12
-0.00021335262
0.00016246438
-3.173124e-12
-0.000237832
0.0001578342
-2.8710895e-12
-0.00026125188
0.00015036952
-2.5141261e-12
-0.00028325979
0.0001401201
-2.1242522e-12
-0.00030350378
0.00012712979
-1.7279235e-12
-0.00032163162
0.00011145827
-1.3272827e-12
-0.00033729241
9.3202335e-05
-8.8912236e-13
-0.00035014035
7.251564e-05
-3.7473095e-13
-0.00035984075
4.9625915e-05
2.1107786e-13
-0.00036607838
2.484905e-05
7.8450228e-13
-0.00036856891
-1.3996695e-06
1.2237231e-12
-0.00036707129
-2.8602511e-05
1.6896654e-12
-0.00036140633
-5.6132104e-05
2.0792326e-12
-0.00035147456
-8.3262796e-05
2.5164718e-12
-0.0003372778
-0.0001091806
3.0005169e-12
-0.00031894086
-0.00013300634
3.3707266e-12
-0.00029673169
-0.00015382894
3.464639e-12
-0.00027107722
-0.00017075017
3.3237202e-12
-0.00024257162
-0.00018294065
3.1974885e-12
-0.00021197328
-0.00018970481
3.2707758e-12
-0.00018018758
-0.00019055043
3.4200694e-12
-0.00014823328
-0.00018525616
3.3807723e-12
-0.00011719273
-0.00017392868
3.1704752e-12
-8.8148956e-05
-0.00015704071
2.9934534e-12
-6.2115399e-05
-0.00013544206
2.7152558e-12
-3.9966489e-05
-0.00011034018
3.1889103e-12
-2.2377598e-05
-8.3250923e-05
6.8023619e-12
-9.7826838e-06
-5.5920131e-05
3.6082589e-12
-2.3546972e-06
-3.0227363e-05
-1.7434563e-11
-8.1591832e-06
2.1049751e-11
-3.887052e-06
2.1903199e-05
-3.2447673e-11
-1.4048662e-05
6.0857829e-05
3.1843219e-11
-2.9192052e-05
9.4409208e-05
-3.3003631e-12
-4.821526e-05
0.00012246699
-9.3129836e-12
-7.0187836e-05
0.00014521278
-4.0213001e-12
-9.4330052e-05
0.00016296345
-3.5981447e-12
-0.0001199882
0.00017609564
-4.1218337e-12
-0.00014660906
0.00018498843
-4.0488193e-12
-0.00017371586
0.00018998224
-3.8512683e-12
-0.00020088682
0.00019135519
-3.6694287e-12
-0.00022773705
0.00018931461
-3.4628048e-12
-0.00025390377
0.00018400092
-3.2108706e-12
-0.00027903516
0.00017550091
-2.8979123e-12
-0.00030278228
0.00016386722
-2.5192613e-12
-0.00032479392
0.00014914145
-2.0977594e-12
-0.00034471399
0.00013137835
-1.6685074e-12
-0.00036218121
0.00011066955
-1.2420339e-12
-0.00037683109
8.7165508e-05
-7.8471604e-13
-0.00038830038
6.1095187e-05
-2.4553702e-13
-0.00039623424
3.2782908e-05
3.9485397e-13
-0.00040029634
2.6624528e-06
1.0858937e-12
-0.00040018382
-2.8715002e-05
1.6037423e-12
-0.000395644
-6.0671931e-05
2.0201335e-12
-0.00038649732
-9.2409513e-05
2.3849808e-12
-0.0003726626
-0.00012301535
2.8030513e-12
-0.00035418495
-0.000151484
3.2780686e-12
-0.00033126375
-0.00017675009
3.6449803e-12
-0.00030427778
-0.00019773611
3.7214823e-12
-0.00027380295
-0.0002134155
3.540329e-12
-0.00024061829
-0.00022288953
3.357108e-12
-0.0002056952
-0.00022547356
3.3573143e-12
-0.00017016637
-0.00022078495
3.4396515e-12
-0.00013527314
-0.00020882186
3.414186e-12
-0.0001022933
-0.00019002056
3.1837973e-12
-7.2455934e-05
-0.00016527946
2.6129656e-12
-4.6853301e-05
-0.00013594284
3.0330118e-12
-2.6361362e-05
-0.00010374285
7.4047751e-12
-1.1580435e-05
-7.0701045e-05
3.6918557e-12
-2.8033114e-06
-3.9004465e-05
-2.13754e-11
-1.0962524e-05
2.4488717e-11
-4.1321167e-06
2.6035349e-05
-3.4383579e-11
-1.4914098e-05
7.1639772e-05
3.4022858e-11
-3.095713e-05
0.00011045224
-3.3673397e-12
-5.108065e-05
0.00014259052
-9.7723838e-12
-7.4292265e-05
0.0001684244
-4.165623e-12
-9.9766114e-05
0.0001884373
-3.7500234e-12
-0.00012681668
0.00020314621
-4.3498716e-12
-0.00015487129
0.00021304305
-4.3138981e-12
-0.00018344391
0.00021855488
-4.1366551e-12
-0.00021211147
0.00022002275
-3.9671827e-12
-0.00024049341
0.00021769655
-3.7731058e-12
-0.00026823489
0.00021174241
-3.550721e-12
-0.00029499348
0.0002022595
-3.2900248e-12
-0.00032042901
0.00018930275
-2.9643648e-12
-0.00034419637
0.0001729088
-2.5605516e-12
-0.0003659407
0.00015312269
-2.1006949e-12
-0.000385295
0.00013002386
-1.6289321e-12
-0.00040187996
0.00010375047
-1.1683072e-12
-0.0004153064
7.4521605e-05
-6.871111e-13
-0.00042518074
4.2657227e-05
-1.0468917e-13
-0.00043111393
8.5956454e-06
6.2586021e-13
-0.00043273617
-2.7092736e-05
1.2857758e-12
-0.0004297141
-6.3693973e-05
1.8918e-12
-0.00042177612
-0.00010034749
2.3521356e-12
-0.00040874167
-0.00013604983
2.7169712e-12
-0.00039055536
-0.00016967036
3.112112e-12
-0.00036732348
-0.00019998197
3.5566795e-12
-0.00033934976
-0.00022570979
3.8881355e-12
-0.00030716531
-0.0002455999
3.922148e-12
-0.00027154679
-0.00025850807
3.6931022e-12
-0.000233516
-0.00026350441
3.4496578e-12
-0.00019431498
-0.000259986
3.3803e-12
-0.0001553529
-0.00024778392
3.4373893e-12
-0.00011812524
-0.00022724818
3.3153444e-12
-8.4111813e-05
-0.00019929289
2.6090323e-12
-5.466548e-05
-0.0001653892
2.9605217e-12
-3.0907345e-05
-0.00012750101
8.089399e-12
-1.3644697e-05
-8.796369e-05
3.7415463e-12
-3.3229897e-06
-4.9326139e-05
-2.5922371e-11
-1.4285543e-05
2.8495857e-11
-4.3334527e-06
3.0368839e-05
-3.601864e-11
-1.5627794e-05
8.2934073e-05
3.5773176e-11
-3.241791e-05
0.00012724236
-3.4914541e-12
-5.3460304e-05
0.00016363293
-1.0233286e-11
-7.7712452e-05
0.00019267655
-4.3617638e-12
-0.00010431099
0.00021503584
-3.9378289e-12
-0.0001325449
0.00023138012
-4.5943657e-12
-0.00016182691
0.00024232507
-4.5982479e-12
-0.00019166585
0.00024839382
-4.4567724e-12
-0.00022164122
0.00024999812
-4.3136844e-12
-0.00025138094
0.00024743628
-4.1287331e-12
-0.00028054261
0.00024090409
-3.9088634e-12
-0.00030879818
0.00023051507
-3.6690165e-12
-0.00033582174
0.00021632631
-3.3957203e-12
-0.00036128014
0.00019836719
-3.0546397e-12
-0.00038482592
0.00017666847
-2.6231753e-12
-0.00040609252
0.00015129047
-2.120209e-12
-0.00042469174
0.00012234971
-1.5986507e-12
-0.0004402138
9.0043673e-05
-1.093117e-12
-0.00045223061
5.4674018e-05
-5.6851573e-13
-0.000460303
1.6668015e-05
5.4257524e-14
-0.00046399354
-2.3402203e-05
7.580782e-13
-0.00046288444
-6.4803052e-05
1.5231719e-12
-0.00045660335
-0.00010662855
2.2035447e-12
-0.00044485603
-0.00014779714
2.7035862e-12
-0.00042746609
-0.00018706034
3.0731008e-12
-0.0004044202
-0.00022302791
3.4384949e-12
-0.00037591559
-0.00025421441
3.824781e-12
-0.00034240454
-0.00027911092
4.079532e-12
-0.00030462857
-0.00029628401
4.03551e-12
-0.00026363334
-0.00030449966
3.7394573e-12
-0.00022075512
-0.00030286426
3.4486846e-12
-0.00017757163
-0.00029096743
3.3718145e-12
-0.000135815
-0.00026900479
3.2724675e-12
-9.7251914e-05
-0.00023785596
2.5239763e-12
-6.3544828e-05
-0.00019909628
2.9343264e-12
-3.611469e-05
-0.00015493117
8.958411e-12
-1.6028561e-05
-0.00010804983
3.8176579e-12
-3.9298365e-06
-6.142483e-05
-3.1218918e-11
-1.821541e-05
3.3166786e-11
-4.487223e-06
3.4856102e-05
-3.7332587e-11
-1.6177322e-05
9.4624137e-05
3.7070923e-11
-3.3549898e-05
0.00014461494
-3.6440124e-12
-5.5314553e-05
0.00018539759
-1.0665157e-11
-8.0390363e-05
0.00021775237
-4.6052514e-12
-0.00010788479
0.00024253028
-4.1728262e-12
-0.00013706724
0.00026056257
-4.8613757e-12
-0.00016734025
0.00027259809
-4.8890855e-12
-0.00019821117
0.00027926474
-4.7819132e-12
-0.00022926559
0.00028105254
-4.6800136e-12
-0.00026014365
0.00027831434
-4.5249111e-12
-0.00029051963
0.00027128009
-4.3107143e-12
-0.00032008479
0.00026008023
-4.0625127e-12
-0.00034853314
0.00024477466
-3.7979619e-12
-0.0003755499
0.00022538395
-3.5053496e-12
-0.00040080215
0.00020192071
-3.1449757e-12
-0.00042393157
0.00017441989
-2.6835041e-12
-0.00044454927
0.00014296742
-2.1342886e-12
-0.00046223317
0.0001077276
-1.5539421e-12
-0.00047652858
6.8969433e-05
-9.858991e-13
-0.00048695284
2.7092264e-05
-4.1016302e-13
-0.00049300561
-1.7349455e-05
2.3099516e-13
-0.00049418561
-6.3623065e-05
9.9265735e-13
-0.00049001579
-0.00011079836
1.8140147e-12
-0.00048007769
-0.0001577352
2.5460323e-12
-0.00046405561
-0.00020308241
3.0797789e-12
-0.00044178971
-0.00024529383
3.4479097e-12
-0.00041333573
-0.00028266844
3.7654519e-12
-0.00037902594
-0.00031342072
4.0555607e-12
-0.00033952331
-0.00033578662
4.1826638e-12
-0.00029585748
-0.00034816546
4.0170434e-12
-0.00024942977
-0.00034929198
3.6595264e-12
-0.00020197496
-0.00033842227
3.3985355e-12
-0.00015547283
-0.00031550693
3.1570646e-12
-0.00011201158
-0.0002813172
2.2796755e-12
-7.3617485e-05
-0.00023749037
2.8312972e-12
-4.2076997e-05
-0.00018647167
1.000165e-11
-1.8784002e-05
-0.00013134284
3.9647304e-12
-4.6400119e-06
-7.5568787e-05
-3.7362288e-11
-2.285546e-05
3.8622202e-11
-4.5902845e-06
3.9446423e-05
-3.8299724e-11
-1.6552688e-05
0.00010658651
3.7879833e-11
-3.4333347e-05
0.0001623956
-3.8177011e-12
-5.6610885e-05
0.00020767514
-1.1037782e-11
-8.2277182e-05
0.00024341867
-4.8719915e-12
-0.00011041818
0.00027067129
-4.4510323e-12
-0.00014028891
0.00029043331
-5.1633879e-12
-0.0001712855
0.00030359469
-5.1983436e-12
-0.00020291687
0.00031089612
-5.1051861e-12
-0.00023477767
0.00031291334
-5.0341985e-12
-0.00026652356
0.00031006024
-4.9207431e-12
-0.00029784943
0.00030260596
-4.7381206e-12
-0.00032847058
0.00029070139
-4.4920352e-12
-0.00035810669
0.00027441078
-4.2068734e-12
-0.00038646822
0.00025374548
-3.9069083e-12
-0.00041324482
0.00022869732
-3.5856738e-12
-0.00043809565
0.0001992707
-3.1992324e-12
-0.0004606415
0.00016551326
-2.703598e-12
-0.00048045929
0.0001275454
-2.1035617e-12
-0.00049707942
8.5589586e-05
-1.4553578e-12
-0.00050998715
4.0000007e-05
-8.1567236e-13
-0.00051862934
-8.7072684e-06
-1.8173096e-13
-0.00052242831
-5.9824123e-05
5.0886887e-13
-0.0005208046
-0.00011242208
1.3132118e-12
-0.00051321087
-0.00016532893
2.1736818e-12
-0.00049917818
-0.00021711507
2.9375816e-12
-0.00047837545
-0.00026609655
3.4838559e-12
-0.00045068056
-0.00031036335
3.8272556e-12
-0.00041625889
-0.00034784243
4.0618747e-12
-0.00037564085
-0.00037640468
4.2013008e-12
-0.0003297853
-0.00039402099
4.1398677e-12
-0.00028011187
-0.00039896539
3.8458384e-12
-0.0002284837
-0.00039005045
3.512529e-12
-0.00017712615
-0.00036686451
3.086445e-12
-0.00012847765
-0.00032996572
1.9405942e-12
-8.4985579e-05
-0.00028098244
2.602314e-12
-4.8878634e-05
-0.00022257862
1.1164504e-11
-2.1960821e-05
-0.00015826065
4.1628365e-12
-5.4696779e-06
-9.2059889e-05
-4.4463405e-11
-2.8325184e-05
4.499946e-11
-4.6407212e-06
4.4087181e-05
-3.8888195e-11
-1.6747989e-05
0.00011869374
3.8180247e-11
-3.4756311e-05
0.00018040393
-4.0231252e-12
-5.7328461e-05
0.0002302473
-1.1343775e-11
-8.3339263e-05
0.00026942947
-5.1395776e-12
-0.00011185972
0.00029919174
-4.7507694e-12
-0.00014213475
0.00032070834
-5.4954188e-12
-0.00017355702
0.00033501697
-5.539958e-12
-0.00020563943
0.00034297854
-5.4457599e-12
-0.00023798808
0.000345262
-5.3774853e-12
-0.00027027699
0.00034234915
-5.2841483e-12
-0.00030222518
0.00033455415
-5.1383167e-12
-0.00033357651
0.00032205272
-4.9227784e-12
-0.00036408204
0.00030491632
-4.6350875e-12
-0.00039348457
0.00028314802
-4.3007261e-12
-0.00042150498
0.00025671774
-3.9522887e-12
-0.00044783029
0.00022559602
-3.589178e-12
-0.0004721032
0.00018978616
-3.1650821e-12
-0.00049391352
0.0001493557
-2.6271479e-12
-0.00051279206
0.00010446813
-1.9698493e-12
-0.00052820805
5.5416019e-05
-1.2478896e-12
-0.00053957136
2.6560606e-06
-5.2532205e-13
-0.0005462418
-5.3153687e-05
1.6912881e-13
-0.00054754739
-0.00011111652
9.1365479e-13
-0.00054281498
-0.00017006136
1.7545066e-12
-0.00053141578
-0.00022851427
2.6322123e-12
-0.00051282801
-0.0002846843
3.393271e-12
-0.00048671733
-0.00033647401
3.9117644e-12
-0.00045303243
-0.00038152735
4.1840646e-12
-0.00041210822
-0.00041732892
4.2730309e-12
-0.00036476273
-0.00044136649
4.1865571e-12
-0.00031236679
-0.00045136132
3.9190574e-12
-0.00025686078
-0.00044555645
3.5903296e-12
-0.00020069379
-0.0004230315
3.0382471e-12
-0.00014667113
-0.00038398839
1.5619798e-12
-9.7717404e-05
-0.00032993617
2.2789701e-12
-5.6590331e-05
-0.0002637057
1.2441297e-11
-2.5605325e-05
-0.00018924566
4.3751403e-12
-6.4348936e-06