/*--------------------------------*- C++ -*----------------------------------*\
  =========                 |
  \\      /  F ield         | OpenFOAM: The Open Source CFD Toolbox
   \\    /   O peration     | Website:  https://openfoam.org
    \\  /    A nd           | Version:  7
     \\/     M anipulation  |
\*---------------------------------------------------------------------------*/
FoamFile
{
    version     2.0;
    format      ascii;
    class       volVectorField;
    location    "35";
    object      U;
}
// * * * * * * * * * * * * * * * * * * * * * * * * * * * * * * * * * * * * * //

dimensions      [0 1 -1 0 0 0 0];

internalField   nonuniform List<vector> 
16000
(
(6.6029155e-05 -6.7347976e-05 -4.1696326e-07)
(0.00016273234 -5.6363337e-05 5.6838487e-06)
(0.00014191457 4.6019342e-07 1.9183687e-05)
(-5.0620822e-05 6.1889786e-05 3.6606166e-05)
(-0.00040997243 0.00011563068 5.4714712e-05)
(-0.00090902574 0.00015774372 7.154313e-05)
(-0.0015177114 0.0001885048 8.5755314e-05)
(-0.0022068862 0.0002096091 9.6536018e-05)
(-0.0029506015 0.00022287669 0.00010342488)
(-0.0037264649 0.00022981099 0.00010617507)
(-0.0045150504 0.00023147707 0.00010465943)
(-0.005299013 0.000228504 9.8814885e-05)
(-0.0060621928 0.00022114742 8.8616694e-05)
(-0.0067888638 0.00020938294 7.4075359e-05)
(-0.0074632159 0.0001930135 5.5249668e-05)
(-0.0080691171 0.00017178043 3.2269913e-05)
(-0.0085901698 0.00014547166 5.3660492e-06)
(-0.0090100499 0.00011402206 -2.5104042e-05)
(-0.0093131024 7.760157e-05 -5.863055e-05)
(-0.0094851484 3.6687425e-05 -9.4535892e-05)
(-0.0095144482 -7.8865441e-06 -0.00013197042)
(-0.0093927295 -5.4924177e-05 -0.00016992278)
(-0.0091162234 -0.00010284333 -0.00020724634)
(-0.0086866014 -0.00014974899 -0.00024270324)
(-0.0081116911 -0.00019351175 -0.00027502398)
(-0.0074058954 -0.0002318863 -0.00030298013)
(-0.006590221 -0.00026266128 -0.00032546542)
(-0.0056918544 -0.00028382745 -0.00034157937)
(-0.0047432599 -0.00029374799 -0.00035070689)
(-0.0037808167 -0.00029131112 -0.00035258625)
(-0.0028430634 -0.0002760462 -0.00034735811)
(-0.0019686543 -0.00024818908 -0.00033559049)
(-0.0011941471 -0.00020869854 -0.00031827901)
(-0.00055166719 -0.00015926207 -0.00029682692)
(-6.6504187e-05 -0.00010240629 -0.00027300182)
(0.00024492385 -4.1753393e-05 -0.00024886174)
(0.0003789397 1.7848922e-05 -0.00022679117)
(0.00034978008 6.7069013e-05 -0.00020922863)
(0.0002061869 8.9849116e-05 -0.00019884418)
(5.7468014e-05 5.7407464e-05 -0.00018440105)
(5.7995198e-05 -0.00016705065 -6.6472259e-06)
(4.0870368e-05 -3.9969817e-05 -3.9346252e-07)
(-0.00029498249 0.00024856089 1.1240051e-05)
(-0.0010110302 0.00056212228 2.5606061e-05)
(-0.0020992337 0.00084749636 4.0590986e-05)
(-0.0035140932 0.0010831211 5.4599084e-05)
(-0.0051946912 0.001264302 6.6503151e-05)
(-0.0070766345 0.0013940685 7.5550849e-05)
(-0.0090981548 0.0014779612 8.1260248e-05)
(-0.01120231 0.0015215274 8.333166e-05)
(-0.013337038 0.0015292113 8.1581869e-05)
(-0.015454181 0.001503976 7.5901005e-05)
(-0.017508153 0.0014473577 6.6230706e-05)
(-0.019454719 0.0013597783 5.2560119e-05)
(-0.021250159 0.0012410022 3.4935291e-05)
(-0.022850977 0.0010906589 1.3477383e-05)
(-0.024214228 0.00090877542 -1.1594565e-05)
(-0.025298434 0.00069627618 -3.9940486e-05)
(-0.026065057 0.00045541484 -7.1079655e-05)
(-0.026480397 0.00019010715 -0.00010437797)
(-0.026517813 -9.3865043e-05 -0.00013904487)
(-0.026159985 -0.00038877538 -0.000174149)
(-0.025401167 -0.00068509031 -0.00020863437)
(-0.024249167 -0.00097175862 -0.0002413681)
(-0.022726748 -0.0012366937 -0.00027119416)
(-0.020872348 -0.0014674285 -0.00029700116)
(-0.018739912 -0.0016519064 -0.00031779771)
(-0.016397717 -0.0017793512 -0.00033278885)
(-0.013926126 -0.0018411458 -0.00034144729)
(-0.011414317 -0.0018316348 -0.00034357311)
(-0.0089560977 -0.0017487765 -0.00033933633)
(-0.0066450043 -0.0015945878 -0.00032929645)
(-0.004568897 -0.0013753907 -0.00031439547)
(-0.0028042251 -0.0011019668 -0.00029592531)
(-0.0014100218 -0.00078992151 -0.0002754751)
(-0.0004216354 -0.00046058678 -0.00025485612)
(0.00015576972 -0.00014255627 -0.00023598266)
(0.00035673038 0.00012231684 -0.00022087594)
(0.00027526853 0.00027112679 -0.00021164074)
(9.0126441e-05 0.00020509528 -0.00019545861)
(1.9153259e-06 -0.00014896739 -2.0433369e-05)
(-0.00025605469 0.00029701498 -1.1814989e-05)
(-0.0010504582 0.0010236206 8.3332999e-08)
(-0.0023878333 0.0017975367 1.3063473e-05)
(-0.0042394498 0.0025099018 2.6099722e-05)
(-0.0065455681 0.0031100561 3.8051148e-05)
(-0.0092251294 0.003580925 4.8090852e-05)
(-0.012190004 0.003923433 5.5658292e-05)
(-0.015352993 0.0041461854 6.0371778e-05)
(-0.018631059 0.0042595911 6.197449e-05)
(-0.021946082 0.0042728152 6.029346e-05)
(-0.025224258 0.0041924756 5.5210984e-05)
(-0.028394924 0.0040224699 4.665084e-05)
(-0.031389392 0.0037645242 3.4577924e-05)
(-0.034140221 0.0034191706 1.9008313e-05)
(-0.036581143 0.0029869398 2.644744e-08)
(-0.038647751 0.0024696058 -2.2193934e-05)
(-0.040278944 0.001871359 -4.7368398e-05)
(-0.041419055 0.0011998084 -7.5083285e-05)
(-0.042020503 0.00046673019 -0.00010478351)
(-0.042046768 -0.00031149974 -0.00013577118)
(-0.041475472 -0.0011138117 -0.00016721138)
(-0.040301318 -0.0019148767 -0.00019815732)
(-0.038538557 -0.0026858627 -0.00022758592)
(-0.036222755 -0.0033956785 -0.00025444854)
(-0.033411584 -0.004012608 -0.00027773396)
(-0.03018443 -0.0045062494 -0.00029653938)
(-0.026640646 -0.004849638 -0.00031014283)
(-0.022896383 -0.0050213894 -0.00031806964)
(-0.019080022 -0.0050076882 -0.0003201461)
(-0.015326331 -0.0048039533 -0.00031653536)
(-0.011769573 -0.0044160677 -0.00030775163)
(-0.0085358376 -0.0038611607 -0.00029464935)
(-0.0057348832 -0.0031681028 -0.00027838506)
(-0.0034517062 -0.0023781151 -0.00026035504)
(-0.0017379818 -0.0015461886 -0.00024211302)
(-0.00060368518 -0.00074418694 -0.00022526438)
(-8.0367241e-06 -6.6358543e-05 -0.00021140024)
(0.00015540908 0.00036039714 -0.00020221475)
(7.3554838e-05 0.00035437856 -0.00018530178)
(-6.468576e-05 5.04222e-05 -3.8685296e-05)
(-0.0006083852 0.0010457563 -2.6146931e-05)
(-0.0019305451 0.0023817325 -1.2165663e-05)
(-0.0039464461 0.0037565151 1.1271863e-06)
(-0.0065890243 0.0050153107 1.3715535e-05)
(-0.0097792105 0.0060800604 2.483986e-05)
(-0.013417139 0.0069205191 3.3962892e-05)
(-0.017395542 0.007534111 4.074946e-05)
(-0.021607752 0.0079313943 4.4963727e-05)
(-0.025950712 0.0081270384 4.6433799e-05)
(-0.030325868 0.0081347666 4.502877e-05)
(-0.034638818 0.0079650001 4.0642276e-05)
(-0.038798385 0.0076243735 3.3187302e-05)
(-0.042715705 0.0071165068 2.2601642e-05)
(-0.046303773 0.0064435526 8.8616866e-06)
(-0.049477691 0.0056081434 -7.9980427e-06)
(-0.052155747 0.0046154483 -2.7862299e-05)
(-0.054261309 0.003475111 -5.0512184e-05)
(-0.055725437 0.0022028888 -7.5604741e-05)
(-0.056490039 0.00082185171 -0.00010265857)
(-0.056511338 -0.00063696907 -0.00013104878)
(-0.055763441 -0.002134596 -0.00016001023)
(-0.054241664 -0.0036248147 -0.0001886611)
(-0.051965314 -0.0050556209 -0.00021603482)
(-0.048979661 -0.0063713937 -0.0002411287)
(-0.045356807 -0.007515719 -0.00026296483)
(-0.04119519 -0.0084347279 -0.00028066013)
(-0.036617534 -0.0090807501 -0.00029349968)
(-0.031767143 -0.0094160274 -0.00030100503)
(-0.026802518 -0.0094162023 -0.00030298868)
(-0.021890417 -0.0090733058 -0.00029958745)
(-0.01719757 -0.0083980414 -0.00029127168)
(-0.012881385 -0.0074212957 -0.00027882921)
(-0.0090800546 -0.0061950225 -0.00026332383)
(-0.0059024828 -0.0047929328 -0.00024602774)
(-0.0034184982 -0.0033118195 -0.00022833369)
(-0.0016495322 -0.0018745336 -0.00021166604)
(-0.00055980133 -0.00063470691 -0.00019741215)
(-5.0115074e-05 0.00021500411 -0.00018680695)
(3.8094738e-05 0.00041383236 -0.0001679985)
(-0.00013086629 0.00044556089 -5.8201602e-05)
(-0.00097095317 0.0022426835 -4.113694e-05)
(-0.0028462176 0.0043591773 -2.4254576e-05)
(-0.0055648198 0.006457206 -9.8222931e-06)
(-0.0090094484 0.0083534685 3.0963329e-06)
(-0.013075467 0.0099514457 1.4076481e-05)
(-0.017642283 0.011211743 2.2855051e-05)
(-0.022584683 0.012129579 2.9327208e-05)
(-0.027779634 0.012717521 3.3415889e-05)
(-0.033108113 0.012994144 3.5048348e-05)
(-0.038455493 0.012977363 3.4147251e-05)
(-0.043711125 0.012681213 3.0624099e-05)
(-0.048767515 0.012115128 2.4381969e-05)
(-0.053519626 0.011284986 1.5327352e-05)
(-0.057864693 0.010195259 3.3889602e-06)
(-0.061702787 0.0088517408 -1.1458604e-05)
(-0.064938221 0.0072644397 -2.9168629e-05)
(-0.067481786 0.0054502918 -4.9595961e-05)
(-0.069253694 0.0034354354 -7.2473047e-05)
(-0.070187066 0.0012568434 -9.7391373e-05)
(-0.070231717 -0.0010368514 -0.00012379156)
(-0.069358009 -0.0033854753 -0.00015096492)
(-0.067560456 -0.0057183953 -0.00017807039)
(-0.064860792 -0.0079566857 -0.00020416653)
(-0.061310195 -0.010016303 -0.00022825926)
(-0.05699036 -0.011812191 -0.00024936298)
(-0.052013148 -0.013263141 -0.0002665715)
(-0.046518557 -0.014297145 -0.00027913372)
(-0.040670848 -0.014856889 -0.00028652638)
(-0.034652765 -0.014904996 -0.00028851395)
(-0.028657896 -0.014428609 -0.00028518558)
(-0.022881404 -0.013442969 -0.00027696263)
(-0.01750948 -0.011993825 -0.00026457679)
(-0.012708058 -0.010158715 -0.00024902204)
(-0.0086114681 -0.0080474983 -0.00023148227)
(-0.0053117549 -0.0058029598 -0.0002132423)
(-0.0028485192 -0.0036024766 -0.00019561935)
(-0.0012000343 -0.0016605448 -0.00017987536)
(-0.00028881027 -0.00023377889 -0.00016672924)
(-2.4719964e-06 0.00035046388 -0.00014549477)
(-0.00019286545 0.0010313029 -7.6681921e-05)
(-0.0013239886 0.003892526 -5.4778551e-05)
(-0.0037518612 0.00696799 -3.4573739e-05)
(-0.0071733054 0.0099108095 -1.8480306e-05)
(-0.011414814 0.012527389 -4.68461e-06)
(-0.016341489 0.014714496 6.6782439e-06)
(-0.021809625 0.016430495 1.5595234e-05)
(-0.027675882 0.017672013 2.2180849e-05)
(-0.033802399 0.018455243 2.6513542e-05)
(-0.040056848 0.018803209 2.8620136e-05)
(-0.046311836 0.018738075 2.8477953e-05)
(-0.052444057 0.018277404 2.6016041e-05)
(-0.058333351 0.017433433 2.1124791e-05)
(-0.063862056 0.016214493 1.3673966e-05)
(-0.068914986 0.014627822 3.5369895e-06)
(-0.073380195 0.012683107 -9.3802818e-06)
(-0.077150606 0.010396209 -2.5108335e-05)
(-0.080126445 0.0077926369 -4.3582705e-05)
(-0.082218385 0.0049104452 -6.4615128e-05)
(-0.083351211 0.0018022816 -8.7869914e-05)
(-0.083467814 -0.0014636088 -0.00011284871)
(-0.082533254 -0.0048035793 -0.00013888755)
(-0.080538645 -0.0081200471 -0.00016516848)
(-0.077504579 -0.011304334 -0.00019074978)
(-0.073483756 -0.01424083 -0.00021461354)
(-0.068562527 -0.016812389 -0.00023572916)
(-0.062860998 -0.018906781 -0.00025312792)
(-0.056531395 -0.020423859 -0.00026598296)
(-0.049754412 -0.021283049 -0.00027368734)
(-0.042733398 -0.021430608 -0.00027592124)
(-0.035686354 -0.020846119 -0.00027269708)
(-0.02883591 -0.019547673 -0.00026437259)
(-0.022397702 -0.017595392 -0.00025162769)
(-0.016567758 -0.015093168 -0.00023540898)
(-0.011509867 -0.012188857 -0.00021684819)
(-0.0073439001 -0.0090736699 -0.00019717112)
(-0.0041345359 -0.0059816729 -0.00017765671)
(-0.0018815975 -0.0031890391 -0.00015954179)
(-0.00053619236 -0.0010143231 -0.00014314933)
(-4.1245869e-05 0.00015894818 -0.00011905675)
(-0.00025011693 0.0017985678 -9.2168741e-05)
(-0.0016597742 0.0059841346 -6.5279148e-05)
(-0.0046244593 0.010198608 -4.1592642e-05)
(-0.0087321736 0.014107011 -2.3537775e-05)
(-0.013751609 0.017522327 -8.4994434e-06)
(-0.019515084 0.020347109 3.6395019e-06)
(-0.025854148 0.022545916 1.3090917e-05)
(-0.032607011 0.024121996 2.0170796e-05)
(-0.039621881 0.025098102 2.510128e-05)
(-0.046755009 0.025503172 2.8000648e-05)
(-0.053868795 0.025364224 2.8894589e-05)
(-0.060830242 0.024702533 2.7723906e-05)
(-0.067509634 0.023533171 2.4360084e-05)
(-0.073779759 0.021866976 1.8629064e-05)
(-0.07951587 0.019714121 1.0340944e-05)
(-0.084596493 0.017088489 -6.7590533e-07)
(-0.088905119 0.014012232 -1.453797e-05)
(-0.092332694 0.010520008 -3.1269273e-05)
(-0.094780813 0.0066624814 -5.0766359e-05)
(-0.096165459 0.0025088068 -7.276856e-05)
(-0.096421112 -0.0018521447 -9.6836818e-05)
(-0.095505021 -0.0063119936 -0.00012234544)
(-0.093401425 -0.01074459 -0.0001484879)
(-0.090125472 -0.015009422 -0.00017430389)
(-0.085726497 -0.018956667 -0.00019872556)
(-0.080290335 -0.022433821 -0.00022064357)
(-0.073940276 -0.025293746 -0.0002389877)
(-0.066836235 -0.027403769 -0.00025281452)
(-0.059171749 -0.028655375 -0.00026139352)
(-0.051168502 -0.02897382 -0.00026428258)
(-0.043068244 -0.028326923 -0.00026138303)
(-0.035122193 -0.02673228 -0.00025296342)
(-0.027578336 -0.024262243 -0.00023964353)
(-0.020667343 -0.021046306 -0.00022233736)
(-0.014588348 -0.0172709 -0.00020216036)
(-0.0094958194 -0.013177224 -0.00018033023)
(-0.0054864897 -0.0090579288 -0.00015815228)
(-0.0025879523 -0.0052522183 -0.00013692034)
(-0.00078446846 -0.0021405361 -0.00011663806)
(-7.6873164e-05 -0.00016053825 -8.9433156e-05)
(-0.00030295633 0.0027365271 -0.00010299236)
(-0.0019754999 0.008498099 -7.1022139e-05)
(-0.0054521438 0.014028573 -4.3874189e-05)
(-0.010217976 0.019021386 -2.3729378e-05)
(-0.015985185 0.023311092 -7.2340429e-06)
(-0.022552803 0.026818194 5.9548976e-06)
(-0.029727188 0.029522429 1.6252138e-05)
(-0.03732821 0.031439777 2.4155589e-05)
(-0.045190986 0.032603403 3.0015271e-05)
(-0.053161891 0.033050374 3.4028048e-05)
(-0.061095245 0.032813694 3.6257052e-05)
(-0.068850855 0.031918825 3.6645154e-05)
(-0.076292135 0.030383785 3.5035863e-05)
(-0.083284983 0.028221861 3.1202364e-05)
(-0.089697543 0.02544602 2.4882346e-05)
(-0.095400882 0.022074171 1.5817281e-05)
(-0.10027056 0.018134569 3.7948843e-06)
(-0.10418903 0.013670802 -1.1307235e-05)
(-0.10704871 0.0087459287 -2.9479512e-05)
(-0.10875572 0.003445447 -5.0543312e-05)
(-0.10923404 -0.0021211631 -7.4122585e-05)
(-0.10842998 -0.0078205184 -9.9629707e-05)
(-0.10631683 -0.013497148 -0.0001262644)
(-0.10289944 -0.018977285 -0.00015303698)
(-0.098218417 -0.024074604 -0.00017881129)
(-0.092353551 -0.02859796 -0.00020237144)
(-0.085426029 -0.032360979 -0.00022250833)
(-0.077598894 -0.03519319 -0.00023811769)
(-0.06907516 -0.036952158 -0.00024829903)
(-0.060093115 -0.03753585 -0.00025244387)
(-0.050918471 -0.036894258 -0.00025030274)
(-0.041833358 -0.035039214 -0.00024202166)
(-0.033122484 -0.032051379 -0.00022813918)
(-0.025057298 -0.028083646 -0.00020953693)
(-0.017879648 -0.02336068 -0.0001873414)
(-0.011786479 -0.018174998 -0.00016281272)
(-0.0069140685 -0.012880397 -0.00013734823)
(-0.003323838 -0.0078822627 -0.0001123755)
(-0.0010368623 -0.0036261499 -8.7667778e-05)
(-0.00011093455 -0.00060701984 -5.7228303e-05)
(-0.00035169325 0.0038338198 -0.00010768923)
(-0.0022696864 0.011410357 -7.053334e-05)
(-0.0062274804 0.018427295 -4.0055387e-05)
(-0.01161475 0.024619951 -1.780479e-05)
(-0.018090319 0.029857554 2.5932324e-07)
(-0.025421022 0.034089871 1.4688705e-05)
(-0.033388716 0.037320706 2.6082889e-05)
(-0.04179567 0.039585241 3.5102798e-05)
(-0.050464966 0.040931435 4.2209499e-05)
(-0.059234586 0.041407231 4.766375e-05)
(-0.067952668 0.041053177 5.1553183e-05)
(-0.076474031 0.03989966 5.3811146e-05)
(-0.084657587 0.037967834 5.4242445e-05)
(-0.092364702 0.035273266 5.2557109e-05)
(-0.099458579 0.031831285 4.8409944e-05)
(-0.10580461 0.02766318 4.1444675e-05)
(-0.11127167 0.022802462 3.1341661e-05)
(-0.11573422 0.017300628 1.7867605e-05)
(-0.11907515 0.011231985 9.2482242e-07)
(-0.1211894 0.004697194 -1.940326e-05)
(-0.12198808 -0.0021747097 -4.2814852e-05)
(-0.12140312 -0.0092260659 -6.8768361e-05)
(-0.11939246 -0.016272191 -9.6471958e-05)
(-0.11594547 -0.023105285 -0.0001249027)
(-0.11108821 -0.029500578 -0.00015284432)
(-0.1048884 -0.035224937 -0.00017895273)
(-0.097459304 -0.040047907 -0.00020184585)
(-0.088962023 -0.043754914 -0.00022021202)
(-0.079605248 -0.046162109 -0.00023292549)
(-0.069641881 -0.047131954 -0.00023915445)
(-0.059361859 -0.046588357 -0.00023844692)
(-0.049080949 -0.044529871 -0.00023078375)
(-0.039125752 -0.041039493 -0.00021659134)
(-0.029815741 -0.036289755 -0.00019670589)
(-0.021444139 -0.030542379 -0.00017227827)
(-0.014259507 -0.024142638 -0.00014465406)
(-0.0084461213 -0.017509198 -0.0001153891)
(-0.0041057554 -0.011119103 -8.6122829e-05)
(-0.0013000795 -0.0054896936 -5.6462751e-05)
(-0.00014466059 -0.0011817411 -2.2510433e-05)
(-0.00039639258 0.0050786738 -0.00010494021)
(-0.0025408055 0.014693485 -6.2460196e-05)
(-0.0069442146 0.023357975 -2.8854054e-05)
(-0.012909249 0.030860806 -4.5524646e-06)
(-0.020045659 0.037117345 1.512741e-05)
(-0.028090312 0.042116901 3.0934756e-05)
(-0.036802155 0.045895781 4.3639641e-05)
(-0.045967204 0.048514812 5.4048925e-05)
(-0.055397842 0.050041356 6.2718561e-05)
(-0.064925209 0.0505373 6.9958595e-05)
(-0.074393068 0.05005259 7.5868018e-05)
(-0.083653288 0.048623481 8.0358789e-05)
(-0.092562447 0.04627453 8.3185925e-05)
(-0.10097955 0.043023313 8.3985285e-05)
(-0.10876486 0.038886821 8.2317166e-05)
(-0.11577977 0.033888621 7.7714835e-05)
(-0.12188763 0.028066011 6.9737149e-05)
(-0.12695538 0.021476599 5.8023978e-05)
(-0.13085611 0.014203878 4.2352411e-05)
(-0.13347225 0.0063614886 2.2691103e-05)
(-0.13469975 -0.0019040849 -7.521101e-07)
(-0.13445282 -0.010412652 -2.7501256e-05)
(-0.13266959 -0.018951374 -5.6784012e-05)
(-0.12931854 -0.027278399 -8.7549167e-05)
(-0.12440508 -0.035129029 -0.00011849527)
(-0.11797825 -0.042224884 -0.00014813318)
(-0.11013684 -0.048286159 -0.0001748773)
(-0.10103394 -0.053046892 -0.00019716193)
(-0.090879074 -0.05627274 -0.00021357402)
(-0.07993676 -0.057780326 -0.00022298665)
(-0.068520627 -0.057456687 -0.00022467411)
(-0.056982427 -0.055276918 -0.00021839152)
(-0.045695954 -0.051317899 -0.00020440899)
(-0.035036657 -0.045766093 -0.00018349265)
(-0.025358973 -0.03891805 -0.00015681781)
(-0.016973701 -0.031173317 -0.00012584647)
(-0.010123127 -0.023020491 -9.2355449e-05)
(-0.0049573027 -0.015016288 -5.827717e-05)
(-0.0015839111 -0.0077601706 -2.3104925e-05)
(-0.00018000469 -0.0018919992 1.4760412e-05)
(-0.00043687345 0.0064585684 -9.3542851e-05)
(-0.0027868526 0.018316901 -4.5563986e-05)
(-0.0075959005 0.028778321 -9.0795887e-06)
(-0.014088641 0.037694907 1.7174267e-05)
(-0.021830807 0.04503821 3.847809e-05)
(-0.030532268 0.050846273 5.577051e-05)
(-0.039931316 0.055195692 6.9980604e-05)
(-0.049799506 0.058179118 8.2046305e-05)
(-0.059940129 0.059887922 9.2604007e-05)
(-0.070179111 0.060401148 0.00010199975)
(-0.080357613 0.059780194 0.00011033181)
(-0.090326498 0.058068279 0.00011747974)
(-0.09994207 0.055293687 0.00012313836)
(-0.10906304 0.05147567 0.0001268587)
(-0.11754871 0.046631952 0.00012809454)
(-0.12525816 0.040786889 0.00012625448)
(-0.1320505 0.033979544 0.00012075883)
(-0.13778589 0.026271125 0.00011110053)
(-0.14232753 0.017751397 9.6908178e-05)
(-0.1455445 0.0085438149 7.8009295e-05)
(-0.14731571 -0.0011908565 5.448948e-05)
(-0.1475346 -0.011252632 2.6726488e-05)
(-0.14611542 -0.02140275 -4.5487831e-06)
(-0.1430005 -0.031366227 -3.8274929e-05)
(-0.13816825 -0.040837681 -7.307031e-05)
(-0.13164196 -0.04949059 -0.00010729015)
(-0.12349839 -0.056990426 -0.00013911744)
(-0.1138753 -0.063011803 -0.00016668572)
(-0.10297654 -0.067259339 -0.00018822787)
(-0.091073515 -0.069491275 -0.00020223759)
(-0.078501384 -0.069544179 -0.00020762254)
(-0.065648979 -0.067356333 -0.00020382486)
(-0.052942006 -0.062986913 -0.00019089035)
(-0.040820055 -0.056628013 -0.00016947349)
(-0.029709663 -0.048607159 -0.00014076129)
(-0.019996218 -0.039379402 -0.00010635136)
(-0.01199217 -0.029509501 -6.8297144e-05)
(-0.0059060239 -0.01964435 -2.8906281e-05)
(-0.0018995939 -0.010479296 1.2402186e-05)
(-0.00021911057 -0.0027504903 5.4740677e-05)
(-0.00047276091 0.007959852 -7.240631e-05)
(-0.0030053073 0.022246662 -1.8723e-05)
(-0.0081754822 0.034640705 2.0354062e-05)
(-0.015139638 0.045066382 4.8434664e-05)
(-0.023425072 0.053560156 7.134972e-05)
(-0.032718087 0.060216894 9.0220365e-05)
(-0.042738976 0.065160505 0.00010612479)
(-0.053246919 0.068521217 0.00012011917)
(-0.064037875 0.070418868 0.0001329082)
(-0.074934232 0.070952907 0.00014486288)
(-0.085776302 0.070198347 0.00015607078)
(-0.096415816 0.068206602 0.00016636982)
(-0.1067108 0.065010077 0.00017538568)
(-0.11652172 0.060629342 0.00018257496)
(-0.12570893 0.055081775 0.00018727355)
(-0.13413108 0.048390746 0.00018875058)
(-0.1416446 0.040594623 0.0001862686)
(-0.14810401 0.031755105 0.00017914935)
(-0.15336318 0.021964577 0.00016684363)
(-0.15727765 0.011352261 0.00014900234)
(-0.15970801 8.9015276e-05 0.00012554559)
(-0.1605249 -0.011609438 9.6733772e-05)
(-0.15961527 -0.02348169 6.3195881e-05)
(-0.1568904 -0.035221781 2.5975018e-05)
(-0.15229555 -0.046484015 -1.3485986e-05)
(-0.14582081 -0.056891682 -5.3387723e-05)
(-0.13751248 -0.066050526 -9.1659685e-05)
(-0.12748402 -0.073567418 -0.00012608778)
(-0.11592512 -0.07907425 -0.0001544789)
(-0.10310686 -0.082256232 -0.00017485173)
(-0.089381223 -0.08288283 -0.00018563385)
(-0.075173042 -0.080838439 -0.00018583689)
(-0.060963171 -0.076149002 -0.0001751798)
(-0.047263085 -0.069000357 -0.00015413441)
(-0.034583088 -0.059744607 -0.00012386722)
(-0.023397396 -0.0488925 -8.6118639e-05)
(-0.014103445 -0.037091892 -4.3268469e-05)
(-0.0069814327 -0.025092619 1.9170305e-06)
(-0.0022590058 -0.013702947 5.0064315e-05)
(-0.00026414583 -0.0037760391 9.7620967e-05)
(-0.00050355108 0.0095674404 -4.0560805e-05)
(-0.0031932762 0.026445185 1.905521e-05)
(-0.0086754052 0.040892094 6.0411149e-05)
(-0.016048494 0.052912579 9.0176835e-05)
(-0.024807363 0.062615409 0.00011468078)
(-0.034618416 0.070159212 0.00013521935)
(-0.04518679 0.075721394 0.00015301064)
(-0.056261497 0.079474994 0.00016921788)
(-0.067632965 0.081572536 0.00018460441)
(-0.079121705 0.082137082 0.00019955806)
(-0.090568862 0.081259505 0.00021414865)
(-0.10182884 0.079000761 0.00022816604)
(-0.11276334 0.075397881 0.00024116011)
(-0.12323668 0.07047244 0.00025248533)
(-0.13311238 0.064240351 0.00026134944)
(-0.14225077 0.056722065 0.00026686794)
(-0.15050759 0.047952506 0.00026812562)
(-0.15773346 0.037990333 0.00026424586)
(-0.16377427 0.026926304 0.00025446678)
(-0.16847277 0.014890606 0.0002382215)
(-0.17167131 0.0020590351 0.00021521987)
(-0.1732166 -0.011342251 0.0001855376)
(-0.17296592 -0.02503376 0.00014966221)
(-0.1707957 -0.03868224 0.00010856448)
(-0.16661242 -0.051903611 6.3707739e-05)
(-0.16036549 -0.064270368 1.7026134e-05)
(-0.15206156 -0.075324594 -2.9147953e-05)
(-0.14177938 -0.084597507 -7.2211157e-05)
(-0.12968347 -0.09163603 -0.00010946849)
(-0.11603434 -0.096035935 -0.0001383556)
(-0.10119274 -0.097479885 -0.00015668551)
(-0.085615077 -0.095777093 -0.00016289016)
(-0.069838044 -0.090899823 -0.00015621808)
(-0.054451417 -0.083010918 -0.00013684497)
(-0.04006118 -0.072476737 -0.00010585123)
(-0.027246484 -0.059861706 -6.5108348e-05)
(-0.016507704 -0.045903611 -1.7366763e-05)
(-0.0082137709 -0.031469863 3.4061219e-05)
(-0.0026743201 -0.017501841 8.9827122e-05)
(-0.00031729571 -0.0049938548 0.00014354463)
(-0.00052868065 0.011264645 2.8238595e-06)
(-0.0033477387 0.030871098 6.8615246e-05)
(-0.0090880524 0.047474044 0.0001119133)
(-0.016801585 0.061164135 0.00014321244)
(-0.025956886 0.072128385 0.00016927886)
(-0.036204178 0.080594896 0.00019157587)
(-0.047236289 0.086799847 0.00021145254)
(-0.058794238 0.090963752 0.00023016933)
(-0.070664648 0.093275752 0.00024854105)
(-0.082667712 0.093885655 0.0002669675)
(-0.094646986 0.092902512 0.00028549732)
(-0.10646126 0.090398309 0.00030386952)
(-0.11797781 0.086415367 0.00032155494)
(-0.12906688 0.080976094 0.00033780086)
(-0.13959747 0.074093906 0.00035167886)
(-0.149434 0.065784407 0.00036213801)
(-0.15843402 0.056076239 0.00036806594)
(-0.16644669 0.045021271 0.00036835962)
(-0.17331222 0.032704004 0.00036200624)
(-0.17886252 0.019250184 0.00034817287)
(-0.18292316 0.004834537 0.00032630235)
(-0.18531737 -0.010312566 0.00029621449)
(-0.18587198 -0.0258998 0.00025819069)
(-0.18442617 -0.041572066 0.00021305864)
(-0.18084313 -0.056910845 0.00016223986)
(-0.17502465 -0.071439342 0.00010775881)
(-0.16692826 -0.084633977 5.2194985e-05)
(-0.15658626 -0.095943776 -1.4332945e-06)
(-0.1441246 -0.10481881 -4.9857049e-05)
(-0.12977947 -0.11074794 -8.9810923e-05)
(-0.11390799 -0.11330451 -0.00011833608)
(-0.096989361 -0.1121967 -0.00013310073)
(-0.079612821 -0.10731673 -0.00013269316)
(-0.062450279 -0.098781316 -0.00011682635)
(-0.046214677 -0.086954984 -8.6379768e-05)
(-0.031607743 -0.072449902 -4.3311064e-05)
(-0.019254151 -0.056099257 9.2257394e-06)
(-0.0096331381 -0.038903923 6.7278481e-05)
(-0.0031578296 -0.021961651 0.00013150638)
(-0.00038078517 -0.0064355922 0.00019253322)
(-0.00054759919 0.013033165 5.8415044e-05)
(-0.0034658577 0.035479366 0.00013063222)
(-0.0094063966 0.05432296 0.00017551728)
(-0.017386395 0.069745276 0.00020819123)
(-0.026854433 0.082015879 0.00023579031)
(-0.03744815 0.091436738 0.00025993503)
(-0.04885077 0.098307132 0.00028209684)
(-0.060797318 0.10289911 0.00030362516)
(-0.073072171 0.10544206 0.00032538174)
(-0.085496584 0.1061156 0.0003477769)
(-0.097917939 0.10504934 0.0003708387)
(-0.11020099 0.10232798 0.00039425677)
(-0.12222041 0.098000018 0.00041742395)
(-0.1338545 0.092088776 0.00043947937)
(-0.14498013 0.084604361 0.00045935364)
(-0.15546856 0.0755558 0.00047581924)
(-0.16518213 0.064962749 0.00048754916)
(-0.17397174 0.052866565 0.00049318694)
(-0.18167529 0.039340757 0.00049143009)
(-0.18811715 0.02450089 0.0004811273)
(-0.19310911 0.0085140087 0.00046138804)
(-0.19645326 -0.008392564 0.00043170139)
(-0.19794728 -0.025923361 0.00039205305)
(-0.19739264 -0.04370886 0.00034303804)
(-0.19460648 -0.061302513 0.00028594946)
(-0.18943729 -0.07818256 0.00022282883)
(-0.18178452 -0.093760671 0.00015645687)
(-0.17162148 -0.10739971 9.0264203e-05)
(-0.15902008 -0.11844266 2.8147999e-05)
(-0.14417481 -0.12625403 -2.5807991e-05)
(-0.12742189 -0.13027327 -6.7696281e-05)
(-0.10924879 -0.13007709 -9.4199281e-05)
(-0.090288543 -0.12544456 -0.00010300178)
(-0.071294711 -0.11641495 -9.3123221e-05)
(-0.053096435 -0.10332683 -6.5062449e-05)
(-0.036536434 -0.086827863 -2.076682e-05)
(-0.022388439 -0.067848912 3.6197536e-05)
(-0.011268762 -0.047540426 0.00010114141)
(-0.0037218435 -0.027182719 0.00017471233)
(-0.00045691174 -0.0081393813 0.00024440917)
(-0.00055984474 0.01485326 0.00012669295)
(-0.0035453378 0.040221768 0.00020559044)
(-0.0096248081 0.061370767 0.00025169396)
(-0.017792802 0.078574515 0.00028557747)
(-0.027484125 0.092187628 0.00031467202)
(-0.038327156 0.10258894 0.00034074406)
(-0.049997925 0.11014416 0.00036537936)
(-0.062227197 0.11518035 0.00039001005)
(-0.074798402 0.11797046 0.00041554344)
(-0.087535014 0.11872693 0.00044240281)
(-0.10028946 0.11760245 0.0004706004)
(-0.11293388 0.11469631 0.00049978257)
(-0.12535205 0.11006441 0.0005292701)
(-0.13743242 0.10373137 0.00055809793)
(-0.14906226 0.095703587 0.0005850558)
(-0.16012261 0.085982157 0.00060873361)
(-0.17048406 0.074575408 0.00062757575)
(-0.18000323 0.061510782 0.00063994827)
(-0.18852003 0.04684625 0.00064422239)
(-0.19585595 0.030681468 0.0006388766)
(-0.20181372 0.013168866 0.00062261779)
(-0.20617874 -0.0054753444 0.00059451932)
(-0.20872308 -0.024960519 0.00055416918)
(-0.20921261 -0.044912152 0.00050181853)
(-0.20741814 -0.064864844 0.00043851797)
(-0.20313137 -0.084259641 0.00036621973)
(-0.19618604 -0.10244828 0.00028782178)
(-0.18648427 -0.11870743 0.0002071245)
(-0.1740271 -0.13226602 0.00012867305)
(-0.15894667 -0.14234851 5.7468204e-05)
(-0.14153584 -0.14823507 -1.4510479e-06)
(-0.12226911 -0.14933664 -4.352486e-05)
(-0.10180729 -0.14527868 -6.5231469e-05)
(-0.08097872 -0.1359818 -6.458868e-05)
(-0.060733903 -0.12172371 -4.1451554e-05)
(-0.042074313 -0.10316589 2.4120249e-06)
(-0.025950477 -0.081333235 6.3058808e-05)
(-0.013148241 -0.057540534 0.00013497176)
(-0.0043785974 -0.033279402 0.00021876393)
(-0.00054808345 -0.010149842 0.000298709)
(-0.00056512281 0.016704133 0.00020792848)
(-0.0035848219 0.045047807 0.00029376558)
(-0.009739982 0.06854609 0.0003407117)
(-0.018014595 0.087565889 0.00037563095)
(-0.027835514 0.10254741 0.00040616784)
(-0.038824725 0.11394788 0.00043422202)
(-0.050653062 0.12220186 0.00046148663)
(-0.063048412 0.12769428 0.00048947296)
(-0.075794268 0.13074477 0.00051913638)
(-0.088717234 0.13160153 0.00055091999)
(-0.10167579 0.130443 0.00058482979)
(-0.1145507 0.12738525 0.00062047974)
(-0.12723645 0.12249311 0.0006571295)
(-0.13963365 0.11579341 0.00069371926)
(-0.15164251 0.10728887 0.0007289037)
(-0.163157 0.096971889 0.00076109015)
(-0.17405976 0.084837723 0.00078848613)
(-0.18421762 0.070897078 0.0008091614)
(-0.19347777 0.05518837 0.0008211291)
(-0.2016647 0.037789981 0.00082244974)
(-0.2085784 0.018832875 0.00081136088)
(-0.21399412 -0.0014862858 0.00078643233)
(-0.21766444 -0.022891658 0.00074674454)
(-0.21932459 -0.045015027 0.00069207595)
(-0.21870193 -0.067384144 0.00062309351)
(-0.21553094 -0.089414498 0.0005415175)
(-0.2095747 -0.11040751 0.00045023445)
(-0.20065357 -0.12955894 0.00035332124)
(-0.18868079 -0.14598188 0.0002559395)
(-0.17370325 -0.15874898 0.00016406465)
(-0.15594312 -0.1669571 8.4032972e-05)
(-0.1358334 -0.16981458 2.1921544e-05)
(-0.11403767 -0.16674577 -1.7180916e-05)
(-0.091443301 -0.15750013 -2.9893165e-05)
(-0.069120477 -0.14224564 -1.5057741e-05)
(-0.048244337 -0.12162259 2.6005973e-05)
(-0.029971803 -0.096736567 8.9081724e-05)
(-0.015296621 -0.069077566 0.00016775725)
(-0.0051401274 -0.040378987 0.00026258855)
(-0.00065685512 -0.01251807 0.00035458129)
(-0.00056338819 0.018564533 0.00030216649)
(-0.0035843181 0.049906092 0.00039521369)
(-0.0097519586 0.075776039 0.0004426272)
(-0.018051162 0.096630817 0.00047839589)
(-0.027905936 0.11299473 0.00051029261)
(-0.038934096 0.12540356 0.00054033677)
(-0.05080275 0.13436218 0.00057032386)
(-0.06323789 0.14031585 0.00060184462)
(-0.076023787 0.14363372 0.00063590977)
(-0.088990868 0.14460279 0.00067299433)
(-0.1020045 0.14343007 0.0007131129)
(-0.11495518 0.14025089 0.0007558631)
(-0.12774954 0.13514101 0.00080045947)
(-0.14030232 0.1281308 0.0008457621)
(-0.15252913 0.11922003 0.00089030244)
(-0.16434007 0.1083923 0.00093231205)
(-0.17563382 0.095628822 0.00096976087)