/*--------------------------------*- C++ -*----------------------------------*\
  =========                 |
  \\      /  F ield         | OpenFOAM: The Open Source CFD Toolbox
   \\    /   O peration     | Website:  https://openfoam.org
    \\  /    A nd           | Version:  7
     \\/     M anipulation  |
\*---------------------------------------------------------------------------*/
FoamFile
{
    version     2.0;
    format      ascii;
    class       volVectorField;
    location    "35";
    object      U_0;
}
// * * * * * * * * * * * * * * * * * * * * * * * * * * * * * * * * * * * * * //

dimensions      [0 1 -1 0 0 0 0];

internalField   nonuniform List<vector> 
16000
(
(6.6029129e-05 -6.7347968e-05 -4.1707928e-07)
(0.00016273235 -5.6363265e-05 5.6837245e-06)
(0.00014191475 4.6018063e-07 1.9183585e-05)
(-5.062055e-05 6.1889644e-05 3.6606127e-05)
(-0.00040997236 0.00011563059 5.4714733e-05)
(-0.000909026 0.00015774389 7.1543134e-05)
(-0.0015177116 0.00018850508 8.5755248e-05)
(-0.002206886 0.00020960913 9.6535944e-05)
(-0.002950601 0.00022287641 0.0001034249)
(-0.0037264646 0.00022981074 0.00010617519)
(-0.0045150506 0.00023147715 0.00010465953)
(-0.0052990133 0.00022850432 9.8814904e-05)
(-0.0060621928 0.00022114762 8.8616672e-05)
(-0.0067888634 0.00020938278 7.4075382e-05)
(-0.0074632155 0.00019301305 5.5249776e-05)
(-0.0080691171 0.00017178003 3.2270065e-05)
(-0.0085901703 0.00014547171 5.3661477e-06)
(-0.0090100507 0.00011402264 -2.5104086e-05)
(-0.0093131027 7.7602173e-05 -5.8630732e-05)
(-0.0094851477 3.6687282e-05 -9.4536047e-05)
(-0.0095144469 -7.8876405e-06 -0.00013197033)
(-0.0093927288 -5.4925356e-05 -0.00016992243)
(-0.0091162244 -0.00010284323 -0.000207246)
(-0.0086866034 -0.00014974721 -0.00024270324)
(-0.008111692 -0.00019350977 -0.00027502438)
(-0.0074058934 -0.00023188651 -0.00030298046)
(-0.0065902171 -0.00026266437 -0.00032546505)
(-0.0056918528 -0.00028383075 -0.00034157826)
(-0.0047432635 -0.00029374746 -0.00035070591)
(-0.0037808232 -0.00029130606 -0.0003525865)
(-0.0028430656 -0.0002760415 -0.00034735959)
(-0.0019686481 -0.00024819089 -0.00033559163)
(-0.0011941381 -0.00020870647 -0.0003182782)
(-0.00055166678 -0.00015926733 -0.00029682465)
(-6.6515818e-05 -0.000102401 -0.00027300079)
(0.00024491223 -4.1741811e-05 -0.00024886386)
(0.00037894537 1.785194e-05 -0.00022679469)
(0.0003498038 6.7053885e-05 -0.00020922873)
(0.00020620966 8.9825194e-05 -0.0001988384)
(5.7475456e-05 5.7395242e-05 -0.00018439223)
(5.7995237e-05 -0.00016705059 -6.6473363e-06)
(4.0870345e-05 -3.9969611e-05 -3.9355466e-07)
(-0.00029498257 0.00024856105 1.1239944e-05)
(-0.00101103 0.00056212213 2.5605964e-05)
(-0.0020992333 0.00084749602 4.0590973e-05)
(-0.003514093 0.001083121 5.4599158e-05)
(-0.0051946915 0.0012643023 6.6503195e-05)
(-0.0070766348 0.0013940688 7.5550783e-05)
(-0.0090981546 0.0014779609 8.1260153e-05)
(-0.011202309 0.0015215268 8.3331673e-05)
(-0.013337038 0.001529211 8.1582005e-05)
(-0.015454182 0.0015039762 7.5901151e-05)
(-0.017508154 0.0014473581 6.6230755e-05)
(-0.01945472 0.0013597785 5.2560062e-05)
(-0.021250159 0.0012410018 3.49352e-05)
(-0.022850977 0.0010906581 1.3477363e-05)
(-0.024214227 0.00090877482 -1.1594455e-05)
(-0.025298434 0.00069627648 -3.9940308e-05)
(-0.026065058 0.00045541601 -7.1079614e-05)
(-0.026480398 0.00019010807 -0.00010437821)
(-0.026517813 -9.38657e-05 -0.00013904525)
(-0.026159983 -0.00038877759 -0.00017414913)
(-0.025401164 -0.00068509215 -0.00020863397)
(-0.024249167 -0.00097175774 -0.00024136737)
(-0.022726752 -0.00123669 -0.00027119378)
(-0.020872351 -0.0014674256 -0.00029700162)
(-0.018739911 -0.0016519082 -0.00031779864)
(-0.016397711 -0.0017793576 -0.00033278909)
(-0.013926121 -0.0018411505 -0.00034144605)
(-0.011414319 -0.0018316314 -0.00034357126)
(-0.0089561073 -0.0017487664 -0.00033933589)
(-0.0066450117 -0.0015945821 -0.00032929841)
(-0.0045688916 -0.0013753982 -0.00031439798)
(-0.0028042103 -0.0011019813 -0.00029592518)
(-0.0014100151 -0.00078992524 -0.00027547178)
(-0.00042164956 -0.00046057097 -0.00025485335)
(0.00015574636 -0.00014253597 -0.000235985)
(0.00035672496 0.00012231553 -0.00022088262)
(0.00027529449 0.00027110049 -0.00021164523)
(9.0145481e-05 0.00020507121 -0.00019545467)
(1.9154523e-06 -0.00014896736 -2.0433455e-05)
(-0.00025605457 0.00029701507 -1.1815019e-05)
(-0.0010504584 0.0010236209 8.3304979e-08)
(-0.0023878336 0.0017975369 1.3063383e-05)
(-0.0042394496 0.0025099016 2.6099608e-05)
(-0.0065455676 0.0031100556 3.8051124e-05)
(-0.0092251293 0.0035809248 4.8090919e-05)
(-0.012190004 0.0039234333 5.5658319e-05)
(-0.015352993 0.0041461857 6.0371686e-05)
(-0.018631059 0.0042595909 6.1974362e-05)
(-0.021946081 0.0042728145 6.029343e-05)
(-0.025224258 0.004192475 5.5211078e-05)
(-0.028394924 0.0040224699 4.6650973e-05)
(-0.031389392 0.0037645247 3.4577983e-05)
(-0.034140221 0.0034191711 1.9008232e-05)
(-0.036581143 0.0029869398 2.6254335e-08)
(-0.03864775 0.0024696049 -2.2194097e-05)
(-0.040278943 0.0018713577 -4.7368364e-05)
(-0.041419054 0.0011998081 -7.5083065e-05)
(-0.042020504 0.00046673159 -0.00010478336)
(-0.04204677 -0.00031149776 -0.0001357714)
(-0.041475473 -0.0011138114 -0.00016721192)
(-0.040301316 -0.0019148792 -0.0001981577)
(-0.038538554 -0.0026858663 -0.00022758561)
(-0.036222754 -0.0033956793 -0.00025444759)
(-0.033411587 -0.0040126038 -0.00027773323)
(-0.030184435 -0.0045062438 -0.0002965398)
(-0.026640647 -0.0048496375 -0.00031014424)
(-0.022896377 -0.0050213969 -0.00031807052)
(-0.019080013 -0.005007697 -0.00032014503)
(-0.015326331 -0.0048039525 -0.00031653296)
(-0.011769585 -0.0044160552 -0.00030775059)
(-0.0085358488 -0.0038611494 -0.00029465147)
(-0.005734879 -0.0031681081 -0.00027838847)
(-0.0034516874 -0.0023781346 -0.00026035549)
(-0.0017379693 -0.0015462002 -0.00024210888)
(-0.00060369672 -0.00074417376 -0.00022525981)
(-8.0596094e-06 -6.6333474e-05 -0.0002114009)
(0.00015540895 0.00036040634 -0.00020221963)
(7.3564105e-05 0.00035436487 -0.00018530235)
(-6.4685636e-05 5.0422244e-05 -3.8685377e-05)
(-0.0006083849 0.0010457561 -2.614696e-05)
(-0.001930545 0.0023817325 -1.2165624e-05)
(-0.0039464465 0.0037565155 1.1271932e-06)
(-0.0065890247 0.005015311 1.3715416e-05)
(-0.0097792103 0.0060800601 2.48397e-05)
(-0.013417138 0.0069205185 3.3962832e-05)
(-0.017395542 0.0075341107 4.0749499e-05)
(-0.021607752 0.0079313946 4.496373e-05)
(-0.025950713 0.0081270388 4.6433687e-05)
(-0.030325868 0.0081347665 4.5028609e-05)
(-0.034638817 0.0079649995 4.0642177e-05)
(-0.038798384 0.0076243727 3.3187318e-05)
(-0.042715705 0.0071165065 2.2601741e-05)
(-0.046303773 0.006443553 8.8617555e-06)
(-0.049477691 0.0056081442 -7.9981458e-06)
(-0.052155747 0.0046154487 -2.7862614e-05)
(-0.054261309 0.00347511 -5.0512533e-05)
(-0.055725435 0.002202887 -7.5604836e-05)
(-0.056490038 0.00082185081 -0.00010265831)
(-0.056511339 -0.00063696768 -0.00013104847)
(-0.055763443 -0.0021345931 -0.00016001034)
(-0.054241666 -0.0036248133 -0.00018866178)
(-0.051965312 -0.0050556235 -0.00021603556)
(-0.048979656 -0.0063713989 -0.00024112865)
(-0.045356804 -0.0075157216 -0.00026296375)
(-0.041195194 -0.0084347237 -0.00028065898)
(-0.036617542 -0.009080742 -0.00029349991)
(-0.031767146 -0.0094160246 -0.0003010069)
(-0.026802511 -0.0094162103 -0.00030299037)
(-0.021890405 -0.0090733181 -0.00029958671)
(-0.017197567 -0.0083980432 -0.0002912687)
(-0.012881398 -0.0074212816 -0.00027882728)
(-0.0090800705 -0.0061950064 -0.00026332586)
(-0.0059024823 -0.0047929349 -0.00024603224)
(-0.0034184796 -0.00331184 -0.00022833553)
(-0.0016495191 -0.0018745489 -0.00021166291)
(-0.00055981093 -0.00063469996 -0.00019740857)
(-5.0127917e-05 0.00021501899 -0.00018680788)
(3.809275e-05 0.00041383216 -0.00016800025)
(-0.00013086636 0.00044556115 -5.820165e-05)
(-0.00097095305 0.0022426834 -4.1137022e-05)
(-0.0028462172 0.0043591769 -2.4254586e-05)
(-0.0055648198 0.0064572059 -9.8222369e-06)
(-0.009009449 0.0083534689 3.0963008e-06)
(-0.013075467 0.009951446 1.4076291e-05)
(-0.017642283 0.011211742 2.2854823e-05)
(-0.022584682 0.012129578 2.9327098e-05)
(-0.027779634 0.012717521 3.3415892e-05)
(-0.033108113 0.012994144 3.5048333e-05)
(-0.038455493 0.012977364 3.4147136e-05)
(-0.043711125 0.012681213 3.0623907e-05)
(-0.048767515 0.012115127 2.4381784e-05)
(-0.053519625 0.011284985 1.5327267e-05)
(-0.057864693 0.010195258 3.3890099e-06)
(-0.061702787 0.0088517411 -1.1458524e-05)
(-0.064938222 0.007264441 -2.9168741e-05)
(-0.067481787 0.0054502927 -4.9596384e-05)
(-0.069253693 0.0034354347 -7.2473594e-05)
(-0.070187064 0.001256841 -9.739163e-05)
(-0.070231715 -0.0010368532 -0.00012379128)
(-0.069358009 -0.0033854743 -0.00015096439)
(-0.067560459 -0.0057183915 -0.00017807031)
(-0.064860796 -0.0079566826 -0.00020416734)
(-0.061310194 -0.010016305 -0.00022826047)
(-0.056990354 -0.011812197 -0.00024936335)
(-0.052013143 -0.013263146 -0.00026657036)
(-0.04651856 -0.014297141 -0.00027913207)
(-0.040670858 -0.014856878 -0.0002865263)
(-0.034652772 -0.01490499 -0.00028851624)
(-0.02865789 -0.014428617 -0.00028518819)
(-0.022881389 -0.013442984 -0.00027696236)
(-0.017509474 -0.011993831 -0.00026457324)
(-0.01270807 -0.010158702 -0.00024901899)
(-0.0086114858 -0.0080474796 -0.0002314836)
(-0.0053117557 -0.0058029577 -0.00021324656)
(-0.0028485033 -0.0036024915 -0.00019562102)
(-0.001200027 -0.0016605544 -0.00017987296)
(-0.00028881744 -0.00023377376 -0.00016672782)
(-2.4764904e-06 0.0003504692 -0.00014549542)
(-0.00019286569 0.0010313033 -7.6681881e-05)
(-0.001323989 0.0038925263 -5.4778613e-05)
(-0.003751861 0.0069679897 -3.4573846e-05)
(-0.007173305 0.0099108089 -1.8480332e-05)
(-0.011414814 0.012527389 -4.6845988e-06)
(-0.01634149 0.014714497 6.6781424e-06)
(-0.021809625 0.016430496 1.5594976e-05)
(-0.027675881 0.017672012 2.2180574e-05)
(-0.033802398 0.018455242 2.6513392e-05)
(-0.040056848 0.018803209 2.8620106e-05)
(-0.046311836 0.018738075 2.8477936e-05)
(-0.052444058 0.018277405 2.6015943e-05)
(-0.058333352 0.017433434 2.1124573e-05)
(-0.063862056 0.016214492 1.3673678e-05)
(-0.068914985 0.014627821 3.5367754e-06)
(-0.073380194 0.012683106 -9.3802974e-06)
(-0.077150606 0.010396209 -2.5108229e-05)
(-0.080126447 0.0077926385 -4.3582766e-05)
(-0.082218387 0.0049104469 -6.4615591e-05)
(-0.083351211 0.0018022814 -8.7870636e-05)
(-0.083467812 -0.0014636116 -0.00011284916)
(-0.082533251 -0.0048035824 -0.00013888729)
(-0.080538645 -0.0081200468 -0.00016516772)
(-0.077504583 -0.01130433 -0.00019074943)
(-0.073483761 -0.014240825 -0.00021461442)
(-0.068562527 -0.01681239 -0.00023573086)
(-0.062860992 -0.018906789 -0.00025312885)
(-0.056531387 -0.020423867 -0.00026598188)
(-0.049754413 -0.021283047 -0.00027368518)
(-0.04273341 -0.021430596 -0.00027592067)
(-0.035686364 -0.020846109 -0.0002726996)
(-0.028835905 -0.019547679 -0.00026437607)
(-0.022397686 -0.01759541 -0.00025162815)
(-0.01656775 -0.015093177 -0.00023540558)
(-0.011509877 -0.012188847 -0.00021684502)
(-0.0073439151 -0.009073654 -0.00019717215)
(-0.0041345345 -0.0059816715 -0.00017765985)
(-0.0018815872 -0.0031890488 -0.00015954223)
(-0.00053619019 -0.0010143268 -0.00014314805)
(-4.1247595e-05 0.00015895111 -0.0001190563)
(-0.00025011702 0.0017985678 -9.2168638e-05)
(-0.0016597747 0.0059841351 -6.5279089e-05)
(-0.0046244597 0.010198609 -4.1592743e-05)
(-0.0087321734 0.014107011 -2.3537927e-05)
(-0.013751609 0.017522326 -8.4995252e-06)
(-0.019515084 0.020347109 3.6394568e-06)
(-0.025854149 0.022545917 1.3090767e-05)
(-0.032607011 0.024121996 2.0170517e-05)
(-0.039621881 0.025098102 2.5100993e-05)
(-0.046755008 0.025503172 2.8000467e-05)
(-0.053868795 0.025364223 2.8894528e-05)
(-0.060830242 0.024702533 2.77239e-05)
(-0.067509634 0.023533171 2.436002e-05)
(-0.07377976 0.021866977 1.8628833e-05)
(-0.07951587 0.019714121 1.0340558e-05)
(-0.084596492 0.017088488 -6.7624909e-07)
(-0.088905117 0.014012231 -1.4538044e-05)
(-0.092332694 0.010520008 -3.1269094e-05)
(-0.094780815 0.0066624832 -5.0766273e-05)
(-0.096165461 0.0025088095 -7.276896e-05)
(-0.096421113 -0.0018521441 -9.6837679e-05)
(-0.095505018 -0.0063119966 -0.00012234615)
(-0.09340142 -0.010744594 -0.00014848774)
(-0.090125471 -0.015009423 -0.0001743029)
(-0.085726501 -0.018956662 -0.00019872485)
(-0.080290342 -0.022433814 -0.00022064437)
(-0.073940278 -0.025293744 -0.00023898985)
(-0.066836228 -0.027403777 -0.00025281611)
(-0.059171738 -0.028655386 -0.00026139269)
(-0.051168501 -0.028973821 -0.00026427999)
(-0.043068256 -0.02832691 -0.00026138183)
(-0.035122206 -0.026732267 -0.00025296572)
(-0.027578332 -0.024262247 -0.00023964725)
(-0.020667327 -0.021046322 -0.00022233817)
(-0.014588341 -0.017270909 -0.00020215748)
(-0.0094958288 -0.013177216 -0.00018032787)
(-0.0054864993 -0.0090579185 -0.00015815336)
(-0.0025879501 -0.005252219 -0.00013692208)
(-0.00078446301 -0.0021405413 -0.00011663823)
(-7.6871517e-05 -0.0001605396 -8.9432591e-05)
(-0.00030295611 0.0027365267 -0.00010299229)
(-0.0019754999 0.0084980991 -7.1021983e-05)
(-0.0054521445 0.014028573 -4.3874165e-05)
(-0.010217977 0.019021386 -2.3729544e-05)
(-0.015985185 0.023311092 -7.2342674e-06)
(-0.022552802 0.026818193 5.9547614e-06)
(-0.029727188 0.029522429 1.6252051e-05)
(-0.03732821 0.031439777 2.4155431e-05)
(-0.045190986 0.032603404 3.0015016e-05)
(-0.053161891 0.033050374 3.402777e-05)
(-0.061095245 0.032813693 3.6256839e-05)
(-0.068850855 0.031918825 3.6645062e-05)
(-0.076292135 0.030383785 3.5035883e-05)
(-0.083284983 0.028221862 3.1202369e-05)
(-0.089697544 0.025446021 2.4882151e-05)
(-0.095400883 0.022074172 1.5816846e-05)
(-0.10027056 0.018134568 3.794437e-06)
(-0.10418903 0.0136708 -1.1307355e-05)
(-0.10704871 0.0087459278 -2.9479221e-05)
(-0.10875572 0.0034454489 -5.0542989e-05)
(-0.10923405 -0.0021211595 -7.4122819e-05)
(-0.10842998 -0.0078205166 -9.9630662e-05)
(-0.10631682 -0.013497151 -0.00012626542)
(-0.10289943 -0.018977291 -0.00015303705)
(-0.098218414 -0.024074607 -0.00017881015)
(-0.092353555 -0.028597955 -0.00020237029)
(-0.085426038 -0.03236097 -0.00022250886)
(-0.077598898 -0.035193186 -0.00023812012)
(-0.069075153 -0.036952166 -0.00024830126)
(-0.060093102 -0.037535862 -0.00025244345)
(-0.050918468 -0.036894261 -0.00025030003)
(-0.041833369 -0.035039203 -0.00024202006)
(-0.033122496 -0.032051367 -0.00022814112)
(-0.025057295 -0.028083648 -0.00020954029)
(-0.017879635 -0.023360693 -0.00018734205)
(-0.011786475 -0.018175004 -0.00016281054)
(-0.0069140755 -0.012880391 -0.00013734699)
(-0.0033238432 -0.0078822571 -0.00011237629)
(-0.0010368607 -0.0036261505 -8.7668749e-05)
(-0.0001109327 -0.00060702233 -5.7228409e-05)
(-0.00035169295 0.0038338196 -0.00010768922)
(-0.002269686 0.011410357 -7.053322e-05)
(-0.0062274807 0.018427296 -4.0055256e-05)
(-0.011614751 0.024619952 -1.7804828e-05)
(-0.018090319 0.029857555 2.5908248e-07)
(-0.025421022 0.034089871 1.468843e-05)
(-0.033388715 0.037320706 2.6082715e-05)
(-0.04179567 0.039585241 3.5102695e-05)
(-0.050464966 0.040931435 4.2209372e-05)
(-0.059234586 0.041407231 4.7663554e-05)
(-0.067952668 0.041053177 5.1552929e-05)
(-0.076474031 0.039899659 5.3810904e-05)
(-0.084657586 0.037967834 5.4242333e-05)
(-0.092364701 0.035273265 5.2557186e-05)
(-0.099458579 0.031831286 4.8410076e-05)
(-0.10580461 0.027663182 4.1444599e-05)
(-0.11127167 0.022802463 3.1341246e-05)
(-0.11573422 0.017300627 1.7867074e-05)
(-0.11907515 0.011231982 9.2463005e-07)
(-0.1211894 0.0046971921 -1.9402876e-05)
(-0.12198808 -0.0021747083 -4.2814255e-05)
(-0.12140312 -0.0092260614 -6.8768339e-05)
(-0.11939247 -0.016272188 -9.6472941e-05)
(-0.11594547 -0.023105287 -0.00012490406)
(-0.11108821 -0.029500585 -0.00015284473)
(-0.10488839 -0.035224942 -0.00017895154)
(-0.097459307 -0.040047903 -0.00020184423)
(-0.088962033 -0.043754904 -0.00022021208)
(-0.079605254 -0.046162102 -0.00023292788)
(-0.069641876 -0.047131961 -0.00023915703)
(-0.059361846 -0.04658837 -0.00023844685)
(-0.049080946 -0.044529875 -0.00023078119)
(-0.039125762 -0.041039483 -0.00021658976)
(-0.029815751 -0.036289744 -0.00019670755)
(-0.021444136 -0.030542381 -0.00017228091)
(-0.014259498 -0.024142647 -0.0001446544)
(-0.0084461192 -0.017509201 -0.0001153878)
(-0.0041057595 -0.011119099 -8.6122246e-05)
(-0.001300082 -0.0054896906 -5.646321e-05)
(-0.00014466068 -0.0011817414 -2.2510902e-05)
(-0.00039639257 0.0050786741 -0.00010494019)
(-0.0025408052 0.014693484 -6.2460187e-05)
(-0.0069442142 0.023357975 -2.8853963e-05)
(-0.012909249 0.030860806 -4.5523878e-06)
(-0.02004566 0.037117346 1.5127302e-05)
(-0.028090312 0.042116902 3.0934471e-05)
(-0.036802155 0.04589578 4.363934e-05)
(-0.045967203 0.048514811 5.4048728e-05)
(-0.055397841 0.050041356 6.2718465e-05)
(-0.064925209 0.0505373 6.9958535e-05)
(-0.074393068 0.050052591 7.5867913e-05)
(-0.083653288 0.048623482 8.0358582e-05)
(-0.092562447 0.04627453 8.3185677e-05)
(-0.10097955 0.043023312 8.3985179e-05)
(-0.10876486 0.03888682 8.2317335e-05)
(-0.11577977 0.033888621 7.7715153e-05)
(-0.12188763 0.028066013 6.9737267e-05)
(-0.12695539 0.021476601 5.8023635e-05)
(-0.13085611 0.014203878 4.2351778e-05)
(-0.13347225 0.0063614856 2.2690754e-05)
(-0.13469975 -0.001904088 -7.5172214e-07)
(-0.13445282 -0.010412652 -2.7500401e-05)
(-0.13266959 -0.018951369 -5.6783656e-05)
(-0.12931855 -0.027278394 -8.7550055e-05)
(-0.12440508 -0.03512903 -0.00011849691)
(-0.11797824 -0.042224891 -0.00014813397)
(-0.11013683 -0.048286166 -0.0001748762)
(-0.10103394 -0.05304689 -0.00019715996)
(-0.090879084 -0.056272729 -0.00021357359)
(-0.079936768 -0.057780318 -0.00022298877)
(-0.068520622 -0.057456691 -0.00022467668)
(-0.056982415 -0.05527693 -0.00021839161)
(-0.045695951 -0.051317903 -0.00020440678)
(-0.035036666 -0.045766085 -0.00018349141)
(-0.025358981 -0.038918042 -0.00015681917)
(-0.016973698 -0.031173318 -0.00012584825)
(-0.010123122 -0.023020496 -9.2355682e-05)
(-0.0049573016 -0.01501629 -5.8276501e-05)
(-0.0015839133 -0.0077601689 -2.3104649e-05)
(-0.00018000582 -0.0018919978 1.4760179e-05)
(-0.00043687378 0.0064585689 -9.354272e-05)
(-0.0027868529 0.018316901 -4.5564005e-05)
(-0.0075959002 0.028778321 -9.0796269e-06)
(-0.014088641 0.037694906 1.7174307e-05)
(-0.021830807 0.04503821 3.8478102e-05)
(-0.030532268 0.050846274 5.5770359e-05)
(-0.039931317 0.055195692 6.9980308e-05)
(-0.049799506 0.058179118 8.2045998e-05)
(-0.059940129 0.059887921 9.2603801e-05)
(-0.07017911 0.060401148 0.00010199969)
(-0.080357613 0.059780194 0.00011033185)
(-0.090326499 0.05806828 0.00011747977)
(-0.099942071 0.055293688 0.00012313825)
(-0.10906304 0.05147567 0.00012685848)
(-0.11754871 0.046631951 0.00012809446)
(-0.12525816 0.040786887 0.00012625474)
(-0.1320505 0.033979544 0.00012075934)
(-0.13778589 0.026271127 0.00011110086)
(-0.14232753 0.0177514 9.6907912e-05)
(-0.1455445 0.0085438152 7.8008514e-05)
(-0.1473157 -0.0011908598 5.4488872e-05)
(-0.1475346 -0.011252637 2.6726766e-05)
(-0.14611542 -0.021402751 -4.5477183e-06)
(-0.1430005 -0.031366222 -3.8274169e-05)
(-0.13816825 -0.040837674 -7.3070937e-05)
(-0.13164196 -0.049490589 -0.00010729188)
(-0.12349839 -0.056990433 -0.00013911853)
(-0.11387529 -0.063011811 -0.00016668478)
(-0.10297654 -0.067259338 -0.00018822575)
(-0.091073524 -0.069491265 -0.00020223684)
(-0.078501391 -0.069544171 -0.00020762431)
(-0.065648975 -0.067356336 -0.00020382713)
(-0.052941997 -0.062986923 -0.00019089043)
(-0.040820053 -0.056628016 -0.00016947177)
(-0.029709669 -0.048607153 -0.00014076049)
(-0.019996223 -0.039379397 -0.00010635228)
(-0.011992168 -0.029509502 -6.8298235e-05)
(-0.0059060207 -0.019644353 -2.8906446e-05)
(-0.0018995933 -0.010479296 1.2402495e-05)
(-0.000219111 -0.0027504894 5.4740783e-05)
(-0.0004727612 0.0079598521 -7.2406093e-05)
(-0.0030053079 0.022246663 -1.8722911e-05)
(-0.0081754825 0.034640706 2.0353976e-05)
(-0.015139638 0.045066381 4.8434573e-05)
(-0.023425072 0.053560156 7.1349701e-05)
(-0.032718087 0.060216894 9.0220326e-05)
(-0.042738977 0.065160506 0.00010612463)
(-0.053246919 0.068521218 0.00012011889)
(-0.064037874 0.070418868 0.00013290791)
(-0.074934231 0.070952906 0.00014486269)
(-0.085776301 0.070198347 0.00015607077)
(-0.096415815 0.068206602 0.00016637)
(-0.1067108 0.065010078 0.00017538587)
(-0.11652172 0.060629343 0.00018257498)
(-0.12570893 0.055081775 0.00018727338)
(-0.13413108 0.048390745 0.00018875048)
(-0.1416446 0.040594621 0.00018626887)
(-0.148104 0.031755105 0.00017914998)
(-0.15336318 0.021964579 0.00016684413)
(-0.15727765 0.011352264 0.00014900214)
(-0.15970801 8.9016575e-05 0.00012554466)
(-0.1605249 -0.011609441 9.6732869e-05)
(-0.15961527 -0.023481695 6.3195983e-05)
(-0.1568904 -0.035221783 2.5976233e-05)
(-0.15229556 -0.04648401 -1.3484811e-05)
(-0.14582082 -0.056891675 -5.3387971e-05)
(-0.13751248 -0.066050523 -9.1661313e-05)
(-0.12748402 -0.073567424 -0.00012608901)
(-0.11592511 -0.079074258 -0.00015447812)
(-0.10310686 -0.082256232 -0.00017484966)
(-0.089381231 -0.082882821 -0.000185633)
(-0.075173048 -0.080838432 -0.00018583832)
(-0.060963167 -0.076149005 -0.00017518161)
(-0.047263078 -0.069000364 -0.00015413446)
(-0.034583087 -0.059744609 -0.00012386606)
(-0.0233974 -0.048892496 -8.6118108e-05)
(-0.014103448 -0.037091889 -4.3268966e-05)
(-0.0069814319 -0.025092619 1.9164476e-06)
(-0.0022590042 -0.013702948 5.0064203e-05)
(-0.00026414532 -0.0037760395 9.7621093e-05)
(-0.000503551 0.0095674399 -4.0560634e-05)
(-0.0031932765 0.026445185 1.9055408e-05)
(-0.0086754059 0.040892095 6.0411156e-05)
(-0.016048494 0.052912579 9.0176689e-05)
(-0.024807363 0.062615408 0.00011468063)
(-0.034618416 0.070159212 0.00013521927)
(-0.04518679 0.075721394 0.00015301056)
(-0.056261498 0.079474995 0.00016921774)
(-0.067632965 0.081572537 0.00018460418)
(-0.079121705 0.082137082 0.0001995578)
(-0.090568861 0.081259505 0.00021414848)
(-0.10182884 0.07900076 0.00022816611)
(-0.11276334 0.075397881 0.00024116045)
(-0.12323668 0.070472441 0.00025248572)
(-0.13311238 0.064240353 0.00026134961)
(-0.14225077 0.056722066 0.00026686779)
(-0.15050759 0.047952505 0.00026812542)
(-0.15773345 0.03799033 0.00026424602)
(-0.16377427 0.026926302 0.00025446741)
(-0.16847277 0.014890608 0.00023822212)
(-0.17167132 0.0020590393 0.00021521976)
(-0.1732166 -0.011342249 0.00018553659)
(-0.17296592 -0.025033762 0.00014966109)
(-0.17079569 -0.038682246 0.00010856441)
(-0.16661242 -0.051903614 6.3709034e-05)
(-0.16036549 -0.064270365 1.7027636e-05)
(-0.15206156 -0.075324586 -2.914783e-05)
(-0.14177938 -0.084597504 -7.2212566e-05)
(-0.12968347 -0.091636035 -0.0001094697)
(-0.11603434 -0.096035942 -0.00013835496)
(-0.10119274 -0.097479886 -0.00015668371)
(-0.085615083 -0.095777086 -0.00016288941)
(-0.069838049 -0.090899817 -0.00015621914)
(-0.054451415 -0.08301092 -0.00013684625)
(-0.040061176 -0.072476742 -0.00010585127)
(-0.027246483 -0.059861708 -6.5107605e-05)
(-0.016507706 -0.045903608 -1.7366374e-05)
(-0.0082137725 -0.031469861 3.4061029e-05)
(-0.0026743198 -0.017501841 8.9826851e-05)
(-0.00031729523 -0.0049938553 0.00014354458)
(-0.00052868033 0.011264645 2.8238921e-06)
(-0.0033477384 0.030871098 6.8615405e-05)
(-0.0090880528 0.047474044 0.00011191342)
(-0.016801585 0.061164136 0.00014321238)
(-0.025956886 0.072128385 0.00016927867)
(-0.036204177 0.080594896 0.00019157567)
(-0.047236289 0.086799847 0.0002114524)
(-0.058794237 0.090963752 0.00023016924)
(-0.070664648 0.093275752 0.00024854096)
(-0.082667713 0.093885656 0.00026696735)
(-0.094646986 0.092902512 0.00028549712)
(-0.10646126 0.090398308 0.0003038694)
(-0.11797781 0.086415365 0.00032155509)
(-0.12906688 0.080976094 0.00033780133)
(-0.13959747 0.074093907 0.00035167942)
(-0.149434 0.065784408 0.00036213828)
(-0.15843403 0.05607624 0.00036806575)
(-0.16644669 0.04502127 0.00036835922)
(-0.17331222 0.032704001 0.00036200617)
(-0.17886251 0.019250182 0.00034817338)
(-0.18292317 0.0048345382 0.00032630303)
(-0.18531737 -0.010312562 0.00029621454)
(-0.18587198 -0.025899797 0.00025818976)
(-0.18442617 -0.041572068 0.00021305745)
(-0.18084313 -0.056910851 0.00016223968)
(-0.17502464 -0.071439346 0.0001077601)
(-0.16692827 -0.084633974 5.2196633e-05)
(-0.15658626 -0.095943769 -1.4329315e-06)
(-0.1441246 -0.10481881 -4.9858219e-05)
(-0.12977947 -0.11074795 -8.9812018e-05)
(-0.11390799 -0.11330452 -0.00011833562)
(-0.09698936 -0.1121967 -0.00013309931)
(-0.079612826 -0.10731673 -0.00013269257)
(-0.062450282 -0.098781313 -0.00011682702)
(-0.046214675 -0.086954985 -8.6380573e-05)
(-0.03160774 -0.072449904 -4.3311084e-05)
(-0.01925415 -0.056099258 9.2262122e-06)
(-0.0096331392 -0.038903922 6.7278775e-05)
(-0.0031578304 -0.02196165 0.00013150635)
(-0.0003807853 -0.0064355921 0.00019253313)
(-0.00054759905 0.013033165 5.8414988e-05)
(-0.0034658573 0.035479366 0.00013063222)
(-0.0094063963 0.05432296 0.00017551736)
(-0.017386395 0.069745276 0.00020819128)
(-0.026854433 0.082015879 0.0002357902)
(-0.03744815 0.091436739 0.0002599348)
(-0.048850769 0.098307131 0.00028209659)
(-0.060797317 0.10289911 0.00030362497)
(-0.073072171 0.10544206 0.00032538165)
(-0.085496584 0.1061156 0.0003477769)
(-0.097917939 0.10504934 0.00037083867)
(-0.11020099 0.10232798 0.00039425667)
(-0.12222041 0.098000018 0.00041742388)
(-0.1338545 0.092088775 0.00043947954)
(-0.14498013 0.084604359 0.00045935415)
(-0.15546857 0.0755558 0.00047581987)
(-0.16518213 0.064962751 0.00048754946)
(-0.17397174 0.052866567 0.00049318664)
(-0.18167529 0.039340756 0.00049142943)
(-0.18811714 0.024500887 0.00048112694)
(-0.1931091 0.0085140057 0.00046138839)
(-0.19645326 -0.0083925634 0.00043170215)
(-0.19794728 -0.025923357 0.00039205333)
(-0.19739264 -0.043708856 0.00034303733)
(-0.19460648 -0.061302514 0.00028594833)
(-0.18943729 -0.078182565 0.00022282856)
(-0.18178452 -0.093760676 0.00015645801)
(-0.17162148 -0.10739971 9.026576e-05)
(-0.15902009 -0.11844265 2.8148419e-05)
(-0.14417481 -0.12625403 -2.5808945e-05)
(-0.12742189 -0.13027327 -6.769721e-05)
(-0.10924879 -0.1300771 -9.4199001e-05)
(-0.090288542 -0.12544457 -0.00010300079)
(-0.071294714 -0.11641495 -9.3122752e-05)
(-0.053096437 -0.10332683 -6.5062792e-05)
(-0.036536433 -0.086827863 -2.0767263e-05)
(-0.022388438 -0.067848913 3.6197535e-05)
(-0.011268762 -0.047540427 0.00010114168)
(-0.003721844 -0.027182719 0.00017471251)
(-0.00045691208 -0.0081393809 0.00024440919)
(-0.00055984496 0.01485326 0.00012669292)
(-0.0035453378 0.040221768 0.0002055903)
(-0.0096248076 0.061370767 0.00025169388)
(-0.017792802 0.078574515 0.0002855775)
(-0.027484126 0.092187628 0.00031467202)
(-0.038327157 0.10258894 0.00034074392)
(-0.049997925 0.11014416 0.0003653791)
(-0.062227197 0.11518035 0.00039000974)
(-0.074798401 0.11797046 0.00041554322)
(-0.087535013 0.11872693 0.00044240276)
(-0.10028946 0.11760245 0.00047060051)
(-0.11293388 0.11469631 0.00049978269)
(-0.12535205 0.11006441 0.0005292701)
(-0.13743242 0.10373137 0.00055809786)
(-0.14906226 0.095703586 0.0005850559)
(-0.16012261 0.085982155 0.00060873403)
(-0.17048406 0.074575408 0.00062757632)
(-0.18000323 0.061510784 0.00063994852)
(-0.18852003 0.046846253 0.00064422198)
(-0.19585595 0.030681468 0.00063887575)
(-0.20181371 0.013168863 0.00062261721)
(-0.20617873 -0.0054753478 0.00059451956)
(-0.20872308 -0.024960519 0.00055417)
(-0.20921261 -0.044912148 0.00050181903)
(-0.20741815 -0.06486484 0.00043851749)
(-0.20313137 -0.084259641 0.00036621871)
(-0.19618604 -0.10244829 0.0002878214)
(-0.18648427 -0.11870743 0.00020712536)
(-0.17402711 -0.13226601 0.0001286743)
(-0.15894667 -0.14234851 5.7468548e-05)
(-0.14153584 -0.14823507 -1.4517882e-06)
(-0.12226911 -0.14933665 -4.3525591e-05)
(-0.10180728 -0.14527868 -6.5231346e-05)
(-0.08097872 -0.13598181 -6.4588039e-05)
(-0.060733905 -0.12172371 -4.1451194e-05)
(-0.042074315 -0.10316589 2.4118904e-06)
(-0.025950477 -0.081333235 6.3058571e-05)
(-0.01314824 -0.057540535 0.00013497174)
(-0.0043785971 -0.033279403 0.00021876403)
(-0.00054808351 -0.010149842 0.00029870905)
(-0.00056512312 0.016704133 0.00020792851)
(-0.0035848224 0.045047807 0.00029376547)
(-0.0097399819 0.06854609 0.00034071151)
(-0.018014595 0.087565888 0.00037563085)
(-0.027835513 0.10254741 0.00040616783)
(-0.038824725 0.11394788 0.00043422198)
(-0.050653062 0.12220186 0.00046148648)
(-0.063048413 0.12769428 0.00048947267)
(-0.075794268 0.13074477 0.00051913604)
(-0.088717233 0.13160153 0.00055091976)
(-0.10167579 0.130443 0.0005848298)
(-0.1145507 0.12738525 0.00062047997)
(-0.12723645 0.12249311 0.00065712976)
(-0.13963366 0.11579341 0.00069371932)
(-0.15164251 0.10728887 0.00072890356)
(-0.163157 0.096971887 0.00076109005)
(-0.17405976 0.08483772 0.00078848633)
(-0.18421762 0.070897078 0.00080916183)
(-0.19347777 0.055188372 0.00082112929)
(-0.2016647 0.037789984 0.00082244931)
(-0.2085784 0.018832875 0.00081135998)
(-0.21399412 -0.0014862883 0.00078643165)
(-0.21766444 -0.022891661 0.0007467447)
(-0.21932459 -0.045015028 0.00069207679)
(-0.21870194 -0.067384141 0.00062309412)
(-0.21553095 -0.089414494 0.00054151717)
(-0.2095747 -0.11040751 0.00045023349)
(-0.20065356 -0.12955895 0.00035332073)
(-0.18868079 -0.14598188 0.00025593999)
(-0.17370326 -0.15874898 0.00016406552)
(-0.15594313 -0.1669571 8.403322e-05)
(-0.1358334 -0.16981458 2.1921043e-05)
(-0.11403767 -0.16674577 -1.7181435e-05)
(-0.091443299 -0.15750013 -2.9893145e-05)
(-0.069120476 -0.14224564 -1.5057376e-05)
(-0.048244338 -0.12162259 2.6006191e-05)
(-0.029971803 -0.096736566 8.908164e-05)
(-0.015296621 -0.069077566 0.00016775707)
(-0.005140127 -0.040378988 0.00026258844)
(-0.00065685498 -0.01251807 0.00035458124)
(-0.0005633882 0.018564532 0.00030216649)
(-0.0035843184 0.049906093 0.00039521367)
(-0.009751959 0.07577604 0.00044262706)
(-0.018051162 0.096630817 0.00047839572)
(-0.027905936 0.11299472 0.0005102925)
(-0.038934096 0.12540356 0.00054033672)
(-0.05080275 0.13436218 0.0005703238)
(-0.063237891 0.14031585 0.00060184446)
(-0.076023788 0.14363372 0.00063590948)
(-0.088990868 0.14460279 0.00067299398)
(-0.1020045 0.14343007 0.00071311266)
(-0.11495518 0.14025089 0.00075586315)
(-0.12774954 0.13514101 0.00080045979)
(-0.14030232 0.1281308 0.00084576245)
(-0.15252913 0.11922004 0.00089030251)
(-0.16434007 0.1083923 0.00093231175)
(-0.17563381 0.095628821 0.00096976052)