/*--------------------------------*- C++ -*----------------------------------*\
  =========                 |
  \\      /  F ield         | OpenFOAM: The Open Source CFD Toolbox
   \\    /   O peration     | Website:  https://openfoam.org
    \\  /    A nd           | Version:  7
     \\/     M anipulation  |
\*---------------------------------------------------------------------------*/
FoamFile
{
    version     2.0;
    format      ascii;
    class       volScalarField;
    location    "2";
    object      p;
}
// * * * * * * * * * * * * * * * * * * * * * * * * * * * * * * * * * * * * * //

dimensions      [0 2 -2 0 0 0 0];

internalField   nonuniform List<scalar> 
8800
(
1.16892
1.12231
1.08805
1.06209
1.04339
1.02986
1.01989
1.01255
1.00752
1.00512
1.00615
1.01016
1.0165
1.02518
1.03682
1.05272
1.07478
1.10509
1.14351
1.2024
1.00829
1.01562
1.02276
1.02541
1.02384
1.0191
1.01306
1.00716
1.0023
0.999084
0.99846
1.00078
1.0051
1.01071
1.01691
1.02257
1.02599
1.02547
1.0209
1.01161
1.00124
1.00504
1.00764
1.00922
1.00917
1.0075
1.00461
1.00135
0.998553
0.997091
0.997798
1.0003
1.00363
1.00693
1.00937
1.01036
1.00955
1.00746
1.00449
1.00224
0.998433
0.998794
0.99939
0.999923
1.00004
0.999659
0.998672
0.997163
0.995614
0.994789
0.995325
0.996903
0.998733
1.00018
1.00095
1.00114
1.00083
1.00024
0.999756
0.999595
0.990104
0.990235
0.990323
0.990331
0.990177
0.989779
0.989103
0.98822
0.987346
0.9869
0.987348
0.988433
0.98961
0.990582
0.991236
0.991574
0.991672
0.991631
0.991527
0.991444
0.982416
0.982492
0.982557
0.982593
0.98256
0.982413
0.982123
0.981712
0.981307
0.981177
0.98158
0.982323
0.98307
0.983648
0.984009
0.984185
0.984233
0.984209
0.984158
0.984114
0.974759
0.974797
0.974827
0.974844
0.974833
0.974778
0.974669
0.974522
0.974409
0.974495
0.974909
0.975491
0.976028
0.976433
0.976694
0.976836
0.976898
0.976909
0.976894
0.976871
0.9672
0.967221
0.967244
0.967268
0.967289
0.967304
0.967316
0.967346
0.967432
0.967692
0.968159
0.968681
0.969125
0.96945
0.969662
0.969785
0.969844
0.969864
0.969861
0.969847
0.959652
0.959662
0.959685
0.959718
0.959765
0.959834
0.959936
0.960092
0.960345
0.960763
0.961322
0.961861
0.962286
0.962591
0.96279
0.962909
0.962973
0.963
0.963004
0.962994
0.952048
0.95206
0.952085
0.95213
0.952204
0.952321
0.952501
0.952773
0.953178
0.953763
0.954452
0.95506
0.955527
0.955851
0.956062
0.956191
0.956262
0.956296
0.956306
0.956298
0.944349
0.944357
0.944389
0.944449
0.944553
0.944721
0.944982
0.945372
0.945936
0.946715
0.947583
0.948317
0.948857
0.949231
0.949475
0.949625
0.949711
0.949754
0.949769
0.949763
0.936503
0.93651
0.936549
0.936629
0.936767
0.936993
0.937345
0.93787
0.93862
0.939634
0.940735
0.941643
0.942304
0.942757
0.943053
0.943235
0.94334
0.943394
0.943415
0.943408
0.92845
0.928458
0.928508
0.92861
0.928792
0.929089
0.929552
0.93024
0.931217
0.932526
0.933927
0.935068
0.935892
0.936456
0.936823
0.937051
0.937183
0.937251
0.937278
0.937271
0.920124
0.920133
0.920198
0.920331
0.920566
0.920953
0.921554
0.922448
0.923711
0.925392
0.927179
0.928624
0.929663
0.930371
0.930833
0.931119
0.931285
0.931372
0.931406
0.931398
0.911439
0.91145
0.911535
0.911707
0.912012
0.912514
0.913294
0.914449
0.916078
0.918235
0.920514
0.92235
0.923664
0.924559
0.925142
0.925502
0.925712
0.925822
0.925867
0.925857
0.902284
0.9023
0.90241
0.902634
0.903031
0.903683
0.904694
0.906188
0.908286
0.911053
0.913961
0.916293
0.917958
0.91909
0.919826
0.920283
0.920547
0.920685
0.920741
0.920728
0.892515
0.892536
0.89268
0.892973
0.893493
0.894343
0.895657
0.897592
0.900296
0.903844
0.907551
0.910511
0.912619
0.91405
0.914979
0.915555
0.915889
0.916064
0.916134
0.916118
0.881936
0.881966
0.882157
0.882544
0.883227
0.88434
0.886055
0.888568
0.89206
0.896609
0.90133
0.905082
0.907747
0.909552
0.910724
0.91145
0.911871
0.91209
0.912179
0.912157
0.870285
0.870328
0.870585
0.871101
0.872006
0.873476
0.875728
0.879006
0.883523
0.889353
0.895355
0.900098
0.903459
0.905734
0.90721
0.908122
0.908652
0.908928
0.909038
0.909011
0.857194
0.857259
0.85761
0.858308
0.859524
0.861485
0.864467
0.868765
0.874621
0.882088
0.889695
0.89567
0.899895
0.902754
0.904609
0.905758
0.906424
0.90677
0.906909
0.906874
0.842141
0.842243
0.842734
0.843697
0.845361
0.848018
0.85201
0.857684
0.865294
0.87484
0.884438
0.891929
0.89722
0.900807
0.90314
0.904588
0.905429
0.905867
0.906042
0.905997
0.824348
0.824516
0.825228
0.826599
0.828935
0.83261
0.838035
0.845592
0.8555
0.867661
0.87969
0.889018
0.895615
0.90011
0.903053
0.904889
0.90596
0.906519
0.906743
0.906687
0.802597
0.802894
0.80398
0.806024
0.809431
0.814664
0.822182
0.832337
0.84524
0.860633
0.875563
0.887071
0.895249
0.900882
0.904618
0.906978
0.908371
0.909106
0.909404
0.909336
0.774852
0.775417
0.77721
0.780481
0.785738
0.793484
0.804126
0.817868
0.83461
0.853888
0.872166
0.886182
0.896237
0.903298
0.908102
0.911224
0.913116
0.914139
0.914564
0.914489
0.73739
0.738586
0.741999
0.747855
0.756575
0.768501
0.783798
0.80238
0.82387
0.847623
0.869591
0.886365
0.89857
0.907393
0.913655
0.91795
0.920725
0.922326
0.923031
0.922963
0.682326
0.685943
0.694163
0.705961
0.721209
0.739859
0.761741
0.786484
0.813508
0.842102
0.867873
0.887485
0.902002
0.912878
0.921039
0.927105
0.931484
0.934446
0.936029
0.936067
0.591039
0.612374
0.63315
0.656207
0.681486
0.709146
0.739038
0.770719
0.803615
0.83712
0.866636
0.889101
0.906114
0.919402
0.930036
0.938722
0.945949
0.951983
0.957016
0.960131
0.497754
0.540118
0.573532
0.607786
0.643161
0.679763
0.717429
0.755789
0.794318
0.832512
0.865633
0.890878
0.910337
0.926017
0.939072
0.950239
0.959998
0.968538
0.97735
0.983744
0.43886
0.483405
0.52412
0.566327
0.609661
0.653825
0.698371
0.742704
0.786105
0.827946
0.863312
0.889895
0.910354
0.926891
0.940639
0.95227
0.962228
0.970803
0.979052
0.984188
0.395242
0.442612
0.486872
0.533519
0.58213
0.631968
0.682103
0.731459
0.778857
0.823293
0.859594
0.886129
0.906246
0.92239
0.935755
0.947009
0.9566
0.9648
0.972614
0.977351
0.360498
0.409646
0.456854
0.507107
0.559886
0.614261
0.668969
0.722471
0.773022
0.818985
0.85489
0.880054
0.898709
0.913596
0.925973
0.936468
0.94547
0.95324
0.960532
0.964886
0.331337
0.382206
0.431839
0.485087
0.541418
0.599693
0.658379
0.715465
0.768558
0.815198
0.84953
0.872098
0.888254
0.901122
0.911988
0.9214
0.929629
0.936871
0.943641
0.947654
0.305814
0.358388
0.410198
0.46618
0.525711
0.587536
0.649864
0.710229
0.765526
0.812248
0.84397
0.862718
0.875284
0.885303
0.894096
0.902059
0.909323
0.915921
0.922143
0.9259
0.282424
0.336873
0.390732
0.449315
0.511886
0.57711
0.642946
0.706528
0.763953
0.810448
0.8387
0.852364
0.860115
0.866292
0.872317
0.878418
0.884467
0.890358
0.895815
0.899408
0.260576
0.316591
0.372576
0.433715
0.499264
0.567825
0.637192
0.704091
0.763828
0.81013
0.834272
0.841542
0.843015
0.844117
0.846482
0.850118
0.85458
0.859461
0.864426
0.867722
0.239096
0.297025
0.355092
0.418774
0.487273
0.559197
0.632183
0.70264
0.765084
0.81158
0.831287
0.830842
0.824297
0.818761
0.816294
0.816712
0.819153
0.822823
0.827121
0.830141
0.217982
0.277641
0.337852
0.404041
0.475509
0.5508
0.627532
0.701839
0.767581
0.815008
0.83042
0.821005
0.804373
0.790171
0.781362
0.777569
0.77743
0.779597
0.783113
0.785846
0.196619
0.258184
0.320488
0.389185
0.4636
0.542304
0.622882
0.70137
0.771078
0.82054
0.832331
0.81294
0.783797
0.758321
0.741148
0.731895
0.728473
0.728819
0.731399
0.733868
0.175006
0.238495
0.302859
0.374022
0.45133
0.533422
0.617928
0.700861
0.77523
0.828107
0.837656
0.807747
0.76333
0.723171
0.694959
0.678648
0.671245
0.669206
0.670954
0.673268
0.152701
0.218332
0.284802
0.358402
0.438555
0.523981
0.612402
0.699966
0.779648
0.837486
0.846891
0.806731
0.744025
0.684601
0.641671
0.616318
0.604189
0.600356
0.601185
0.603511
0.130013
0.197795
0.266334
0.342312
0.425216
0.513856
0.606136
0.698397
0.783872
0.848212
0.860278
0.811315
0.727289
0.64225
0.579352
0.542572
0.526121
0.52117
0.521741
0.524511
0.106951
0.176887
0.247471
0.325772
0.411304
0.503005
0.598996
0.695885
0.787446
0.859659
0.877674
0.822988
0.715185
0.595345
0.50301
0.453635
0.434782
0.430985
0.433516
0.437883
0.083781
0.155767
0.228317
0.308841
0.39688
0.491465
0.590909
0.692277
0.789966
0.871048
0.898494
0.842982
0.710526
0.543881
0.405484
0.338348
0.32335
0.329816
0.340133
0.34849
0.0606532
0.134562
0.209023
0.291651
0.382035
0.479291
0.581942
0.687469
0.791109
0.881577
0.921546
0.871907
0.717102
0.483568
0.269825
0.17293
0.1808
0.21991
0.252913
0.270258
0.0372308
0.113366
0.189736
0.27437
0.366887
0.466551
0.572121
0.681453
0.790665
0.890488
0.945204
0.909122
0.73979
0.417799
0.0559765
-0.104107
-0.0228255
0.114054
0.206489
0.240442
0.0141442
0.0923245
0.170617
0.257157
0.351595
0.453409
0.561557
0.67427
0.788466
0.897153
0.967592
0.95217
0.783009
0.349211
-0.337911
-0.690254
-0.379982
0.0365479
0.248589
0.285698
-0.00896105
0.0716168
0.151839
0.240033
0.336184
0.439953
0.550356
0.665939
0.784508
0.90121
0.987147
0.997547
0.849436
0.285082
-1.11671
-1.98614
-1.02062
-0.0744428
0.407501
0.565017
-0.0319471
0.051418
0.133481
0.222934
0.320423
0.425875
0.538215
0.65619
0.778435
0.902147
1.00262
1.04123
0.936602
0.303991
-1.63404
-3.09783
-1.84674
-0.559381
-0.037441
0.0707864
-0.0544473
0.0323739
0.115794
0.206095
0.304664
0.411527
0.525232
0.645292
0.770463
0.899574
1.01147
1.07356
1.01527
0.507226
-1.08658
-2.16012
-1.58023
-0.941198
-0.508877
-0.246061
-0.0771098
0.0157559
0.0996233
0.190176
0.28964
0.397527
0.511808
0.633502
0.761005
0.893908
1.01301
1.08905
1.0613
0.72909
-0.211519
-0.866548
-0.752891
-0.548691
-0.421784
-0.310431
-0.189425
0.00218733
0.0840069
0.174047
0.273972
0.382539
0.49825
0.621006
0.749504
0.884191
1.00646
1.09049
1.09115
0.871028
0.326183
-0.109892
-0.311146
-0.318188
-0.300071
-0.276024
-0.0295786
-0.0143989
0.0600702
0.14982
0.250661
0.360392
0.476919
0.600681
0.72941
0.86353
0.983245
1.0575
1.04854
0.891075
0.562875
0.219112
-0.0280452
-0.175665
-0.279329
-0.300952
-0.103041
-0.0363628
0.0398875
0.130603
0.232412
0.342833
0.460534
0.584078
0.712026
0.843865
0.957748
1.02164
1.00595
0.863766
0.588713
0.26088
-0.00981237
-0.209191
-0.367045
-0.397873
-0.143513
-0.0666412
0.0153527
0.108569
0.21167
0.322825
0.440837
0.564648
0.693796
0.825335
0.933427
0.985414
0.954726
0.810329
0.560698
0.230369
-0.0748287
-0.334905
-0.57862
-0.591636
-0.185168
-0.0986244
-0.010891
0.0853849
0.189734
0.302316
0.42205
0.546892
0.673726
0.799161
0.898015
0.937541
0.895238
0.744667
0.496242
0.150027
-0.215797
-0.560738
-0.951587
-0.986132
-0.224457
-0.130949
-0.0386616
0.060597
0.167195
0.28121
0.400768
0.524452
0.65073
0.77499
0.86852
0.898698
0.84748
0.697037
0.450073
0.101219
-0.349602
-0.810594
-1.37641
-1.80193
-0.261134
-0.163708
-0.0679537
0.033784
0.142613
0.258114
0.37932
0.504371
0.629899
0.749624
0.835406
0.857734
0.801746
0.656233
0.406927
0.0763015
-0.405176
-1.00417
-1.41045
-1.89435
-0.296712
-0.197254
-0.0988066
0.00590627
0.117133
0.234238
0.355963
0.480221
0.604041
0.721116
0.802644
0.821198
0.76722
0.634285
0.404083
0.0970635
-0.319282
-0.856185
-1.25963
-1.30636
-0.330735
-0.230691
-0.13059
-0.0242566
0.0885518
0.206943
0.329738
0.4546
0.57806
0.69285
0.770803
0.788184
0.741454
0.62827
0.448717
0.190746
-0.137611
-0.560807
-0.927127
-0.916032
-0.363413
-0.26422
-0.163796
-0.0558961
0.0586996
0.178592
0.302327
0.427416
0.550276
0.663576
0.740239
0.760536
0.726927
0.645553
0.523199
0.359622
0.155786
-0.0612534
-0.175585
-0.154456
-0.397009
-0.298422
-0.197818
-0.088893
0.026886
0.148032
0.272954
0.398872
0.521999
0.634986
0.712577
0.739527
0.723857
0.678021
0.61578
0.549409
0.491596
0.461921
0.472947
0.498283
-0.433535
-0.334842
-0.233953
-0.123921
-0.0066292
0.11624
0.242639
0.369708
0.493489
0.607523
0.688256
0.725146
0.72935
0.715868
0.699029
0.690436
0.697638
0.724978
0.764704
0.783744
-0.474257
-0.373778
-0.271627
-0.160093
-0.0410854
0.0835914
0.21162
0.340115
0.465289
0.581742
0.667789
0.716497
0.739894
0.752245
0.764508
0.783104
0.809815
0.842514
0.874951
0.890092
-0.518373
-0.415383
-0.310872
-0.197299
-0.0762739
0.0504265
0.180305
0.310622
0.437937
0.557869
0.651151
0.711851
0.752046
0.783424
0.813224
0.844264
0.876351
0.907589
0.935013
0.948444
-0.564064
-0.458264
-0.350922
-0.234964
-0.111624
0.0172138
0.149185
0.281703
0.411809
0.536018
0.638148
0.710065
0.763698
0.808424
0.84872
0.88618
0.920696
0.951625
0.977687
0.98979
-0.609628
-0.500941
-0.390806
-0.272271
-0.146509
-0.0153886
0.118893
0.253903
0.38722
0.516687
0.62671
0.709058
0.773226
0.827008
0.873723
0.914769
0.950565
0.981388
1.00667
1.01819
-0.652721
-0.541856
-0.429237
-0.308132
-0.179976
-0.0465497
0.0900557
0.227686
0.364439
0.49931
0.616581
0.707698
0.779685
0.839458
0.890101
0.93316
0.969637
1.00026
1.02488
1.03628
-0.692004
-0.579319
-0.464449
-0.341184
-0.210859
-0.0753351
0.0634225
0.203518
0.343529
0.483226
0.607098
0.704911
0.782418
0.846078
0.898997
0.943159
0.979859
1.01029
1.03416
1.04544
-0.725534
-0.611582
-0.494844
-0.369738
-0.237793
-0.100647
0.0397678
0.181771
0.32439
0.468031
0.596991
0.699603
0.780852
0.846858
0.90107
0.945671
0.982363
1.01253
1.03559
1.04712
-0.750588
-0.636122
-0.518145
-0.392052
-0.259142
-0.121237
0.0198711
0.162846
0.306975
0.453083
0.585373
0.69093
0.774347
0.841628
0.896404
0.941129
0.977654
1.00751
1.02992
1.04162
-0.763944
-0.649872
-0.531787
-0.405719
-0.273102
-0.13579
0.00470213
0.147109
0.291086
0.437782
0.57129
0.677986
0.762174
0.829864
0.884739
0.929381
0.965717
0.995356
1.01736
1.02906
-0.762138
-0.648963
-0.532209
-0.407787
-0.277335
-0.142559
-0.00485403
0.134891
0.276565
0.421453
0.553793
0.659719
0.743351
0.810618
0.865174
0.909593
0.945764
0.975202
0.996804
1.00861
-0.738115
-0.629274
-0.515347
-0.394831
-0.269086
-0.13964
-0.00753235
0.126683
0.263232
0.403448
0.531894
0.634884
0.716429
0.782264
0.83594
0.879875
0.915861
0.945303
0.966883
0.97863
-0.683596
-0.58241
-0.475206
-0.362429
-0.245369
-0.125181
-0.00236506
0.122908
0.251024
0.383202
0.504611
0.602083
0.679472
0.742306
0.793987
0.836708
0.872087
0.90133
0.92287
0.935021
-0.590807
-0.499512
-0.405733
-0.306389
-0.20367
-0.0977441
0.011353
0.123745
0.239785
0.360308
0.471194
0.559984
0.630315
0.687485
0.734773
0.774233
0.807206
0.834945
0.857373
0.869949
-0.440232
-0.374357
-0.301724
-0.22471
-0.143229
-0.0571239
0.0337653
0.12942
0.229801
0.335019
0.431733
0.508331
0.567946
0.615499
0.654148
0.685848
0.711493
0.731516
0.747237
0.755772
-0.217823
-0.195007
-0.161162
-0.118355
-0.066587
-0.00602782
0.0628769
0.139635
0.223579
0.31392
0.397795
0.463789
0.514114
0.552793
0.582604
0.60573
0.624171
0.639141
0.650247
0.655261
-0.0510588
-0.0462393
-0.035712
-0.0175444
0.00979461
0.0472854
0.0952402
0.153366
0.22087
0.296497
0.368207
0.424598
0.466767
0.498108
0.521066
0.537337
0.548063
0.554407
0.557684
0.558975
0.0332524
0.0350427
0.0404105
0.0506169
0.0670277
0.091174
0.124408
0.167496
0.220376
0.282035
0.341741
0.388708
0.423227
0.448015
0.465248
0.476762
0.484106
0.488461
0.490637
0.491314
0.083301
0.0846018
0.0879749
0.0944717
0.105375
0.122078
0.145956
0.17816
0.219242
0.268723
0.317576
0.356097
0.384097
0.403848
0.417332
0.426179
0.431671
0.434816
0.436388
0.436935
0.116041
0.117043
0.119469
0.124017
0.131649
0.143552
0.161033
0.185302
0.217153
0.256487
0.295953
0.327183
0.349751
0.36549
0.376081
0.382932
0.38715
0.389573
0.3908
0.39124
0.137154
0.13791
0.139693
0.143009
0.148584
0.157351
0.170399
0.188847
0.213554
0.244646
0.276258
0.30138
0.319485
0.332037
0.340432
0.345833
0.349146
0.351046
0.352011
0.352358
0.150146
0.150721
0.152061
0.154538
0.158701
0.165279
0.175158
0.189294
0.20849
0.232991
0.258168
0.278263
0.292735
0.302741
0.309409
0.313687
0.316308
0.31781
0.318574
0.318849
0.157195
0.157636
0.158654
0.160531
0.16369
0.168695
0.176251
0.187148
0.202092
0.221366
0.241338
0.257345
0.26888
0.276847
0.28215
0.285546
0.287624
0.288816
0.289422
0.289639
0.159809
0.160149
0.16093
0.162368
0.164788
0.168629
0.17445
0.182891
0.194547
0.209697
0.2255
0.238211
0.247382
0.253715
0.257927
0.260626
0.262278
0.263224
0.263703
0.263874
0.159061
0.159324
0.159926
0.161035
0.162903
0.165871
0.170379
0.176942
0.186048
0.197951
0.210432
0.220503
0.22778
0.232808
0.236152
0.238292
0.239599
0.240347
0.240728
0.240863
0.155743
0.155947
0.156414
0.157274
0.158721
0.161024
0.16453
0.169644
0.176767
0.186119
0.195964
0.203931
0.209694
0.213678
0.216327
0.218023
0.219061
0.219654
0.219953
0.220058
0.150443
0.150601
0.150964
0.151632
0.152758
0.154551
0.157283
0.161279
0.166857
0.174204
0.181962
0.188254
0.19281
0.195963
0.198061
0.199403
0.200222
0.200692
0.20093
0.201013
0.143607
0.143731
0.144014
0.144535
0.145413
0.146811
0.148945
0.152069
0.15644
0.16221
0.168318
0.173282
0.176882
0.179372
0.18103
0.182092
0.182742
0.183112
0.183299
0.183364
0.135579
0.135676
0.135896
0.136302
0.136988
0.138081
0.139749
0.142194
0.14562
0.150151
0.154957
0.158868
0.161707
0.163673
0.164982
0.165818
0.166327
0.166618
0.166766
0.166817
0.126621
0.126696
0.126869
0.127186
0.127722
0.128577
0.129881
0.131794
0.134479
0.138035
0.141813
0.144891
0.147126
0.148673
0.149703
0.150363
0.150767
0.150998
0.151114
0.151154
0.116937
0.116996
0.117131
0.117379
0.117798
0.118465
0.119486
0.120984
0.123088
0.125875
0.128842
0.131259
0.133015
0.134232
0.135044
0.135563
0.13588
0.136061
0.136153
0.136184
0.106688
0.106734
0.106839
0.107032
0.107359
0.107881
0.108678
0.109848
0.111493
0.113675
0.115999
0.117895
0.119275
0.120232
0.120868
0.121274
0.121522
0.121663
0.121733
0.121757
0.095997
0.0960327
0.0961145
0.0962652
0.0965195
0.0969258
0.0975474
0.0984599
0.0997429
0.101447
0.103263
0.104746
0.105825
0.106573
0.10707
0.107389
0.107583
0.107693
0.107749
0.107769
0.0849618
0.0849894
0.0850528
0.0851695
0.0853664
0.0856818
0.0861647
0.0868743
0.0878715
0.089196
0.090607
0.091759
0.092596
0.093176
0.0935628
0.0938109
0.0939632
0.0940502
0.0940932
0.0941077
0.0736601
0.0736811
0.0737296
0.0738201
0.0739728
0.0742155
0.0745864
0.0751323
0.0759
0.0769205
0.0780092
0.0788995
0.079548
0.0799989
0.0802994
0.0804905
0.080606
0.0806721
0.0807056
0.0807169
0.0621513
0.0621679
0.0622057
0.0622746
0.0623903
0.062575
0.0628577
0.0632732
0.0638574
0.0646339
0.0654628
0.0661405
0.0666343
0.0669759
0.0672025
0.0673489
0.0674389
0.0674897
0.0675155
0.0675247
0.0504889
0.0505007
0.0505284
0.0505796
0.050666
0.0508041
0.0510149
0.0513241
0.0517591
0.052337
0.0529531
0.0534563
0.0538222
0.0540763
0.0542459
0.054354
0.0544201
0.054458
0.0544765
0.0544826
0.0387081
0.0387171
0.0387375
0.0387749
0.038837
0.0389355
0.0390855
0.0393058
0.0396156
0.0400272
0.040467
0.0408277
0.041092
0.0412763
0.0413987
0.0414765
0.0415235
0.0415503
0.041564
0.0415686
0.026848
0.0268561
0.0268704
0.0268953
0.0269363
0.0270016
0.0271007
0.027245
0.0274474
0.0277168
0.0280054
0.028242
0.0284131
0.0285319
0.0286126
0.0286659
0.0286985
0.0287165
0.0287252
0.0287285
0.0149358
0.0149395
0.0149485
0.0149623
0.0149862
0.0150217
0.0150746
0.0151518
0.0152601
0.0154032
0.0155556
0.0156803
0.0157717
0.0158348
0.0158755
0.0159011
0.0159177
0.0159285
0.015935
0.0159378
0.00298581
0.00298457
0.00298383
0.00298525
0.00298789
0.00299221
0.00299991
0.00301186
0.00302923
0.00305366
0.00308458
0.00311365
0.00313565
0.00315116
0.00316303
0.00317164
0.00317715
0.00318054
0.00318275
0.00318419
-0.822179
-0.626593
-0.444866
-0.329728
-0.243222
-0.167409
-0.066819
0.105412
0.361618
0.352661
-0.502304
-0.373684
-0.269695
-0.175683
-0.0872533
0.00765829
0.118559
0.235882
0.326691
0.320148
-0.2547
-0.172535
-0.0943675
-0.016098
0.0608844
0.138774
0.214317
0.276945
0.311775
0.323086
-0.0586331
-0.00153556
0.056987
0.116706
0.17429
0.228295
0.275111
0.31021
0.333553
0.352856
0.0948537
0.135439
0.177939
0.22095
0.261363
0.297789
0.329026
0.353897
0.375112
0.395926
0.215535
0.243831
0.275652
0.306691
0.335601
0.361996
0.385535
0.40622
0.425544
0.445999
0.314519
0.336154
0.359426
0.382713
0.40484
0.42568
0.445056
0.462878
0.479717
0.497888
0.400416
0.417139
0.435455
0.453993
0.472242
0.489812
0.506007
0.520745
0.534241
0.547078
0.479609
0.493021
0.509386
0.526453
0.543251
0.558389
0.571118
0.581044
0.586542
0.588902
0.547483
0.561778
0.578596
0.595227
0.61076
0.624223
0.63469
0.640366
0.640279
0.636914
0.607272
0.630178
0.656736
0.682181
0.704214
0.720781
0.730444
0.731485
0.724127
0.720738
0.697496
0.743679
0.780131
0.804745
0.821651
0.834011
0.843332
0.849326
0.849049
0.855741
0.85407
0.88062
0.899683
0.917489
0.934582
0.949608
0.962128
0.973608
0.988533
1.00745
1.05407
1.06583
1.07973
1.09231
1.10177
1.11006
1.11884
1.12887
1.13928
1.15397
1.26051
1.26488
1.25184
1.23814
1.23204
1.23779
1.25634
1.28551
1.31567
1.34177
1.56881
1.43458
1.3576
1.3148
1.29742
1.30139
1.32793
1.38391
1.48678
1.71088
1.05758
1.06015
1.05897
1.05201
1.04178
1.03145
1.02235
1.01488
1.00917
1.00551
1.00481
1.00741
1.01233
1.01908
1.02748
1.03735
1.04791
1.05704
1.06101
1.05839
1.0003
1.00439
1.00858
1.01042
1.01034
1.00855
1.00519
1.0011
0.997254
0.994601
0.994081
0.996064
0.999629
1.00386
1.0078
1.0105
1.01145
1.01067
1.00773
1.00294
1.00195
1.00294
1.00472
1.00619
1.0069
1.00658
1.00522
1.0032
1.00095
0.999256
0.99898
1.00038
1.00267
1.00507
1.00692
1.00791
1.00771
1.00661
1.00489
1.00337
0.993937
0.993962
0.994046
0.994153
0.994147
0.993888
0.993268
0.992236
0.991024
0.990051
0.989961
0.990953
0.992392
0.993739
0.994701
0.995204
0.995384
0.995338
0.995234
0.995184
0.98631
0.986383
0.986485
0.986562
0.986558
0.986408
0.986063
0.985519
0.984872
0.984372
0.984426
0.985142
0.986093
0.986948
0.987557
0.9879
0.988029
0.988018
0.987935
0.987847
0.978562
0.978592
0.978634
0.978666
0.978668
0.978612
0.978471
0.978238
0.977967
0.977804
0.97799
0.978561
0.979219
0.979776
0.980162
0.980387
0.980491
0.980518
0.980502
0.980473
0.970976
0.970991
0.971017
0.971041
0.971055
0.97105
0.971019
0.970966
0.970925
0.970993
0.971301
0.971821
0.972344
0.972765
0.973056
0.973233
0.973324
0.973359
0.97336
0.973347
0.963427
0.963433
0.963453
0.963478
0.96351
0.963548
0.963598
0.963671
0.963797
0.964043
0.964476
0.965017
0.965497
0.965865
0.966118
0.966275
0.966363
0.966403
0.966413
0.966408
0.955862
0.955867
0.955882
0.955912
0.955959
0.956035
0.956149
0.956323
0.956589
0.956995
0.957571
0.958189
0.95869
0.959066
0.95932
0.959479
0.95957
0.959616
0.959634
0.959633
0.948213
0.948213
0.948233
0.948273
0.948342
0.948455
0.948633
0.948903
0.949303
0.949878
0.950627
0.951369
0.951953
0.952369
0.95265
0.952828
0.952933
0.952989
0.953012
0.953015
0.940448
0.940447
0.940469
0.94052
0.940612
0.940767
0.941012
0.941386
0.941934
0.942702
0.943666
0.944591
0.945293
0.94579
0.946123
0.946334
0.94646
0.946529
0.946561
0.946567
0.932507
0.932503
0.932531
0.932596
0.932717
0.932921
0.933247
0.933744
0.934467
0.93547
0.936707
0.93787
0.938742
0.939356
0.939766
0.940026
0.940183
0.940269
0.940309
0.940318
0.924326
0.924321
0.924357
0.924441
0.924598
0.924865
0.925291
0.925938
0.926878
0.928174
0.929759
0.931234
0.932331
0.933099
0.933612
0.933938
0.934134
0.934243
0.934294
0.934307
0.915833
0.915826
0.915872
0.91598
0.916184
0.91653
0.917083
0.917922
0.919138
0.920807
0.922835
0.924711
0.9261
0.92707
0.927715
0.928126
0.928373
0.928511
0.928576
0.928592
0.906928
0.90692
0.906979
0.90712
0.907385
0.907835
0.908552
0.909638
0.911208
0.913353
0.915948
0.918337
0.920097
0.921324
0.922141
0.92266
0.922973
0.923146
0.923229
0.923249
0.897487
0.897477
0.897555
0.897739
0.898084
0.89867
0.899601
0.90101
0.903036
0.905794
0.909112
0.912152
0.914385
0.915938
0.91697
0.917625
0.918019
0.918238
0.918343
0.918368
0.887341
0.887328
0.887431
0.887674
0.888126
0.888893
0.890108
0.891938
0.89456
0.898108
0.902348
0.906213
0.909041
0.911003
0.912306
0.913133
0.91363
0.913906
0.914038
0.914069
0.876265
0.876249
0.876388
0.876709
0.877308
0.878318
0.879913
0.882302
0.885702
0.890269
0.895684
0.900587
0.904163
0.906639
0.908281
0.909322
0.909948
0.910295
0.91046
0.910499
0.863948
0.863931
0.86412
0.864553
0.865354
0.866697
0.868806
0.871943
0.876369
0.882252
0.889156
0.895359
0.899865
0.902982
0.905048
0.906359
0.907146
0.907582
0.907789
0.907838
0.849954
0.849937
0.850199
0.850795
0.851884
0.853697
0.856518
0.860669
0.866454
0.874036
0.882814
0.890631
0.896289
0.9002
0.902795
0.904444
0.905436
0.905985
0.906246
0.906307
0.833651
0.833639
0.834016
0.834855
0.836372
0.838866
0.842698
0.84825
0.855848
0.865617
0.876731
0.886521
0.893588
0.898483
0.901743
0.903822
0.905077
0.905775
0.906106
0.906182
0.814075
0.814082
0.814652
0.815883
0.818066
0.821596
0.826911
0.834435
0.844465
0.857024
0.870998
0.883158
0.891926
0.898034
0.902138
0.904778
0.906383
0.907279
0.907708
0.907809
0.789664
0.789729
0.790662
0.792581
0.795888
0.801086
0.808664
0.819009
0.83229
0.848351
0.865735
0.880661
0.891437
0.89903
0.904218
0.907618
0.909722
0.910917
0.911499
0.911645
0.757562
0.757834
0.7596
0.762917
0.768327
0.776392
0.787521
0.801905
0.819459
0.839781
0.861082
0.879112
0.892182
0.901562
0.908157
0.912639
0.915522
0.91723
0.918106
0.918367
0.711859
0.712973
0.717245
0.723897
0.733576
0.746707
0.763354
0.783343
0.806278
0.83155
0.857127
0.878459
0.894026
0.905474
0.91386
0.919897
0.924094
0.926858
0.928511
0.929185
0.643187
0.646566
0.658285
0.672774
0.690833
0.712342
0.736898
0.764057
0.793278
0.82391
0.853839
0.878437
0.896529
0.910202
0.920693
0.928795
0.935046
0.939871
0.943735
0.945328
0.554042
0.564896
0.589567
0.616968
0.646442
0.67778
0.710835
0.745339
0.78084
0.816775
0.851025
0.879008
0.899922
0.916275
0.929466
0.940309
0.94935
0.956978
0.963232
0.965417
0.472292
0.493124
0.528634
0.566534
0.605714
0.645923
0.686941
0.728403
0.769768
0.810438
0.84824
0.878679
0.901441
0.919472
0.934291
0.946721
0.957185
0.965969
0.973154
0.976781
0.42206
0.444045
0.483295
0.52644
0.571848
0.618657
0.666123
0.713482
0.759851
0.804331
0.844467
0.875945
0.899144
0.917401
0.932336
0.944771
0.955155
0.963783
0.970764
0.974492
0.382379
0.40596
0.448283
0.495133
0.544859
0.596492
0.649021
0.701234
0.751727
0.79906
0.840297
0.871404
0.893719
0.911072
0.925234
0.937051
0.94696
0.955223
0.961955
0.965798
0.350197
0.374826
0.419535
0.469372
0.522673
0.578349
0.63514
0.691451
0.745349
0.794717
0.835934
0.865363
0.885622
0.901153
0.913878
0.924636
0.933796
0.94155
0.947964
0.951856
0.322349
0.348217
0.395091
0.447574
0.503993
0.563209
0.623786
0.683758
0.74063
0.79147
0.831738
0.858262
0.875319
0.888109
0.898745
0.908009
0.916161
0.923244
0.929268
0.933113
0.297489
0.324514
0.373457
0.42842
0.487725
0.55026
0.614368
0.677807
0.737472
0.789492
0.828124
0.850587
0.863219
0.872226
0.880018
0.887298
0.894123
0.900368
0.905898
0.909605
0.27444
0.302693
0.353572
0.41093
0.473051
0.538758
0.606349
0.67323
0.735748
0.788965
0.825544
0.842855
0.849695
0.85369
0.857694
0.862346
0.867463
0.872657
0.87756
0.881094
0.252499
0.281886
0.334702
0.39441
0.459284
0.528167
0.599231
0.669679
0.735293
0.790003
0.824467
0.835668
0.835182
0.832636
0.831642
0.832828
0.835706
0.839541
0.843693
0.846955
0.230837
0.261479
0.316253
0.378317
0.44593
0.517974
0.592601
0.666783
0.73589
0.792662
0.825377
0.829719
0.820215
0.809212
0.801655
0.798287
0.798257
0.800363
0.803574
0.806528
0.209248
0.241061
0.297867
0.36226
0.432601
0.507826
0.586048
0.664196
0.737237
0.796909
0.828672
0.825814
0.805466
0.783646
0.767464
0.758129
0.754319
0.75423
0.756269
0.758817
0.187447
0.220544
0.27931
0.345979
0.419024
0.497409
0.57929
0.661565
0.739026
0.802542
0.834718
0.824881
0.791847
0.756254
0.72873
0.711558
0.702946
0.700143
0.700781
0.702922
0.165323
0.19963
0.260381
0.329332
0.405033
0.486529
0.572043
0.658558
0.74086
0.809283
0.843632
0.827877
0.780539
0.727451
0.684927
0.657475
0.642839
0.636914
0.636101
0.63799
0.142619
0.178303
0.24103
0.312221
0.390525
0.475058
0.564141
0.654926
0.742354
0.816664
0.855358
0.835747
0.773028
0.697822
0.635132
0.594003
0.572403
0.56343
0.561721
0.563214
0.119659
0.156607
0.221302
0.294674
0.375496
0.462941
0.555457
0.650423
0.743152
0.82416
0.869521
0.849258
0.771203
0.66813
0.577238
0.518006
0.489395
0.479005
0.477459
0.479563
0.0963661
0.134595
0.201254
0.276776
0.359992
0.45018
0.545971
0.644962
0.742935
0.831165
0.885439
0.868806
0.777295
0.639779
0.507051
0.423018
0.387892
0.380439
0.383881
0.389674
0.0731736
0.112496
0.181035
0.258616
0.344135
0.436877
0.535655
0.638432
0.741465
0.837134
0.902094
0.894152
0.793813
0.614786
0.419637
0.29324
0.255006
0.265019
0.286271
0.302464
0.0497832
0.0903626
0.160738
0.240316
0.327984
0.423108
0.524649
0.630852
0.738615
0.841561
0.918339
0.924182
0.823002
0.597549
0.302449
0.0927433
0.0602802
0.128903
0.20113
0.238219
0.0264179
0.0682969
0.140561
0.222048
0.31169
0.40898
0.513044
0.622328
0.734336
0.844105
0.932974
0.956756
0.865842
0.595326
0.131135
-0.271321
-0.276786
-0.0490967
0.14984
0.235775
0.0031969
0.0464182
0.120691
0.204044
0.295433
0.39462
0.500911
0.612943
0.72873
0.844558
0.944919
0.988904
0.920426
0.617473
-0.144826
-1.07831
-1.00441
-0.28578
0.197881
0.379213
-0.0198878
0.0247722
0.101201
0.186203
0.279071
0.379911
0.488093
0.602444
0.72155
0.842767
0.953778
1.01893
0.984283
0.681939
-0.486398
-2.49177
-2.26155
-0.747182
0.110327
0.397445
-0.0427381
0.00367007
0.0825191
0.168677
0.262637
0.364841
0.474675
0.590879
0.712676
0.838312
0.958359
1.04263
1.04393
0.788587
-0.383992
-2.46154
-2.44877
-1.36143
-0.601994
-0.255739
-0.0652666
-0.0159927
0.0648894
0.15151
0.246152
0.349372
0.460674
0.578478
0.702138
0.830811
0.957671
1.05624
1.08541
0.90912
0.0833045
-1.22095
-1.33656
-0.928576
-0.614356
-0.400193
-0.0911979
-0.0314303
0.0486563
0.134745
0.229842
0.333998
0.445872
0.565282
0.690327
0.82093
0.951347
1.05708
1.1013
0.993657
0.498545
-0.215688
-0.496516
-0.459922
-0.364544
-0.324833
-0.0295384
-0.00419958
0.0728212
0.162524
0.262783
0.371917
0.490183
0.613369
0.742228
0.876948
0.999219
1.08231
1.08518
0.903939
0.466063
0.0810021
-0.136822
-0.236228
-0.270005
-0.273478
-0.0580273
-0.0377283
0.0250391
0.108004
0.203533
0.308758
0.422323
0.54275
0.669005
0.800994
0.931932
1.03618
1.08075
1.00907
0.74061
0.353284
0.0519495
-0.126015
-0.224853
-0.289175
-0.0824683
-0.0529983
0.010733
0.0934113
0.189304
0.29486
0.407996
0.528664
0.655555
0.787571
0.916129
1.01334
1.04619
0.970528