/*--------------------------------*- C++ -*----------------------------------*\
  =========                 |
  \\      /  F ield         | OpenFOAM: The Open Source CFD Toolbox
   \\    /   O peration     | Website:  https://openfoam.org
    \\  /    A nd           | Version:  7
     \\/     M anipulation  |
\*---------------------------------------------------------------------------*/
FoamFile
{
    version     2.0;
    format      ascii;
    class       surfaceScalarField;
    location    "2";
    object      phi;
}
// * * * * * * * * * * * * * * * * * * * * * * * * * * * * * * * * * * * * * //

dimensions      [0 3 -1 0 0 0 0];

internalField   nonuniform List<scalar> 
17370
(
-0.0896967
0.0939094
0.284798
-0.0764609
0.0589239
0.364312
-0.0431147
0.0322495
0.427033
-0.0234351
0.0176283
0.505059
-0.0130372
0.0100687
0.602371
-0.00769837
0.00613513
0.720621
-0.0048147
0.00388909
0.863832
-0.00303978
0.00238762
1.0361
-0.00172265
0.00115423
1.24307
-0.000536684
-2.79667e-05
1.49176
0.000623301
-0.00123751
1.49181
0.00179723
-0.00244722
1.24334
0.00309303
-0.00393349
1.03648
0.00485643
-0.0061701
0.86422
0.00773109
-0.0100997
0.721426
0.0130651
-0.0176504
0.6038
0.0234517
-0.032262
0.50825
0.0431252
-0.0589366
0.431979
0.0764764
-0.0939226
0.364222
0.0897031
0.199308
-0.139923
0.114987
0.0249355
-0.36264
0.358369
-0.0401846
0.044455
-0.441139
0.441604
-0.0452031
0.044738
-0.517548
0.519844
-0.0434727
0.0411772
-0.610984
0.615014
-0.0381033
0.0340729
-0.726438
0.730869
-0.0300103
0.0255799
-0.867702
0.87154
-0.0217193
0.0178807
-1.03905
1.04211
-0.0147147
0.0116522
-1.24545
1.24802
-0.00907272
0.00650407
-1.49373
1.49609
-0.00427266
0.00191371
-1.49358
1.49581
0.000318511
-0.00254028
-1.24486
1.24705
0.00488563
-0.00707652
-1.03819
1.04073
0.00960267
-0.0121432
-0.866538
0.869663
0.0151633
-0.0182889
-0.724441
0.728256
0.0220811
-0.0258964
-0.607929
0.611945
0.0302732
-0.0342896
-0.512721
0.515765
0.0382884
-0.0413327
-0.435953
0.437201
0.0436145
-0.0448629
-0.370106
0.369331
0.0453078
-0.0445325
-0.264893
0.249615
0.0402337
-0.0249557
-0.105022
0.103129
0.0018938
-0.0127363
0.0177835
-0.36623
0.361183
-0.0221042
0.0247508
-0.436648
0.434001
-0.026197
0.0265355
-0.516698
0.51636
-0.0259711
0.0249154
-0.613869
0.614925
-0.0231497
0.0211622
-0.730801
0.732788
-0.0186439
0.0161967
-0.872459
0.874906
-0.0133878
0.0108184
-1.04349
1.04606
-0.00795343
0.00532115
-1.24978
1.25241
-0.00224518
-0.000690451
-1.49866
1.5016
0.00362879
-0.00661574
-1.499
1.50199
0.00923141
-0.0120532
-1.25079
1.25362
0.0145335
-0.0172505
-1.04498
1.0477
0.0196188
-0.0220453
-0.874287
0.876713
0.0239514
-0.0256357
-0.733147
0.734832
0.0266317
-0.0271151
-0.616458
0.616941
0.026701
-0.0251689
-0.520093
0.518561
0.0224406
-0.0180307
-0.439576
0.435166
0.0129023
-0.0068057
-0.352422
0.346325
0.00192738
-0.104957
0.10303
-0.103561
0.103484
7.72973e-05
-0.0025156
0.00450512
-0.357606
0.355617
-0.00681194
0.00879174
-0.431206
0.429226
-0.0107368
0.0121845
-0.515063
0.513615
-0.0133838
0.0140673
-0.615075
0.614392
-0.0143226
0.0140538
-0.73386
0.734129
-0.0132584
0.0121176
-0.876538
0.877679
-0.010497
0.00873493
-1.04808
1.04984
-0.00657119
0.00439988
-1.2547
1.25687
-0.00177466
-0.000846141
-1.50434
1.50696
0.00341958
-0.00599465
-1.50471
1.50728
0.00815601
-0.0103203
-1.25598
1.25814
0.0119852
-0.0134658
-1.04957
1.05106
0.0144843
-0.0151477
-0.878117
0.878781
0.015295
-0.0149116
-0.735514
0.73513
0.0141248
-0.0128085
-0.616251
0.614934
0.011263
-0.00922239
-0.51614
0.514099
0.00716479
-0.00477885
-0.431337
0.428951
0.00271775
-0.000928279
-0.342959
0.34117
0.000114613
-0.10345
0.103335
-0.103177
0.102958
0.000219107
-0.00149958
0.00237282
-0.354358
0.353485
-0.00340149
0.00435158
-0.427868
0.426917
-0.00535031
0.00619295
-0.512476
0.511633
-0.0069807
0.00750865
-0.613763
0.613235
-0.00783999
0.007906
-0.734165
0.734099
-0.00768568
0.0072152
-0.87841
0.87888
-0.00639269
0.00538276
-1.05117
1.05218
-0.003994
0.00249381
-1.25869
1.26019
-0.000687698
-0.00110967
-1.50915
1.51095
0.00288318
-0.00461169
-1.5094
1.51113
0.00595755
-0.00715048
-1.25978
1.26097
0.0080443
-0.0087104
-1.05205
1.05271
0.00903281
-0.00908819
-0.879051
0.879107
0.00887114
-0.0083753
-0.734655
0.734159
0.00770733
-0.00680638
-0.613822
0.612921
0.00586896
-0.00477136
-0.512624
0.511527
0.00373762
-0.00262441
-0.427396
0.426283
0.00167567
-0.000803586
-0.339974
0.339102
0.000249154
-0.102979
0.10273
-0.10281
0.102695
0.000114965
-0.000776588
0.0011895
-0.352884
0.352471
-0.00167258
0.0021295
-0.42626
0.425803
-0.00263389
0.00307938
-0.511017
0.510572
-0.00352629
0.00386116
-0.612808
0.612473
-0.00412419
0.00424309
-0.733984
0.733865
-0.00421086
0.00401017
-0.879181
0.879381
-0.00358111
0.0029923
-1.05295
1.05354
-0.00212639
0.00114658
-1.26141
1.26239
7.27048e-05
-0.00131238
-1.51244
1.51368
0.00252642
-0.00365493
-1.51253
1.51366
0.00447083
-0.0051114
-1.26184
1.26248
0.00552072
-0.00576193
-1.05313
1.05337
0.00578659
-0.00562541
-0.87902
0.878859
0.00533268
-0.00488657
-0.733673
0.733227
0.00439373
-0.00379366
-0.612184
0.611584
0.00321837
-0.00258078
-0.510695
0.510058
0.00200972
-0.00141096
-0.425474
0.424875
0.000907787
-0.000437636
-0.338467
0.337997
0.000134463
-0.102569
0.102434
-0.102616
0.102566
4.97277e-05
-0.000356944
0.000557002
-0.352182
0.351982
-0.000792231
0.00101509
-0.425482
0.42526
-0.00126183
0.00148182
-0.510255
0.510035
-0.00170513
0.00187828
-0.612224
0.612051
-0.00201703
0.00208002
-0.733769
0.733706
-0.00205725
0.00193393
-0.879529
0.879652
-0.00166698
0.00129197
-1.054
1.05438
-0.000730571
8.59103e-05
-1.26318
1.26382
0.0007371
-0.00157214
-1.5147
1.51554
0.0023675
-0.00307274
-1.51456
1.51526
0.0035483
-0.00388136
-1.26295
1.26328
0.0040417
-0.0040738
-1.05349
1.05352
0.00398259
-0.00377446
-0.878665
0.878457
0.00350802
-0.00315664
-0.732831
0.732479
0.00280078
-0.00239159
-0.611093
0.610684
0.00201437
-0.00160835
-0.509556
0.50915
0.00125213
-0.000883794
-0.424414
0.424046
0.000575497
-0.000284497
-0.337633
0.337342
9.09672e-05
-0.102322
0.102231
-0.102537
0.102523
1.3797e-05
-0.000119002
0.000195852
-0.351851
0.351774
-0.000288173
0.000375398
-0.425112
0.425025
-0.000470204
0.000551634
-0.509891
0.50981
-0.000629567
0.000683035
-0.611942
0.611889
-0.000712458
0.000701954
-0.73368
0.73369
-0.000636462
0.000514916
-0.879769
0.87989
-0.000302768
2.78683e-05
-1.05469
1.05497
0.000366889
-0.000811722
-1.26435
1.2648
0.00137271
-0.00192399
-1.51622
1.51677
0.00242634
-0.00284091
-1.51581
1.51622
0.0030895
-0.00322534
-1.26351
1.26365
0.00324692
-0.0031712
-1.05349
1.05342
0.00302806
-0.00280958
-0.878243
0.878024
0.0025706
-0.00228113
-0.732164
0.731874
0.00200455
-0.0016988
-0.610335
0.610029
0.00142474
-0.00113537
-0.508813
0.508523
0.000884615
-0.000627831
-0.423744
0.423487
0.000413352
-0.000208598
-0.337102
0.336898
6.84134e-05
-0.102153
0.102085
-0.102522
0.102533
-1.02396e-05
2.49238e-05
-2.60647e-05
-0.35174
0.351741
2.76189e-05
-3.15615e-05
-0.424987
0.424991
4.0417e-05
-5.48648e-05
-0.50978
0.509794
8.13521e-05
-0.000119275
-0.611884
0.611922
0.000181081
-0.000261827
-0.733736
0.733817
0.00038385
-0.000532988
-0.880022
0.880171
0.00074417
-0.000984745
-1.05522
1.05546
0.00130169
-0.00163383
-1.26518
1.26551
0.00202962
-0.00239341
-1.51722
1.51758
0.00269679
-0.00291275
-1.51653
1.51675
0.00301083
-0.00301659
-1.26371
1.26371
0.00293876
-0.00279098
-1.0533
1.05316
0.0026112
-0.00238092
-0.877801
0.877571
0.00215108
-0.0018895
-0.731603
0.731341
0.00164874
-0.00139027
-0.609753
0.609494
0.00116276
-0.000925766
-0.508266
0.508029
0.000722543
-0.000515866
-0.423261
0.423054
0.000343135
-0.000176102
-0.336716
0.336549
5.88249e-05
-0.102023
0.101964
-0.102553
0.102583
-2.99564e-05
0.000142042
-0.000200498
-0.351773
0.351831
0.000269867
-0.000340246
-0.425031
0.425102
0.000426634
-0.000515329
-0.509848
0.509937
0.000624882
-0.000738343
-0.611999
0.612112
0.000880191
-0.00102836
-0.733932
0.73408
0.00121435
-0.001408
-0.880341
0.880534
0.00164828
-0.00189257
-1.0557
1.05594
0.00218395
-0.00246235
-1.26581
1.26608
0.00276378
-0.00300915
-1.51788
1.51812
0.00317834
-0.00325309
-1.51689
1.51696
0.00322855
-0.00313176
-1.26367
1.26357
0.00298776
-0.00278073
-1.05298
1.05277
0.00256317
-0.00230589
-0.877329
0.877072
0.0020637
-0.001798
-0.731081
0.730815
0.00156075
-0.00131078
-0.609244
0.608994
0.00109424
-0.000871326
-0.507803
0.50758
0.000681779
-0.000489705
-0.422858
0.422666
0.00032858
-0.000170886
-0.336389
0.336231
5.79404e-05
-0.101907
0.101849
-0.102622
0.102669
-4.78042e-05
0.000243774
-0.000352937
-0.351915
0.352024
0.00048296
-0.000612645
-0.425202
0.425331
0.000767859
-0.000922669
-0.510058
0.510213
0.00110805
-0.00129295
-0.612261
0.612446
0.00151323
-0.00173142
-0.734262
0.73448
0.00198922
-0.00224106
-0.880755
0.881007
0.00253246
-0.0028079
-1.0562
1.05647
0.00311134
-0.00337662
-1.26635
1.26662
0.00363305
-0.00380705
-1.51833
1.5185
0.00388608
-0.00385966
-1.51698
1.51696
0.00375171
-0.00356079
-1.26343
1.26324
0.0033401
-0.00306557
-1.05253
1.05226
0.00279675
-0.00249408
-0.876794
0.876492
0.00221811
-0.00192276
-0.730538
0.730243
0.00166337
-0.00139353
-0.608737
0.608467
0.0011619
-0.000925164
-0.507353
0.507117
0.000724892
-0.000522303
-0.422471
0.422269
0.000352392
-0.000184936
-0.336071
0.335904
6.33253e-05
-0.101789
0.101726
-0.102726
0.102794
-6.70854e-05
0.000349058
-0.000508656
-0.352158
0.352318
0.000698974
-0.000888403
-0.42549
0.42568
0.00111419
-0.00133772
-0.510402
0.510625
0.00160253
-0.00186277
-0.612668
0.612928
0.00216823
-0.00246476
-0.734736
0.735033
0.00280702
-0.00313181
-0.881293
0.881618
0.00349519
-0.00382489
-1.05677
1.0571
0.00417009
-0.00445247
-1.26689
1.26717
0.00469874
-0.00483319
-1.51865
1.51879
0.0048468
-0.00473422
-1.51688
1.51677
0.00454248
-0.00426169
-1.263
1.26272
0.00396284
-0.00360765
-1.05195
1.05159
0.00327192
-0.00290294
-0.876158
0.875789
0.00257238
-0.00222324
-0.729923
0.729574
0.00191965
-0.00160646
-0.608179
0.607865
0.00133927
-0.00106728
-0.506865
0.506593
0.000837468
-0.000605306
-0.422054
0.421821
0.000410263
-0.000216838
-0.335725
0.335532
7.4763e-05
-0.101657
0.101582
-0.102871
0.10296
-8.90486e-05
0.000468486
-0.000685294
-0.352505
0.352722
0.000943817
-0.00120043
-0.425902
0.426158
0.00150544
-0.00180663
-0.510886
0.511187
0.00216213
-0.00251008
-0.61323
0.613578
0.00291532
-0.00330558
-0.735374
0.735764
0.00375101
-0.00416824
-0.881986
0.882404
0.0046269
-0.00503424
-1.05747
1.05788
0.00544853
-0.00577317
-1.26747
1.2678
0.00603586
-0.00615076
-1.51891
1.51903
0.00611236
-0.00591849
-1.51662
1.51642
0.00564015
-0.00525909
-1.26239
1.26201
0.00486727
-0.00441238
-1.05119
1.05073
0.00398915
-0.00352929
-0.875378
0.874918
0.00312131
-0.00269307
-0.729189
0.72876
0.00232278
-0.00194218
-0.607521
0.607141
0.00161827
-0.00128899
-0.506295
0.505965
0.00101138
-0.000731466
-0.421568
0.421288
0.000496591
-0.000263188
-0.33532
0.335087
9.09602e-05
-0.101501
0.10141
-0.103063
0.103179
-0.000116873
0.000615244
-0.000899977
-0.352971
0.353256
0.00123957
-0.00157687
-0.426453
0.42679
0.00197742
-0.00237222
-0.511533
0.511928
0.00283727
-0.00329121
-0.613976
0.61443
0.00381854
-0.004324
-0.736209
0.736714
0.0048981
-0.00543202
-0.882876
0.88341
0.00601399
-0.00652484
-1.05833
1.05884
0.00703591
-0.00742666
-1.26815
1.26854
0.0077273
-0.00783636
-1.51914
1.51925
0.00775015
-0.00746993
-1.51619
1.51591
0.00709288
-0.0065912
-1.26157
1.26107
0.00608462
-0.00550301
-1.05022
1.04964
0.00496672
-0.00438773
-0.874403
0.873824
0.00387645
-0.00334179
-0.728283
0.727748
0.00288087
-0.00240779
-0.606717
0.606244
0.00200595
-0.00159793
-0.5056
0.505192
0.00125445
-0.00090815
-0.420977
0.420631
0.000617299
-0.000327834
-0.334827
0.334537
0.000113636
-0.101308
0.101194
-0.103313
0.103464
-0.000151638
0.00079838
-0.00116834
-0.353581
0.353951
0.00160923
-0.00204655
-0.427175
0.427612
0.00256566
-0.00307717
-0.512377
0.512889
0.00367907
-0.00426577
-0.614947
0.615533
0.00494611
-0.0055969
-0.737288
0.737939
0.00633379
-0.00701636
-0.884013
0.884696
0.00775655
-0.00840156
-1.05942
1.06006
0.00904053
-0.00952142
-1.26897
1.26945
0.00987979
-0.00999149
-1.51936
1.51947
0.00985456
-0.00947335
-1.51558
1.5152
0.00897651
-0.00832589
-1.2605
1.25985
0.00767456
-0.00693207
-1.04898
1.04824
0.00625019
-0.00551689
-0.873173
0.872439
0.00487071
-0.00419695
-0.727148
0.726475
0.00361662
-0.00302226
-0.605714
0.60512
0.00251747
-0.00200585
-0.504735
0.504224
0.00157518
-0.00114089
-0.420243
0.419809
0.000775591
-0.000411613
-0.334214
0.33385
0.000142367
-0.101067
0.100925
-0.103637
0.103833
-0.000196299
0.00103179
-0.0015096
-0.354371
0.354849
0.00207921
-0.00264419
-0.428109
0.428674
0.00331432
-0.00397402
-0.51347
0.51413
0.00474982
-0.00550533
-0.616199
0.616955
0.00637997
-0.00721527
-0.738676
0.739512
0.00815878
-0.0090306
-0.885467
0.886339
0.00997234
-0.0107893
-1.06079
1.0616
0.0115927
-0.0121906
-1.26999
1.27059
0.0126255
-0.0127439
-1.51958
1.5197
0.0125462
-0.0120394
-1.51476
1.51425
0.0113928
-0.0105537
-1.25911
1.25827
0.00971922
-0.00877147
-1.0474
1.04645
0.00790406
-0.00697309
-0.871613
0.870682
0.00615448
-0.00530149
-0.725717
0.724864
0.00456771
-0.00381624
-0.604453
0.603701
0.00317874
-0.00253246
-0.503649
0.503003
0.00198834
-0.00143965
-0.419321
0.418772
0.000978545
-0.00051942
-0.333441
0.332982
0.000179746
-0.100765
0.100585
-0.104056
0.104311
-0.000254576
0.0013338
-0.00195035
-0.355392
0.356008
0.00268513
-0.0034137
-0.429316
0.430044
0.00427774
-0.00512797
-0.514879
0.515729
0.00612681
-0.00709835
-0.617811
0.618783
0.00822187
-0.00929285
-0.740458
0.741529
0.0105005
-0.0116133
-0.887324
0.888437
0.0128116
-0.0138462
-1.06252
1.06356
0.0148573
-0.0156021
-1.27126
1.272
0.0161317
-0.0162567
-1.51982
1.51995
0.0159797
-0.0153128
-1.51367
1.513
0.0144748
-0.0133959
-1.25732
1.25624
0.0123277
-0.0111183
-1.04538
1.04417
0.0100139
-0.00883028
-0.869633
0.868449
0.00779098
-0.00670892
-0.723903
0.722821
0.00577894
-0.00482745
-0.602855
0.601904
0.00402067
-0.00320278
-0.502276
0.501458
0.00251428
-0.00182023
-0.418156
0.417462
0.00123726
-0.000656613
-0.332466
0.331885
0.000227034
-0.100383
0.100156
-0.104601
0.104932
-0.00033118
0.00172794
-0.00252458
-0.356709
0.357505
0.00347371
-0.00441426
-0.430872
0.431813
0.00552902
-0.00662514
-0.516694
0.51779
0.00791195
-0.00916231
-0.619885
0.621135
0.010606
-0.0119799
-0.742741
0.744115
0.0135251
-0.0149447
-0.889694
0.891113
0.0164673
-0.0177754
-1.06472
1.06603
0.0190448
-0.0199694
-1.27283
1.27376
0.0206106
-0.0207354
-1.52007
1.5202
0.0203505
-0.0194738
-1.51224
1.51136
0.018389
-0.017003
-1.25502
1.25363
0.0156369
-0.0140953
-1.04281
1.04126
0.0126901
-0.0111867
-0.867115
0.865612
0.00986756
-0.00849548
-0.721603
0.720231
0.00731667
-0.00611104
-0.600833
0.599627
0.00508887
-0.00405297
-0.500537
0.499502
0.0031814
-0.00230323
-0.416681
0.415803
0.00156556
-0.000830852
-0.331232
0.330497
0.000287283
-0.0999007
0.0996134
-0.105311
0.105744
-0.00043322
0.00224704
-0.00327931
-0.358412
0.359444
0.00450881
-0.00572663
-0.432882
0.4341
0.00716888
-0.00858557
-0.519036
0.520452
0.0102464
-0.0118576
-0.622554
0.624165
0.0137144
-0.0154768
-0.745671
0.747434
0.0174532
-0.0192621
-0.892716
0.894525
0.0211928
-0.0228411
-1.0675
1.06915
0.0244264
-0.0255649
-1.27478
1.27592
0.0263296
-0.0264368
-1.52032
1.52042
0.0259006
-0.0247476
-1.51036
1.5092
0.0233442
-0.0215652
-1.25206
1.25028
0.0198201
-0.0178564
-1.03952
1.03756
0.0160703
-0.014162
-0.863918
0.862009
0.012489
-0.0107503
-0.718686
0.716947
0.00925699
-0.00773
-0.59827
0.596743
0.0064357
-0.00512451
-0.498336
0.497025
0.00402154
-0.00291021
-0.414815
0.413703
0.00197669
-0.00104757
-0.329671
0.328742
0.000361355
-0.0992913
0.0989299
-0.106241
0.106812
-0.000571278
0.0029403
-0.00428434
-0.360621
0.361965
0.00588403
-0.00746692
-0.435488
0.43707
0.00933963
-0.0111769
-0.522065
0.523902
0.0133271
-0.0154088
-0.625996
0.628078
0.017801
-0.0200642
-0.749431
0.751694
0.022591
-0.0248912
-0.896565
0.898866
0.0273301
-0.0293945
-1.07099
1.07306
0.0313567
-0.0327396
-1.27718
1.27856
0.0336281
-0.0336837
-1.52051
1.52057
0.0329321
-0.0314121
-1.50788
1.50636
0.0295968
-0.0273169
-1.24827
1.24599
0.0250919
-0.0225958
-1.03534
1.03285
0.0203297
-0.017911
-0.85986
0.857442
0.0157928
-0.0135921
-0.714991
0.71279
0.011703
-0.00977198
-0.595026
0.593095
0.00813548
-0.00647764
-0.49555
0.493893
0.00508292
-0.00367738
-0.412453
0.411048
0.00249693
-0.00132242
-0.327697
0.326522
0.00045573
-0.0985237
0.098068
-0.107471
0.108234
-0.000762774
0.0038824
-0.00564472
-0.363502
0.365265
0.00774062
-0.00981178
-0.438879
0.440951
0.0122582
-0.0146533
-0.525998
0.528393
0.0174491
-0.0201465
-0.630446
0.633144
0.0232339
-0.0261399
-0.754259
0.757165
0.0293647
-0.0322788
-0.901456
0.90437
0.0353394
-0.0378997
-1.07536
1.07792
0.0402934
-0.0419369
-1.28007
1.28172
0.042925
-0.0428669
-1.52058
1.52052
0.0418065
-0.0397995
-1.50461
1.50261
0.0374544
-0.0345391
-1.24341
1.24049
0.0317109
-0.0285478
-1.03004
1.02687
0.0256819
-0.0226262
-0.854722
0.851666
0.019951
-0.0171715
-0.710316
0.707537
0.0147855
-0.0123459
-0.590924
0.588484
0.0102783
-0.00818334
-0.492029
0.489934
0.00642072
-0.00464446
-0.409468
0.407692
0.0031525
-0.00166839
-0.325202
0.323718
0.000574144
-0.0975564
0.0969823
-0.109121
0.110158
-0.00103682
0.00519821
-0.00753383
-0.36729
0.369625
0.0103069
-0.0130411
-0.443327
0.446061
0.0162622
-0.0194056
-0.531135
0.534278
0.0230601
-0.026569
-0.636219
0.639728
0.0305604
-0.0342893
-0.760457
0.764186
0.0383893
-0.0420531
-0.907642
0.911306
0.04585
-0.0489731
-1.08076
1.08388
0.0518259
-0.0537112
-1.28349
1.28537
0.0547291
-0.0544498
-1.52037
1.52009
0.0529456
-0.0502956
-1.5003
1.49765
0.0472754
-0.043567
-1.2372
1.23349
0.0399904
-0.0360044
-1.02332
1.01933
0.0323967
-0.0285516
-0.848236
0.844391
0.0251841
-0.021684
-0.704416
0.700916
0.0186769
-0.0156003
-0.585744
0.582667
0.0129903
-0.0103441
-0.487579
0.484933
0.00811633
-0.00587031
-0.405695
0.403449
0.00398343
-0.0021067
-0.32205
0.320173
0.000724136
-0.0963379
0.0956138
-0.111381
0.11283
-0.00144953
0.00711711
-0.0102665
-0.372325
0.375475
0.013991
-0.0176477
-0.449217
0.452874
0.0219355
-0.0260982
-0.537894
0.542056
0.0309063
-0.0354857
-0.643737
0.648316
0.0406441
-0.0454072
-0.768405
0.773168
0.0505718
-0.0551126
-0.915395
0.919936
0.0597261
-0.0634301
-1.0873
1.091
0.0667002
-0.0687375
-1.28735
1.28939
0.0696366
-0.0689613
-1.51964
1.51896
0.0668248
-0.0633345
-1.49461
1.49112
0.0594693
-0.0547879
-1.22932
1.22464
0.0503057
-0.0453251
-1.01487
1.00989
0.040821
-0.036016
-0.840088
0.835283
0.031801
-0.0274102
-0.696993
0.692602
0.0236301
-0.019754
-0.579213
0.575337
0.0164606
-0.0131163
-0.481958
0.478614
0.0102971
-0.00745136
-0.400923
0.398077
0.00505768
-0.00267514
-0.318062
0.315679
0.000919505
-0.0947987
0.0938792
-0.114579
0.116722
-0.00214292
0.0101837
-0.0145543
-0.379138
0.383508
0.0196618
-0.0246312
-0.457141
0.46211
0.0304075
-0.0359643
-0.546885
0.552442
0.042313
-0.0482813
-0.653561
0.659529
0.0548985
-0.0608972
-0.778531
0.78453
0.0672643
-0.0727295
-0.924941
0.930406
0.0781261
-0.0823099
-1.09497
1.09915
0.0858182
-0.0877961
-1.29143
1.29341
0.0883032
-0.0869617
-1.51799
1.51665
0.0839359
-0.0793653
-1.48712
1.48255
0.0744667
-0.0686308
-1.2194
1.21357
0.0630892
-0.0569529
-1.00435
0.998215
0.0514043
-0.0454735
-0.829933
0.824002
0.0402527
-0.0347913
-0.687695
0.682233
0.0300671
-0.0252007
-0.570986
0.566119
0.0210469
-0.0168113
-0.474848
0.470612
0.0132264
-0.00959338
-0.39487
0.391237
0.00652467
-0.00345821
-0.312995
0.309928
0.00119097
-0.0928369
0.0916459
-0.119337
0.122984
-0.00364608
0.0160831
-0.0223828
-0.388636
0.394935
0.0295061
-0.0363013
-0.468079
0.474874
0.0440805
-0.0514595
-0.559004
0.566383
0.0597412
-0.0673649
-0.666364
0.673987
0.0756164
-0.0828958
-0.791187
0.798467
0.0903867
-0.0966034
-0.936282
0.942499
0.102497
-0.106835
-1.10346
1.1078
0.110172
-0.111694
-1.29522
1.29674
0.111371
-0.108977
-1.51484
1.51245
0.10473
-0.0988047
-1.47734
1.47141
0.092682
-0.085531
-1.20709
1.19994
0.0788152
-0.071415
-0.991453
0.984053
0.0647319
-0.0575735
-0.817454
0.810296
0.0512456
-0.0445842
-0.676157
0.669496
0.03878
-0.0327527
-0.560646
0.554618
0.027564
-0.0222218
-0.465805
0.460462
0.0176498
-0.0129576
-0.387117
0.382425
0.00892696
-0.00479334
-0.306492
0.302359
0.00166862
-0.0902867
0.0886181
-0.127014
0.135063
-0.00804876
0.0304733
-0.0393492
-0.402733
0.411609
0.0487939
-0.0576795
-0.483661
0.492547
0.0677189
-0.0770868
-0.575302
0.58467
0.0873484
-0.0965065
-0.682571
0.691729
0.106088
-0.114236
-0.806227
0.814375
0.122282
-0.128647
-0.948841
0.955206
0.13435
-0.138183
-1.11195
1.11578
0.140662
-0.141105
-1.29779
1.29823
0.13935
-0.135403
-1.50932
1.50538
0.129543
-0.121978
-1.46469
1.45712
0.114452
-0.105887
-1.19208
1.18351
0.097956
-0.0892972
-0.976003
0.967345
0.0815145
-0.0731976
-0.802495
0.794178
0.0658414
-0.0580723
-0.662142
0.654373
0.0512672
-0.0441613
-0.547794
0.540689
0.0379915
-0.0315511
-0.454244
0.447803
0.0259263
-0.0199669
-0.376935
0.370976
0.014464
-0.00800367
-0.297926
0.291466
0.00276495
-0.086838
0.0840731
-0.143851
0.146035
-0.00218384
0.0181794
-0.0268161
-0.424934
0.433571
0.0366346
-0.0464056
-0.505113
0.514884
0.0576597
-0.0687141
-0.595579
0.606634
0.0805643
-0.0910849
-0.701155
0.711676
0.102698
-0.112955
-0.822207
0.832463
0.123557
-0.132618
-0.960985
0.970046
0.141571
-0.148706
-1.11881
1.12595
0.15498
-0.15904
-1.29771
1.30177
0.161073
-0.160262
-1.50033
1.49952
0.156498
-0.150189
-1.44855
1.44224
0.142867
-0.133596
-1.17417
1.1649
0.124545
-0.113699
-0.958054
0.947208
0.103674
-0.0925377
-0.785259
0.774122
0.0824493
-0.0715811
-0.645885
0.635017
0.0616943
-0.0514908
-0.532564
0.52236
0.0428868
-0.0337161
-0.43998
0.430809
0.0259131
-0.0178829
-0.363579
0.355549
0.010651
-0.00398004
-0.28518
0.278509
0.000227014
-0.0811595
0.0809325
-0.154611
0.149463
0.00514769
-0.00128006
-0.00511742
-0.446657
0.453054
0.0138862
-0.0223996
-0.526656
0.535169
0.0326673
-0.0421284
-0.617456
0.626917
0.0526943
-0.0622928
-0.722231
0.731829
0.0725375
-0.0817939
-0.842376
0.851632
0.0914082
-0.0993775
-0.978997
0.986966
0.107485
-0.113632
-1.13314
1.13929
0.119029
-0.122236
-1.30581
1.30902
0.123298
-0.121796
-1.49824
1.49674
0.117531
-0.110981
-1.43551
1.42896
0.103469
-0.0943349
-1.15553
1.14639
0.0856543
-0.0758553
-0.936544
0.926744
0.066789
-0.0568017
-0.763026
0.753039
0.0479394
-0.0388462
-0.623654
0.614561
0.0311518
-0.0233069
-0.511104
0.503259
0.0168589
-0.0107738
-0.419341
0.413256
0.00612203
-0.00177452
-0.344273
0.339925
-0.00123411
0.00295636
-0.268727
0.267005
-0.00244452
-0.0768183
0.0792628
-0.153959
0.150597
0.00336225
-0.00215403
-0.00192898
-0.46306
0.467143
0.00784155
-0.01435
-0.544554
0.551062
0.0222092
-0.0298492
-0.636155
0.643795
0.0385168
-0.0465445
-0.740895
0.748923
0.0554162
-0.0633642
-0.860253
0.868201
0.0714865
-0.078593
-0.994824
1.00193
0.0856832
-0.0911863
-1.14517
1.15068
0.0956611
-0.0981422
-1.31182
1.3143
0.0988488
-0.0970529
-1.49488
1.49309
0.0927578
-0.0864859
-1.42222
1.41595
0.0795782
-0.0715457
-1.13765
1.12961
0.0637682
-0.0553765
-0.917259
0.908867
0.0477913
-0.0396212
-0.744039
0.735869
0.0326996
-0.0256178
-0.605976
0.598894
0.0198015
-0.0138285
-0.495092
0.489119
0.00922875
-0.00506291
-0.40541
0.401244
0.00204462
0.000428991
-0.332312
0.329839
-0.00207253
0.00287914
-0.259929
0.259123
-0.00203213
-0.0757634
0.0777955
-0.1553
0.15245
0.00284939
-0.00242287
-0.000666992
-0.475047
0.478137
0.00533665
-0.0108351
-0.558154
0.563652
0.0176026
-0.0239559
-0.651058
0.657411
0.0313438
-0.0382401
-0.756671
0.763568
0.0458498
-0.0527274
-0.875735
0.882613
0.0601704
-0.0663582
-1.00871
1.0149
0.0727601
-0.0773575
-1.15594
1.16054
0.0813955
-0.0835971
-1.31676
1.31896
0.084008
-0.0819511
-1.49113
1.48908
0.0779655
-0.0722556
-1.4095
1.40379
0.0660238
-0.05859
-1.12177
1.11434
0.0517868
-0.0445679
-0.900677
0.893458
0.0380021
-0.031321
-0.728266
0.721584
0.0253636
-0.019486
-0.5919
0.586023
0.0146126
-0.00988207
-0.482951
0.478221
0.00623654
-0.00283776
-0.395189
0.391791
0.000367974
0.00131204
-0.323778
0.322098
-0.00260708
0.0030048
-0.253419
0.253021
-0.00187951
-0.0746002
0.0764797
-0.157197
0.154905
0.00229207
-0.00199062
-0.000507182
-0.485056
0.487553
0.00502347
-0.00980927
-0.569861
0.574647
0.0155609
-0.0214286
-0.663794
0.669662
0.0278628
-0.0341277
-0.770181
0.776446
0.0409683
-0.047197
-0.889233
0.895461
0.0538918
-0.0596709
-1.02108
1.02686
0.0654207
-0.069905
-1.16515
1.16963
0.0736425
-0.075655
-1.32098
1.323
0.0759582
-0.0739334
-1.48701
1.48498
0.0701205
-0.0645509
-1.39764
1.39207
0.0587299
-0.0520008
-1.10709
1.10036
0.0458062
-0.0391552
-0.886236
0.879585
0.0333347
-0.0273145
-0.714922
0.708902
0.0221602
-0.0169608
-0.580188
0.574988
0.0127184
-0.00859514
-0.473004
0.468881
0.00524382
-0.00222222
-0.386891
0.383869
0.000255642
0.00137889
-0.317051
0.315417
-0.00257278
0.00271203
-0.248115
0.247976
-0.00174906
-0.0736465
0.0753955
-0.159372
0.157348
0.00202474
-0.00149902
-0.00120697
-0.493847
0.496553
0.00511171
-0.00968948
-0.579837
0.584415
0.0154042
-0.0207334
-0.675199
0.680528
0.0266768
-0.0324965
-0.782348
0.788167
0.0389634
-0.0448847
-0.901546
0.907467
0.0513747
-0.0568118
-1.03254
1.03797
0.0623697
-0.0667305
-1.17398
1.17834
0.0703249
-0.0722607
-1.32487
1.3268
0.0724996
-0.0707842
-1.48289
1.48118
0.066961
-0.0616148
-1.3861
1.38075
0.0559304
-0.0493957
-1.09347
1.08693
0.0436372
-0.0371876
-0.872875
0.866425
0.0316312
-0.0260556
-0.702859
0.697283
0.0212558
-0.0164197
-0.569851
0.565015
0.0124353
-0.00841321
-0.464313
0.460291
0.00544106
-0.00260693
-0.379605
0.376771
0.00046736
0.00109249
-0.31094
0.30938
-0.00212466
0.00247226
-0.243563
0.243216
-0.00157675
-0.0727956
0.0743723
-0.161683
0.160104
0.00157875
-0.000646475
-0.00207247
-0.502082
0.5048
0.00617918
-0.0103819
-0.589514
0.593717
0.0159303
-0.0211024
-0.685876
0.691048
0.0271399
-0.0326281
-0.793974
0.799462
0.0388185
-0.044519
-0.913569
0.91927
0.0510868
-0.0564514
-1.04362
1.04898
0.0618702
-0.066336
-1.18266
1.18712
0.0703372
-0.0723107
-1.32881
1.33078
0.0726932
-0.0709034
-1.47902
1.47723
0.0672908
-0.0616264
-1.37503
1.36936
0.0559994
-0.0495506
-1.0801
1.07365
0.0436636
-0.0374209
-0.859892
0.853649
0.0319037
-0.0262608
-0.691396
0.685753
0.0217624
-0.0169714
-0.560011
0.55522
0.0129804
-0.00918548
-0.455991
0.452196
0.00612165
-0.0031521
-0.372925
0.369955
0.00107623
0.000544228
-0.305448
0.303828
-0.00160475
0.00213691
-0.239331
0.238799
-0.00147633
-0.0720049
0.0734812
-0.164303
0.163027
0.00127626
0.000152743
-0.0029168
-0.509937
0.512701
0.00727006
-0.0116113
-0.59884
0.603181
0.017059
-0.022099
-0.696285
0.701325
0.0278326
-0.0335024
-0.805222
0.810892
0.0397015
-0.0458648
-0.925021
0.931184
0.0521325
-0.057679
-1.05462
1.06017
0.0635717
-0.0681215
-1.19161
1.19616
0.0719815
-0.0745315
-1.33272
1.33527
0.0751548
-0.0734857
-1.47531
1.47365
0.0696879
-0.0640194
-1.36351
1.35785
0.0581353
-0.0513602
-1.06657
1.05979
0.0452836
-0.0388061
-0.847032
0.840555
0.0331719
-0.0275678
-0.679967
0.674363
0.0227366
-0.0179793
-0.550207
0.54545
0.0140707
-0.0101117
-0.448026
0.444067
0.00692264
-0.00410181
-0.3662
0.363379
0.00188162
-2.29983e-05
-0.300076
0.298217
-0.00120573
0.0018556
-0.235261
0.234611
-0.00141836
-0.0714047
0.072823
-0.167312
0.16619
0.00112254
0.00122583
-0.00423753
-0.517732
0.520743
0.00855112
-0.0130285
-0.608134
0.612611
0.018358
-0.0235471
-0.706722
0.711911
0.0294323
-0.0350318
-0.81667
0.82227
0.0416967
-0.0474652
-0.937051
0.94282
0.0541002
-0.0598281
-1.06605
1.07177
0.0660084
-0.0710895
-1.20085
1.20593
0.07556
-0.0781467
-1.33763
1.34022
0.0791793
-0.0777116
-1.47168
1.47022
0.074046
-0.0679401
-1.35158
1.34548
0.0616603
-0.0543528
-1.05259
1.04529
0.0478372
-0.0408765
-0.833501
0.826541
0.0350017
-0.0290042
-0.668304
0.662307
0.0240022
-0.0190558
-0.540394
0.535448
0.0149529
-0.011101
-0.439842
0.43599
0.00779544
-0.00484896
-0.35953
0.356583
0.00242939
-0.000466376
-0.294667
0.292704
-0.000816766
0.00171155
-0.231139
0.230244
-0.00131955
-0.0709514
0.072271
-0.170298
0.169576
0.000722017
0.00205265
-0.00559266
-0.5257
0.52924
0.00980966
-0.0144147
-0.617137
0.621742
0.0196164
-0.024917
-0.717207
0.722508
0.030928
-0.0369295
-0.828029
0.834031
0.0433662
-0.0496152
-0.949008
0.955257
0.0565794
-0.0624907
-1.07812
1.08403
0.0691763
-0.0746097
-1.21101
1.21644
0.0795445
-0.0829302
-1.34325
1.34663
0.0845803
-0.0832815
-1.46857
1.46727
0.079393
-0.0730766
-1.33892
1.3326
0.0663284
-0.0581974
-1.03718
1.02905
0.0509009
-0.0434056
-0.818971
0.811476
0.0366988
-0.0304165
-0.655777
0.649495
0.025132
-0.0198863
-0.530355
0.525109
0.0157807
-0.0117378
-0.431549
0.427506
0.00845453
-0.00527659
-0.352991
0.349813
0.00290813
-0.00083013
-0.289305
0.287227
-0.000693318
0.00166697
-0.227089
0.226115
-0.00136202
-0.0706116
0.0719736
-0.173559
0.173041
0.000518159
0.00276018
-0.00621649
-0.533845
0.537301
0.0110675
-0.0154766
-0.626567
0.630976
0.0209735
-0.0263466
-0.727703
0.733076
0.0324728
-0.0383698
-0.839988
0.845885
0.0452185
-0.0514706
-0.96174
0.967992
0.0587714
-0.0654465
-1.09058
1.09726
0.0722459
-0.078421
-1.22213
1.22831
0.0842311
-0.0881086
-1.35005
1.35392
0.090445
-0.0898978
-1.46597
1.46542
0.086022
-0.079413
-1.32547
1.31887
0.0717224
-0.0626135
-1.02009
1.01098
0.0544012
-0.0457732
-0.802933
0.794305
0.0384252
-0.0314018
-0.64236
0.635337
0.0256951
-0.0201168
-0.51958
0.514001
0.0157595
-0.0117145
-0.423145
0.4191
0.00830699
-0.00520293
-0.346277
0.343173
0.00280675
-0.000698486
-0.283953
0.281845
-0.000753548
0.0017093
-0.223228
0.222272
-0.00140282
-0.0706825
0.0720853
-0.176996
0.176762
0.000234055
0.00370376
-0.00725976
-0.542048
0.545604
0.0119103
-0.0165683
-0.635851
0.640509
0.0220996
-0.0274806
-0.738355
0.743736
0.0339012
-0.0398645
-0.852
0.857964
0.0468486
-0.0534962
-0.974919
0.981567
0.0610257
-0.0680306
-1.10404
1.11105
0.0754914
-0.0821485
-1.23466
1.24131
0.0887045
-0.0938228
-1.35826
1.36337
0.0970838
-0.0970395
-1.4647
1.46466
0.0936057
-0.0864614
-1.31143
1.30429
0.078072
-0.0677588
-1.00074
0.99043
0.0579722
-0.0478726
-0.784519
0.774419
0.0393993