/*--------------------------------*- C++ -*----------------------------------*\
  =========                 |
  \\      /  F ield         | OpenFOAM: The Open Source CFD Toolbox
   \\    /   O peration     | Website:  https://openfoam.org
    \\  /    A nd           | Version:  7
     \\/     M anipulation  |
\*---------------------------------------------------------------------------*/
FoamFile
{
    version     2.0;
    format      ascii;
    class       volScalarField;
    location    "0.004";
    object      rho;
}
// * * * * * * * * * * * * * * * * * * * * * * * * * * * * * * * * * * * * * //

dimensions      [1 -3 0 0 0 0 0];

internalField   nonuniform List<scalar> 
1000
(
0.997574
0.997574
0.997574
0.997574
0.997574
0.997574
0.997574
0.997574
0.997574
0.997574
0.997574
0.997574
0.997574
0.997574
0.997574
0.997574
0.997574
0.997574
0.997574
0.997574
0.997574
0.997574
0.997574
0.997574
0.997574
0.997574
0.997574
0.997574
0.997574
0.997574
0.997574
0.997574
0.997574
0.997574
0.997574
0.997574
0.997574
0.997574
0.997574
0.997574
0.997574
0.997574
0.997574
0.997574
0.997574
0.997574
0.997574
0.997574
0.997574
0.997574
0.997574
0.997574
0.997574
0.997574
0.997574
0.997574
0.997574
0.997574
0.997574
0.997574
0.997574
0.997574
0.997574
0.997574
0.997574
0.997574
0.997574
0.997574
0.997574
0.997574
0.997574
0.997574
0.997574
0.997574
0.997574
0.997574
0.997574
0.997574
0.997574
0.997574
0.997574
0.997574
0.997574
0.997574
0.997574
0.997574
0.997574
0.997574
0.997574
0.997574
0.997574
0.997574
0.997574
0.997574
0.997574
0.997574
0.997574
0.997574
0.997574
0.997574
0.997574
0.997574
0.997574
0.997574
0.997574
0.997574
0.997574
0.997574
0.997574
0.997574
0.997574
0.997574
0.997574
0.997574
0.997574
0.997574
0.997574
0.997574
0.997574
0.997574
0.997574
0.997574
0.997574
0.997574
0.997574
0.997574
0.997574
0.997574
0.997574
0.997574
0.997574
0.997574
0.997574
0.997574
0.997574
0.997574
0.997574
0.997574
0.997574
0.997574
0.997574
0.997574
0.997574
0.997574
0.997574
0.997574
0.997574
0.997574
0.997574
0.997574
0.997574
0.997574
0.997574
0.997574
0.997574
0.997574
0.997574
0.997574
0.997574
0.997574
0.997574
0.997574
0.997574
0.997574
0.997574
0.997574
0.997574
0.997574
0.997574
0.997574
0.997574
0.997574
0.997574
0.997574
0.997574
0.997574
0.997574
0.997574
0.997574
0.997574
0.997574
0.997574
0.997574
0.997574
0.997574
0.997574
0.997574
0.997574
0.997574
0.997574
0.997574
0.997574
0.997574
0.997574
0.997574
0.997574
0.997574
0.997574
0.997574
0.997574
0.997574
0.997574
0.997574
0.997574
0.997574
0.997574
0.997574
0.997574
0.997574
0.997574
0.997574
0.997574
0.997574
0.997574
0.997574
0.997574
0.997574
0.997574
0.997574
0.997574
0.997574
0.997574
0.997574
0.997574
0.997574
0.997574
0.997574
0.997574
0.997574
0.997574
0.997574
0.997574
0.997574
0.997574
0.997574
0.997574
0.997574
0.997574
0.997574
0.997574
0.997574
0.997574
0.997574
0.997574
0.997574
0.997574
0.997574
0.997574
0.997574
0.997574
0.997574
0.997574
0.997574
0.997574
0.997574
0.997574
0.997574
0.997574
0.997574
0.997574
0.997574
0.997574
0.997574
0.997574
0.997574
0.997574
0.997574
0.997574
0.997574
0.997574
0.997574
0.997574
0.997574
0.997574
0.997574
0.997574
0.997574
0.997574
0.997574
0.997574
0.997574
0.997574
0.997574
0.997574
0.997574
0.997574
0.997574
0.997574
0.997574
0.997574
0.997574
0.997574
0.997574
0.997574
0.997574
0.997574
0.997574
0.997574
0.997574
0.997574
0.997574
0.997574
0.997574
0.997574
0.997574
0.997574
0.997574
0.997574
0.997574
0.997574
0.997574
0.997574
0.997573
0.997573
0.997572
0.997571
0.997569
0.997566
0.997562
0.997556
0.997547
0.997535
0.997517
0.997492
0.997458
0.99741
0.997346
0.99726
0.997146
0.996996
0.996801
0.996553
0.996238
0.995845
0.99536
0.994768
0.994056
0.993209
0.992213
0.991057
0.989728
0.98822
0.986524
0.984638
0.982559
0.98029
0.977833
0.975195
0.972381
0.969401
0.966265
0.962982
0.959564
0.956021
0.952362
0.9486
0.944743
0.940801
0.936782
0.932694
0.928545
0.924342
0.92009
0.915796
0.911465
0.907101
0.902708
0.898291
0.893852
0.889395
0.884923
0.880438
0.875943
0.871439
0.86693
0.862415
0.857898
0.853379
0.84886
0.844343
0.839828
0.835317
0.83081
0.826309
0.821815
0.817328
0.81285
0.80838
0.803921
0.799471
0.795033
0.790606
0.786191
0.781789
0.7774
0.773024
0.768663
0.764315
0.759982
0.755664
0.751362
0.747075
0.742803
0.738548
0.734309
0.730087
0.725881
0.721692
0.71752
0.713365
0.709227
0.705107
0.701004
0.69692
0.692852
0.688803
0.684772
0.680759
0.676764
0.672787
0.668828
0.664888
0.660966
0.657064
0.653175
0.649317
0.645453
0.641657
0.637787
0.634098
0.630161
0.626652
0.622581
0.619286
0.615116
0.611907
0.607859
0.604464
0.60077
0.597102
0.593649
0.589986
0.586464
0.582991
0.579422
0.575966
0.57252
0.569045
0.56563
0.562241
0.558844
0.555475
0.55215
0.548821
0.545513
0.542243
0.538985
0.535746
0.53253
0.529342
0.526175
0.523023
0.519904
0.516807
0.513732
0.510683
0.507658
0.504665
0.501692
0.498751
0.495836
0.492953
0.490101
0.487276
0.48449
0.481734
0.479018
0.476336
0.473694
0.471095
0.468537
0.466028
0.463564
0.461154
0.458794
0.456495
0.454254
0.452077
0.449968
0.447929
0.445967
0.444082
0.442283
0.440568
0.438946
0.437417
0.435986
0.434654
0.433424
0.432298
0.431273
0.430353
0.429531
0.428807
0.428176
0.427633
0.427171
0.426784
0.426464
0.426203
0.425994
0.425828
0.4257
0.425599
0.425524
0.425466
0.425423
0.425389
0.425362
0.425341
0.425322
0.425307
0.425291
0.425279
0.425264
0.425253
0.425238
0.425227
0.425213
0.425203
0.425188
0.425179
0.425165
0.425157
0.425144
0.425136
0.425122
0.425115
0.425101
0.425094
0.425079
0.425072
0.425057
0.42505
0.425033
0.425026
0.425008
0.425001
0.424982
0.424975
0.424954
0.424947
0.424925
0.424917
0.424893
0.424885
0.42486
0.424851
0.424825
0.424815
0.424787
0.424777
0.424746
0.424735
0.424702
0.424691
0.424655
0.424643
0.424604
0.424591
0.424549
0.424534
0.424489
0.424473
0.424423
0.424406
0.424351
0.424332
0.424272
0.42425
0.424184
0.42416
0.424086
0.424059
0.423974
0.423944
0.423847
0.423813
0.423702
0.423663
0.423533
0.423488
0.423335
0.423282
0.423102
0.42304
0.42283
0.422761
0.422532
0.422472
0.422247
0.422184
0.421954
0.421706
0.420972
0.419466
0.416886
0.413121
0.408048
0.401637
0.393944
0.385123
0.375402
0.365066
0.354427
0.343796
0.33346
0.32366
0.314585
0.306365
0.299069
0.29272
0.287294
0.282739
0.278979
0.275926
0.273486
0.271566
0.270078
0.268944
0.268091
0.267461
0.267001
0.266671
0.266437
0.266274
0.266163
0.266087
0.266035
0.266001
0.265978
0.265962
0.265951
0.265943
0.265937
0.265931
0.265927
0.265922
0.265918
0.265915
0.265911
0.265908
0.265905
0.265903
0.2659
0.265898
0.265897
0.265895
0.265894
0.265893
0.265892
0.265891
0.26589
0.265889
0.265887
0.265886
0.265885
0.265883
0.265882
0.265881
0.26588
0.26588
0.265879
0.265879
0.265879
0.265878
0.265878
0.265878
0.265878
0.265878
0.265878
0.265877
0.265876
0.265875
0.265874
0.265872
0.265871
0.26587
0.265869
0.265869
0.265868
0.265868
0.265868
0.265868
0.265867
0.265867
0.265867
0.265867
0.265867
0.265866
0.265866
0.265864
0.26586
0.265856
0.265853
0.265848
0.265846
0.265837
0.265832
0.265813
0.265797
0.265734
0.265694
0.265522
0.265356
0.264863
0.263763
0.261588
0.25586
0.243348
0.218311
0.18548
0.155283
0.136429
0.128264
0.125642
0.124935
0.124756
0.124711
0.1247
0.124698
0.124697
0.124697
0.124697
0.124697
0.124697
0.124697
0.124697
0.124697
0.124697
0.124697
0.124697
0.124697
0.124697
0.124697
0.124697
0.124697
0.124697
0.124697
0.124697
0.124697
0.124697
0.124697
0.124697
0.124697
0.124697
0.124697
0.124697
0.124697
0.124697
0.124697
0.124697
0.124697
0.124697
0.124697
0.124697
0.124697
0.124697
0.124697
0.124697
0.124697
0.124697
0.124697
0.124697
0.124697
0.124697
0.124697
0.124697
0.124697
0.124697
0.124697
0.124697
0.124697
0.124697
0.124697
0.124697
0.124697
0.124697
0.124697
0.124697
0.124697
0.124697
0.124697
0.124697
0.124697
0.124697
0.124697
0.124697
0.124697
0.124697
0.124697
0.124697
0.124697
0.124697
0.124697
0.124697
0.124697
0.124697
0.124697
0.124697
0.124697
0.124697
0.124697
0.124697
0.124697
0.124697
0.124697
0.124697
0.124697
0.124697
0.124697
0.124697
0.124697
0.124697
0.124697
0.124697
0.124697
0.124697
0.124697
0.124697
0.124697
0.124697
0.124697
0.124697
0.124697
0.124697
0.124697
0.124697
0.124697
0.124697
0.124697
0.124697
0.124697
0.124697
0.124697
0.124697
0.124697
0.124697
0.124697
0.124697
0.124697
0.124697
0.124697
0.124697
0.124697
0.124697
0.124697
0.124697
0.124697
0.124697
0.124697
0.124697
0.124697
0.124697
0.124697
0.124697
0.124697
0.124697
0.124697
0.124697
0.124697
0.124697
0.124697
0.124697
0.124697
0.124697
0.124697
0.124697
0.124697
0.124697
0.124697
0.124697
0.124697
0.124697
0.124697
0.124697
0.124697
0.124697
0.124697
0.124697
0.124697
0.124697
0.124697
0.124697
0.124697
0.124697
0.124697
0.124697
0.124697
0.124697
0.124697
0.124697
0.124697
0.124697
0.124697
0.124697
0.124697
0.124697
0.124697
0.124697
0.124697
0.124697
0.124697
0.124697
0.124697
0.124697
0.124697
0.124697
0.124697
0.124697
0.124697
0.124697
0.124697
0.124697
0.124697
0.124697
0.124697
0.124697
0.124697
0.124697
0.124697
0.124697
0.124697
0.124697
0.124697
0.124697
0.124697
0.124697
0.124697
0.124697
0.124697
0.124697
0.124697
0.124697
0.124697
0.124697
0.124697
0.124697
0.124697
0.124697
0.124697
0.124697
0.124697
0.124697
0.124697
0.124697
0.124697
0.124697
0.124697
0.124697
0.124697
0.124697
0.124697
0.124697
0.124697
0.124697
0.124697
0.124697
0.124697
0.124697
0.124697
0.124697
0.124697
0.124697
0.124697
0.124697
0.124697
0.124697
0.124697
0.124697
0.124697
0.124697
0.124697
0.124697
0.124697
0.124697
0.124697
0.124697
0.124697
0.124697
0.124697
0.124697
0.124697
0.124697
0.124697
0.124697
0.124697
0.124697
0.124697
0.124697
)
;

boundaryField
{
    sides
    {
        type            calculated;
        value           nonuniform List<scalar> 2(0.124697 0.997574);
    }
    empty
    {
        type            empty;
    }
}


// ************************************************************************* //
