/*--------------------------------*- C++ -*----------------------------------*\
  =========                 |
  \\      /  F ield         | OpenFOAM: The Open Source CFD Toolbox
   \\    /   O peration     | Website:  https://openfoam.org
    \\  /    A nd           | Version:  7
     \\/     M anipulation  |
\*---------------------------------------------------------------------------*/
FoamFile
{
    version     2.0;
    format      ascii;
    class       volScalarField;
    location    "6.6";
    object      rho;
}
// * * * * * * * * * * * * * * * * * * * * * * * * * * * * * * * * * * * * * //

dimensions      [1 -3 0 0 0 0 0];

internalField   nonuniform List<scalar> 
19968
(
1.40001
1.40001
1.40001
1.40001
1.40001
1.40001
1.40001
1.40001
1.40001
1.40001
1.40001
1.40001
1.40001
1.40001
1.40001
1.40001
1.40001
1.40001
1.40001
1.40001
1.40001
1.40001
1.40001
1.40001
1.40001
1.40001
1.40001
1.40001
1.40001
1.40001
1.40001
1.40001
1.40001
1.40001
1.40001
1.40001
1.40001
1.40001
1.40001
1.40001
1.40001
1.40001
1.40001
1.40001
1.40001
1.40001
1.40001
1.40001
1.71115
4.58769
5.44426
5.44254
5.46271
5.47906
5.49785
5.51841
5.54043
5.56261
5.58403
5.60488
5.62532
5.64466
5.66268
5.67966
5.69599
5.71173
5.72731
5.74336
5.75988
5.77652
5.79301
5.80929
5.82534
5.84107
5.85609
5.86983
5.8819
5.89246
5.90217
5.91174
5.92153
5.93147
5.94109
5.94995
5.95799
5.96557
5.97308
5.98068
5.98814
5.99496
6.00063
6.0049
6.00782
6.00959
6.01069
6.01135
1.40001
1.40001
1.40001
1.40001
1.40001
1.40001
1.40001
1.40001
1.40001
1.40001
1.40001
1.40001
1.40001
1.40001
1.40001
1.40001
1.40001
1.40001
1.40001
1.40001
1.40001
1.40001
1.40001
1.40001
1.40001
1.40001
1.40001
1.40001
1.40001
1.40001
1.40001
1.40001
1.40001
1.40001
1.40001
1.40001
1.40001
1.40001
1.40001
1.40001
1.40001
1.40001
1.40001
1.40001
1.40001
1.40001
1.40001
1.40001
1.69257
4.5579
5.43531
5.44302
5.46303
5.47962
5.49818
5.51847
5.54021
5.56223
5.58349
5.60414
5.62447
5.64379
5.66203
5.67906
5.69534
5.71089
5.72632
5.74219
5.75848
5.77486
5.79111
5.80725
5.82334
5.83922
5.85442
5.86826
5.88034
5.89088
5.90055
5.91009
5.9199
5.92987
5.93953
5.9484
5.95644
5.96398
5.9714
5.97884
5.9861
5.99271
5.99821
6.00237
6.00525
6.00704
6.00815
6.00887
1.40001
1.40001
1.40001
1.40001
1.40001
1.40001
1.40001
1.40001
1.40001
1.40001
1.40001
1.40001
1.40001
1.40001
1.40001
1.40001
1.40001
1.40001
1.40001
1.40001
1.40001
1.40001
1.40001
1.40001
1.40001
1.40001
1.40001
1.40001
1.40001
1.40001
1.40001
1.40001
1.40001
1.40001
1.40001
1.40001
1.40001
1.40001
1.40001
1.40001
1.40001
1.40001
1.40001
1.40001
1.40001
1.40001
1.40001
1.40001
1.65317
4.49953
5.42829
5.43987
5.46099
5.47839
5.49708
5.51718
5.53863
5.56047
5.58149
5.60183
5.622
5.64123
5.65976
5.67695
5.69334
5.70886
5.72424
5.73991
5.75583
5.77172
5.78753
5.80344
5.81957
5.83568
5.85115
5.86517
5.87732
5.88785
5.89748
5.907
5.91681
5.92681
5.93652
5.94546
5.95356
5.96111
5.96845
5.97575
5.9828
5.98921
5.99456
5.99863
6.00148
6.0033
6.00443
6.00521
1.40001
1.40001
1.40001
1.40001
1.40001
1.40001
1.40001
1.40001
1.40001
1.40001
1.40001
1.40001
1.40001
1.40001
1.40001
1.40001
1.40001
1.40001
1.40001
1.40001
1.40001
1.40001
1.40001
1.40001
1.40001
1.40001
1.40001
1.40001
1.40001
1.40001
1.40001
1.40001
1.40001
1.40001
1.40001
1.40001
1.40001
1.40001
1.40001
1.40001
1.40001
1.40001
1.40001
1.40001
1.40001
1.40001
1.40001
1.40001
1.59732
4.40534
5.42016
5.43643
5.45798
5.47627
5.4952
5.5152
5.53636
5.55791
5.57855
5.59841
5.61828
5.63738
5.65627
5.6737
5.69033
5.7059
5.72127
5.73666
5.75204
5.76725
5.78245
5.798
5.81411
5.83046
5.84621
5.86046
5.87273
5.88329
5.89292
5.90239
5.91215
5.92211
5.93182
5.94076
5.94881
5.95622
5.96332
5.97028
5.97697
5.98309
5.98829
5.99236
5.99535
5.99739
5.9987
5.99973
1.40001
1.40001
1.40001
1.40001
1.40001
1.40001
1.40001
1.40001
1.40001
1.40001
1.40001
1.40001
1.40001
1.40001
1.40001
1.40001
1.40001
1.40001
1.40001
1.40001
1.40001
1.40001
1.40001
1.40001
1.40001
1.40001
1.40001
1.40001
1.40001
1.40001
1.40001
1.40001
1.40001
1.40001
1.40001
1.40001
1.40001
1.40001
1.40001
1.40001
1.40001
1.40001
1.40001
1.40001
1.40001
1.40001
1.40001
1.40001
1.52664
4.28133
5.41489
5.43378
5.45399
5.47304
5.49214
5.51199
5.53273
5.55372
5.57387
5.59327
5.61284
5.63184
5.65107
5.66887
5.68595
5.70182
5.71736
5.73254
5.74735
5.76179
5.77626
5.79135
5.80731
5.82379
5.8398
5.85433
5.86684
5.87761
5.88735
5.89688
5.90666
5.91666
5.92643
5.93545
5.94349
5.95071
5.95741
5.96377
5.96977
5.9752
5.97983
5.98352
5.9863
5.98832
5.98965
5.9908
1.40001
1.40001
1.40001
1.40001
1.40001
1.40001
1.40001
1.40001
1.40001
1.40001
1.40001
1.40001
1.40001
1.40001
1.40001
1.40001
1.40001
1.40001
1.40001
1.40001
1.40001
1.40001
1.40001
1.40001
1.40001
1.40001
1.40001
1.40001
1.40001
1.40001
1.40001
1.40001
1.40001
1.40001
1.40001
1.40001
1.40001
1.40001
1.40001
1.40001
1.40001
1.40001
1.40001
1.40001
1.40001
1.40001
1.40001
1.40001
1.41166
4.09306
5.40619
5.4303
5.44907
5.46989
5.48962
5.50971
5.53005
5.55014
5.56941
5.58811
5.60709
5.62576
5.64498
5.66313
5.68074
5.69683
5.71229
5.727
5.74101
5.75451
5.76809
5.78243
5.79787
5.81405
5.82995
5.84449
5.8571
5.86799
5.87782
5.88733
5.89701
5.90692
5.91668
5.92579
5.93394
5.94118
5.94774
5.95383
5.95951
5.96464
5.96908
5.97273
5.97561
5.97786
5.97938
5.98075
1.40001
1.40001
1.40001
1.40001
1.40001
1.40001
1.40001
1.40001
1.40001
1.40001
1.40001
1.40001
1.40001
1.40001
1.40001
1.40001
1.40001
1.40001
1.40001
1.40001
1.40001
1.40001
1.40001
1.40001
1.40001
1.40001
1.40001
1.40001
1.40001
1.40001
1.40001
1.40001
1.40001
1.40001
1.40001
1.40001
1.40001
1.40001
1.40001
1.40001
1.40001
1.40001
1.40001
1.40001
1.40001
1.40001
1.40001
1.40001
1.4001
3.80337
5.36932
5.41165
5.43108
5.45496
5.47579
5.49648
5.51673
5.53636
5.55525
5.57383
5.59265
5.61129
5.63058
5.64894
5.66693
5.68338
5.69914
5.71404
5.728
5.74125
5.75448
5.7684
5.7834
5.79922
5.8149
5.8294
5.84218
5.85337
5.86352
5.87322
5.88294
5.8928
5.90256
5.91177
5.92007
5.9274
5.93389
5.93976
5.94511
5.94991
5.95412
5.95768
5.96061
5.96306
5.96478
5.96635
1.40001
1.40001
1.40001
1.40001
1.40001
1.40001
1.40001
1.40001
1.40001
1.40001
1.40001
1.40001
1.40001
1.40001
1.40001
1.40001
1.40001
1.40001
1.40001
1.40001
1.40001
1.40001
1.40001
1.40001
1.40001
1.40001
1.40001
1.40001
1.40001
1.40001
1.40001
1.40001
1.40001
1.40001
1.40001
1.40001
1.40001
1.40001
1.40001
1.40001
1.40001
1.40001
1.40001
1.40001
1.40001
1.40001
1.40001
1.40001
1.40001
3.41118
5.3204
5.40267
5.42214
5.44729
5.46803
5.48881
5.50894
5.52859
5.54742
5.56586
5.58425
5.60256
5.62141
5.63912
5.65642
5.67231
5.68761
5.70225
5.716
5.72897
5.74179
5.75505
5.76922
5.7842
5.79926
5.81344
5.82617
5.83749
5.84775
5.85744
5.86696
5.87653
5.88604
5.89512
5.90339
5.91068
5.91703
5.92262
5.92761
5.93204
5.93596
5.93936
5.94228
5.94485
5.9467
5.94838
1.40001
1.40001
1.40001
1.40001
1.40001
1.40001
1.40001
1.40001
1.40001
1.40001
1.40001
1.40001
1.40001
1.40001
1.40001
1.40001
1.40001
1.40001
1.40001
1.40001
1.40001
1.40001
1.40001
1.40001
1.40001
1.40001
1.40001
1.40001
1.40001
1.40001
1.40001
1.40001
1.40001
1.40001
1.40001
1.40001
1.40001
1.40001
1.40001
1.40001
1.40001
1.40001
1.40001
1.40001
1.40001
1.40001
1.40001
1.40001
1.40001
2.93834
5.23015
5.40108
5.41811
5.44152
5.46145
5.48165
5.50131
5.52099
5.53991
5.55832
5.57634
5.59415
5.61206
5.6285
5.64432
5.65907
5.67339
5.68744
5.70097
5.71372
5.72609
5.73844
5.75134
5.76496
5.77894
5.79249
5.80501
5.81632
5.82656
5.83603
5.8451
5.8541
5.8631
5.87185
5.88
5.88726
5.89362
5.89916
5.90407
5.9084
5.91224
5.91564
5.91859
5.92128
5.92321
5.92493
1.40001
1.40001
1.40001
1.40001
1.40001
1.40001
1.40001
1.40001
1.40001
1.40001
1.40001
1.40001
1.40001
1.40001
1.40001
1.40001
1.40001
1.40001
1.40001
1.40001
1.40001
1.40001
1.40001
1.40001
1.40001
1.40001
1.40001
1.40001
1.40001
1.40001
1.40001
1.40001
1.40001
1.40001
1.40001
1.40001
1.40001
1.40001
1.40001
1.40001
1.40001
1.40001
1.40001
1.40001
1.40001
1.40001
1.40001
1.40001
1.40001
2.40489
5.04599
5.40745
5.42497
5.44577
5.46307
5.48025
5.49774
5.51644
5.535
5.55315
5.57063
5.58765
5.60415
5.61891
5.63281
5.64616
5.65936
5.67271
5.68595
5.69843
5.71017
5.72126
5.73226
5.74379
5.75598
5.76832
5.78015
5.79101
5.80076
5.80956
5.81782
5.82602
5.83439
5.84276
5.85072
5.85791
5.8642
5.86963
5.87435
5.87842
5.88197
5.88507
5.88775
5.89018
5.89186
5.89334
1.40001
1.40001
1.40001
1.40001
1.40001
1.40001
1.40001
1.40001
1.40001
1.40001
1.40001
1.40001
1.40001
1.40001
1.40001
1.40001
1.40001
1.40001
1.40001
1.40001
1.40001
1.40001
1.40001
1.40001
1.40001
1.40001
1.40001
1.40001
1.40001
1.40001
1.40001
1.40001
1.40001
1.40001
1.40001
1.40001
1.40001
1.40001
1.40001
1.40001
1.40001
1.40001
1.40001
1.40001
1.40001
1.40001
1.40001
1.40001
1.40001
1.86813
4.71987
5.42952
5.41888
5.43746
5.45283
5.46954
5.48695
5.5054
5.52379
5.54178
5.55932
5.57643
5.59264
5.60684
5.61948
5.63157
5.64376
5.65656
5.66975
5.68232
5.69363
5.70369
5.71294
5.72236
5.73258
5.74349
5.75432
5.76426
5.77283
5.7801
5.78659
5.79294
5.79952
5.80626
5.81281
5.81884
5.82429
5.82926
5.83388
5.83811
5.84198
5.84531
5.84807
5.85037
5.85178
5.85301
1.40001
1.40001
1.40001
1.40001
1.40001
1.40001
1.40001
1.40001
1.40001
1.40001
1.40001
1.40001
1.40001
1.40001
1.40001
1.40001
1.40001
1.40001
1.40001
1.40001
1.40001
1.40001
1.40001
1.40001
1.40001
1.40001
1.40001
1.40001
1.40001
1.40001
1.40001
1.40001
1.40001
1.40001
1.40001
1.40001
1.40001
1.40001
1.40001
1.40001
1.40001
1.40001
1.40001
1.40001
1.40001
1.40001
1.40001
1.40001
1.40001
1.42347
4.08579
5.41351
5.42196
5.43609
5.4509
5.46577
5.48114
5.4973
5.51401
5.53053
5.54696
5.56314
5.57833
5.59142
5.60247
5.61282
5.62346
5.63483
5.64693
5.6589
5.66947
5.67849
5.68605
5.69336
5.70149
5.71076
5.72045
5.72947
5.73702
5.74304
5.74812
5.75296
5.75805
5.7634
5.7687
5.77367
5.77824
5.78238
5.7861
5.7892
5.79162
5.7932
5.79408
5.79456
5.79449
5.79471
1.40001
1.40001
1.40001
1.40001
1.40001
1.40001
1.40001
1.40001
1.40001
1.40001
1.40001
1.40001
1.40001
1.40001
1.40001
1.40001
1.40001
1.40001
1.40001
1.40001
1.40001
1.40001
1.40001
1.40001
1.40001
1.40001
1.40001
1.40001
1.40001
1.40001
1.40001
1.40001
1.40001
1.40001
1.40001
1.40001
1.40001
1.40001
1.40001
1.40001
1.40001
1.40001
1.40001
1.40001
1.40001
1.40001
1.40001
1.40001
1.40001
1.40005
3.19783
5.25102
5.36457
5.38883
5.4115
5.43054
5.4483
5.46477
5.48061
5.49597
5.51148
5.52722
5.54245
5.55612
5.56785
5.57823
5.58841
5.59924
5.61071
5.62249
5.63326
5.64219
5.64923
5.65534
5.66181
5.66931
5.6774
5.68501
5.69125
5.69587
5.69929
5.70212
5.70477
5.70729
5.70948
5.71119
5.71252
5.71368
5.71486
5.71613
5.71751
5.71903
5.72014
5.72099
5.72114
5.7214
1.40001
1.40001
1.40001
1.40001
1.40001
1.40001
1.40001
1.40001
1.40001
1.40001
1.40001
1.40001
1.40001
1.40001
1.40001
1.40001
1.40001
1.40001
1.40001
1.40001
1.40001
1.40001
1.40001
1.40001
1.40001
1.40001
1.40001
1.40001
1.40001
1.40001
1.40001
1.40001
1.40001
1.40001
1.40001
1.40001
1.40001
1.40001
1.40001
1.40001
1.40001
1.40001
1.40001
1.40001
1.40001
1.40001
1.40001
1.40001
1.40001
1.4
2.17241
4.89903
5.36025
5.37635
5.40108
5.41921
5.43619
5.45155
5.4654
5.47818
5.49097
5.50447
5.51837
5.53153
5.54313
5.55287
5.56156
5.57039
5.57966
5.58942
5.59904
5.60713
5.6133
5.61789
5.62209
5.62658
5.63139
5.6359
5.63942
5.64165
5.64262
5.64275
5.64238
5.64165
5.6405
5.63912
5.6378
5.63669
5.63556
5.63398
5.63107
5.62678
5.62029
5.61306
5.60582
5.59894
1.40001
1.40001
1.40001
1.40001
1.40001
1.40001
1.40001
1.40001
1.40001
1.40001
1.40001
1.40001
1.40001
1.40001
1.40001
1.40001
1.40001
1.40001
1.40001
1.40001
1.40001
1.40001
1.40001
1.40001
1.40001
1.40001
1.40001
1.40001
1.40001
1.40001
1.40001
1.40001
1.40001
1.40001
1.40001
1.40001
1.40001
1.40001
1.40001
1.40001
1.40001
1.40001
1.40001
1.40001
1.40001
1.40001
1.40001
1.40001
1.40001
1.40001
1.44293
3.98407
5.3792
5.39545
5.40349
5.41425
5.42375
5.43397
5.44428
5.4545
5.46469
5.47539
5.48678
5.49809
5.50829
5.51702
5.52436
5.53109
5.53778
5.54443
5.55152
5.55833
5.56393
5.56787
5.57053
5.57229
5.57347
5.57396
5.57378
5.5727
5.5704
5.56711
5.56271
5.55722
5.55066
5.54291
5.53392
5.52357
5.51117
5.49597
5.47804
5.4588
5.44274
5.43042
5.42645
5.42477
1.40001
1.40001
1.40001
1.40001
1.40001
1.40001
1.40001
1.40001
1.40001
1.40001
1.40001
1.40001
1.40001
1.40001
1.40001
1.40001
1.40001
1.40001
1.40001
1.40001
1.40001
1.40001
1.40001
1.40001
1.40001
1.40001
1.40001
1.40001
1.40001
1.40001
1.40001
1.40001
1.40001
1.40001
1.40001
1.40001
1.40001
1.40001
1.40001
1.40001
1.40001
1.40001
1.40001
1.40001
1.40001
1.40001
1.40001
1.40001
1.40001
1.40001
1.40006
2.63165
5.0521
5.34545
5.35831
5.37357
5.38504
5.3964
5.40832
5.42044
5.4318
5.44233
5.45242
5.46228
5.47122
5.47872
5.48492
5.48972
5.49358
5.49666
5.49957
5.50293
5.50649
5.50959
5.51136
5.51125
5.5092
5.50514
5.49956
5.49288
5.48519
5.47625
5.46595
5.45413
5.44042
5.42452
5.40629
5.38578
5.36264
5.33669
5.30823
5.27859
5.24255
5.20399
5.15112
5.17206
1.40001
1.40001
1.40001
1.40001
1.40001
1.40001
1.40001
1.40001
1.40001
1.40001
1.40001
1.40001
1.40001
1.40001
1.40001
1.40001
1.40001
1.40001
1.40001
1.40001
1.40001
1.40001
1.40001
1.40001
1.40001
1.40001
1.40001
1.40001
1.40001
1.40001
1.40001
1.40001
1.40001
1.40001
1.40001
1.40001
1.40001
1.40001
1.40001
1.40001
1.40001
1.40001
1.40001
1.40001
1.40001
1.40001
1.40001
1.40001
1.40001
1.40001
1.40001
1.5568
4.36867
5.36676
5.361
5.3646
5.37324
5.38238
5.39258
5.4027
5.41178
5.41959
5.42654
5.43328
5.43953
5.4444
5.44849
5.45156
5.45315
5.45292
5.45143
5.4501
5.45024
5.45122
5.45199
5.45056
5.4459
5.43826
5.42792
5.41549
5.40149
5.38613
5.36919
5.3502
5.32829
5.30259
5.27198
5.23558
5.19072
5.13507
5.06063
4.96163
4.81309
4.58701
4.18316
3.28757
1.40001
1.40001
1.40001
1.40001
1.40001
1.40001
1.40001
1.40001
1.40001
1.40001
1.40001
1.40001
1.40001
1.40001
1.40001
1.40001
1.40001
1.40001
1.40001
1.40001
1.40001
1.40001
1.40001
1.40001
1.40001
1.40001
1.40001
1.40001
1.40001
1.40001
1.40001
1.40001
1.40001
1.40001
1.40001
1.40001
1.40001
1.40001
1.40001
1.40001
1.40001
1.40001
1.40001
1.40001
1.40001
1.40001
1.40001
1.40001
1.40001
1.40001
1.4
1.40135
3.22679
5.18798
5.32983
5.33484
5.34392
5.35205
5.36132
5.37114
5.38001
5.38747
5.39393
5.39982
5.40513
5.40933
5.41232
5.41434
5.41491
5.41283
5.4093
5.40494
5.40146
5.39945
5.39747
5.39369
5.38693
5.37704
5.36358
5.3467
5.32713
5.30565
5.28212
5.25602
5.22594
5.19085
5.14795
5.09619
5.02981
4.94785
4.83709
4.69513
4.48859
4.21422
3.68513
2.91719
1.40001
1.40001
1.40001
1.40001
1.40001
1.40001
1.40001
1.40001
1.40001
1.40001
1.40001
1.40001
1.40001
1.40001
1.40001
1.40001
1.40001
1.40001
1.40001
1.40001
1.40001
1.40001
1.40001
1.40001
1.40001
1.40001
1.40001
1.40001
1.40001
1.40001
1.40001
1.40001
1.40001
1.40001
1.40001
1.40001
1.40001
1.40001
1.40001
1.40001
1.40001
1.40001
1.40001
1.40001
1.40001
1.40001
1.40001
1.40001
1.40001
1.40001
1.40001
1.4
1.94057
4.71885
5.35938
5.33638
5.33946
5.34255
5.34758
5.35566
5.36378
5.36993
5.37447
5.37784
5.38032
5.3824
5.38317
5.3829
5.38101
5.37632
5.37043
5.36344
5.35655
5.35076
5.34508
5.33728
5.32696
5.31378
5.29692
5.27595
5.25128
5.22393
5.19343
5.1598
5.12092
5.07627
5.02188
4.9564
4.87346
4.77083
4.6397
4.46984
4.2494
3.93195
3.48417
2.98132
1.40001
1.40001
1.40001
1.40001
1.40001
1.40001
1.40001
1.40001
1.40001
1.40001
1.40001
1.40001
1.40001
1.40001
1.40001
1.40001
1.40001
1.40001
1.40001
1.40001
1.40001
1.40001
1.40001
1.40001
1.40001
1.40001
1.40001
1.40001
1.40001
1.40001
1.40001
1.40001
1.40001
1.40001
1.40001
1.40001
1.40001
1.40001
1.40001
1.40001
1.40001
1.40001
1.40001
1.40001
1.40001
1.40001
1.40001
1.40001
1.40001
1.40001
1.40001
1.4
1.42228
3.54562
5.26736
5.30987
5.31982
5.32447
5.3293
5.33699
5.34514
5.35049
5.35378
5.35528
5.35518
5.35504
5.35379
5.35095
5.34611
5.33873
5.32967
5.31961
5.30974
5.30096
5.29207
5.2806
5.26645
5.24933
5.22842
5.20357
5.17457
5.14247
5.10589
5.06511
5.0178
4.96386
4.89993
4.82398
4.73142
4.61769
4.47789
4.30071
4.07874
3.79474
3.44975
3.07734
1.40001
1.40001
1.40001
1.40001
1.40001
1.40001
1.40001
1.40001
1.40001
1.40001
1.40001
1.40001
1.40001
1.40001
1.40001
1.40001
1.40001
1.40001
1.40001
1.40001
1.40001
1.40001
1.40001
1.40001
1.40001
1.40001
1.40001
1.40001
1.40001
1.40001
1.40001
1.40001
1.40001
1.40001
1.40001
1.40001
1.40001
1.40001
1.40001
1.40001
1.40001
1.40001
1.40001
1.40001
1.40001
1.40001
1.40001
1.40001
1.40001
1.40001
1.40001
1.40001
1.4
2.0793
4.82
5.322
5.30522
5.30843
5.31232
5.31925
5.32712
5.33214
5.33436
5.33362
5.33034
5.32622
5.32242
5.31837
5.31287
5.30465
5.29308
5.27925
5.26564
5.25325
5.24079
5.22616
5.20842
5.1872
5.16181
5.13299
5.10011
5.06402
5.02284
4.97636
4.92248
4.86074
4.78931
4.70623
4.60876
4.49221
4.35492
4.18307
3.97851
3.74157
3.46996
3.17411
1.40001
1.40001
1.40001
1.40001
1.40001
1.40001
1.40001
1.40001
1.40001
1.40001
1.40001
1.40001
1.40001
1.40001
1.40001
1.40001
1.40001
1.40001
1.40001
1.40001
1.40001
1.40001
1.40001
1.40001
1.40001
1.40001
1.40001
1.40001
1.40001
1.40001
1.40001
1.40001
1.40001
1.40001
1.40001
1.40001
1.40001
1.40001
1.40001
1.40001
1.40001
1.40001
1.40001
1.40001
1.40001
1.40001
1.40001
1.40001
1.40001
1.40001
1.40001
1.40001
1.4
1.43259
3.58943
5.24259
5.27912
5.28721
5.2916
5.29839
5.30537
5.3103
5.31208
5.31025
5.30519
5.29696
5.28976
5.28428
5.27847
5.27064
5.25819
5.2418
5.22462
5.20803
5.19159
5.17371
5.15257
5.1276
5.09801
5.06519
5.02868
4.98902
4.94467
4.89458
4.83665
4.76969
4.69291
4.60531
4.50567
4.39028
4.26061
4.10192
3.92392
3.72836
3.50265
3.26663
1.40001
1.40001
1.40001
1.40001
1.40001
1.40001
1.40001
1.40001
1.40001
1.40001
1.40001
1.40001
1.40001
1.40001
1.40001
1.40001
1.40001
1.40001
1.40001
1.40001
1.40001
1.40001
1.40001
1.40001
1.40001
1.40001
1.40001
1.40001
1.40001
1.40001
1.40001
1.40001
1.40001
1.40001
1.40001
1.40001
1.40001
1.40001
1.40001
1.40001
1.40001
1.40001
1.40001
1.40001
1.40001
1.40001
1.40001
1.40001
1.40001
1.40001
1.40001
1.40001
1.4
1.40002
2.01872
4.76867
5.27817
5.2676
5.26981
5.2729
5.27708
5.28047
5.2817
5.28051
5.27519
5.26347
5.25148
5.24398
5.23793
5.23153
5.22036
5.20461
5.18623
5.16624
5.14537
5.1232
5.09813
5.06999
5.03759
5.00176
4.96217
4.91899
4.87178
4.81965
4.76042
4.69203
4.61353
4.52444
4.42571
4.31133
4.18936
4.04636
3.893
3.72746
3.53594
3.34282
1.40001
1.40001
1.40001
1.40001
1.40001
1.40001
1.40001
1.40001
1.40001
1.40001
1.40001
1.40001
1.40001
1.40001
1.40001
1.40001
1.40001
1.40001
1.40001
1.40001
1.40001
1.40001
1.40001
1.40001
1.40001
1.40001
1.40001
1.40001
1.40001
1.40001
1.40001
1.40001
1.40001
1.40001
1.40001
1.40001
1.40001
1.40001
1.40001
1.40001
1.40001
1.40001
1.40001
1.40001
1.40001
1.40001
1.40001
1.40001
1.40001
1.40001
1.40001
1.40001
1.40001
1.40001
1.42477
3.36562
5.1476
5.23631
5.24117
5.24445
5.25025
5.25394
5.25556
5.25582
5.25058
5.23731
5.22163
5.21032
5.20121
5.19365
5.18243
5.16781
5.14982
5.12818
5.10391
5.07769
5.04864
5.01732
4.98266
4.94466
4.90273
4.85648
4.80621
4.75194
4.69223
4.62464
4.54776
4.46002
4.36437
4.25228
4.13802
4.0085
3.87243
3.72855
3.56749
3.40313
1.40001
1.40001
1.40001
1.40001
1.40001
1.40001
1.40001
1.40001
1.40001
1.40001
1.40001
1.40001
1.40001
1.40001
1.40001
1.40001
1.40001
1.40001
1.40001
1.40001
1.40001
1.40001
1.40001
1.40001
1.40001
1.40001
1.40001
1.40001
1.40001
1.40001
1.40001
1.40001
1.40001
1.40001
1.40001
1.40001
1.40001
1.40001
1.40001
1.40001
1.40001
1.40001
1.40001
1.40001
1.40001
1.40001
1.40001
1.40001
1.40001
1.40001
1.40001
1.40001
1.40001
1.40001
1.40002
1.73898
4.53899
5.26891
5.25074
5.2406
5.2338
5.22933
5.22561
5.22271
5.21574
5.20256
5.18691
5.17336
5.16226
5.15306
5.1416
5.12807
5.11113
5.08888
5.0626
5.03359
5.00144
4.96767
4.93138
4.89222
4.84931
4.80138
4.74864
4.69205
4.63156
4.56539
4.49279
4.40827
4.31714
4.21157
4.10523
3.98469
3.86276
3.73366
3.5945
3.44972
1.40001
1.40001
1.40001
1.40001
1.40001
1.40001
1.40001
1.40001
1.40001
1.40001
1.40001
1.40001
1.40001
1.40001
1.40001
1.40001
1.40001
1.40001
1.40001
1.40001
1.40001
1.40001
1.40001
1.40001
1.40001
1.40001
1.40001
1.40001
1.40001
1.40001
1.40001
1.40001
1.40001
1.40001
1.40001
1.40001
1.40001
1.40001
1.40001
1.40001
1.40001
1.40001
1.40001
1.40001
1.40001
1.40001
1.40001
1.40001
1.40001
1.40001
1.40001
1.40001
1.40001
1.40001
1.40001
1.40625
2.93403
5.02016
5.19183
5.19757
5.20235
5.19741
5.19037
5.18497
5.17827
5.16744
5.15467
5.14047
5.12646
5.11374
5.10016
5.08622
5.07021
5.04773
5.02095
4.99099
4.95753
4.92258
4.88511
4.84519
4.80215
4.75408
4.70036
4.64185
4.58027
4.51405
4.44421
4.36364
4.27819
4.18228
4.08333
3.97279
3.86295
3.74311
3.62051
3.49027
1.40001
1.40001
1.40001
1.40001
1.40001
1.40001
1.40001
1.40001
1.40001
1.40001
1.40001
1.40001
1.40001
1.40001
1.40001
1.40001
1.40001
1.40001
1.40001
1.40001
1.40001
1.40001
1.40001
1.40001
1.40001
1.40001
1.40001
1.40001
1.40001
1.40001
1.40001
1.40001
1.40001
1.40001
1.40001
1.40001
1.40001
1.40001
1.40001
1.40001
1.40001
1.40001
1.40001
1.40001
1.40001
1.40001
1.40001
1.40001
1.40001
1.40001
1.40001
1.40001
1.40001
1.40001
1.40001
1.40001
1.55245
3.97155
5.16347
5.18579
5.1843
5.17513
5.16699
5.15893
5.15142
5.14046
5.12836
5.11404
5.09798
5.08155
5.0644
5.04743
5.0303
5.00716
4.97996
4.95007
4.91652
4.88131
4.84327
4.80287
4.75983
4.71249
4.65893
4.60007
4.5393
4.47184
4.40271
4.32631
4.24574
4.15936
4.06772
3.96892
3.86712
3.75624
3.6465
3.52793
1.40001
1.40001
1.40001
1.40001
1.40001
1.40001
1.40001
1.40001
1.40001
1.40001
1.40001
1.40001
1.40001
1.40001
1.40001
1.40001
1.40001
1.40001
1.40001
1.40001
1.40001
1.40001
1.40001
1.40001
1.40001
1.40001
1.40001
1.40001
1.40001
1.40001
1.40001
1.40001
1.40001
1.40001
1.40001
1.40001
1.40001
1.40001
1.40001
1.40001
1.40001
1.40001
1.40001
1.40001
1.40001
1.40001
1.40001
1.40001
1.40001
1.40001
1.40001
1.40001
1.40001
1.40001
1.40001
1.40001
1.40114
2.10046
4.7462
5.18733
5.15788
5.15683
5.14646
5.13552
5.12493
5.11228
5.09965
5.08628
5.07012
5.05194
5.0322
5.01149
4.99134
4.9668
4.93894
4.90883
4.87622
4.8412
4.80349
4.76279
4.71999
4.67369
4.62146
4.56492
4.50513
4.43768
4.36901
4.29649
4.21952
4.14072
4.05561
3.9669
3.87118
3.77094
3.67091
3.56272
1.40001
1.40001
1.40001
1.40001
1.40001
1.40001
1.40001
1.40001
1.40001
1.40001
1.40001
1.40001
1.40001
1.40001
1.40001
1.40001
1.40001
1.40001
1.40001
1.40001
1.40001
1.40001
1.40001
1.40001
1.40001
1.40001
1.40001
1.40001
1.40001
1.40001
1.40001
1.40001
1.40001
1.40001
1.40001
1.40001
1.40001
1.40001
1.40001
1.40001
1.40001
1.40001
1.40001
1.40001
1.40001
1.40001
1.40001
1.40001
1.40001
1.40001
1.40001
1.40001
1.40001
1.40001
1.40001
1.40001
1.40001
1.42916
3.08315
5.04148
5.13397
5.13312
5.12936
5.11982
5.10759
5.09171
5.07547
5.06014
5.04374
5.02503
5.00476
4.98211
4.95856
4.93263
4.90294
4.8718
4.83953
4.80539
4.76793
4.72732
4.68473
4.63965
4.58884
4.5336
4.47442
4.41028
4.34381
4.27457
4.20119
4.12743
4.04724
3.9653
3.8751
3.78528
3.6917
3.59301
1.40001
1.40001
1.40001
1.40001
1.40001
1.40001
1.40001
1.40001
1.40001
1.40001
1.40001
1.40001
1.40001
1.40001
1.40001
1.40001
1.40001
1.40001
1.40001
1.40001
1.40001
1.40001
1.40001
1.40001
1.40001
1.40001
1.40001
1.40001
1.40001
1.40001
1.40001
1.40001
1.40001
1.40001
1.40001
1.40001
1.40001
1.40001
1.40001
1.40001
1.40001
1.40001
1.40001
1.40001
1.40001
1.40001
1.40001
1.40001
1.40001
1.40001
1.40001
1.40001
1.40001
1.40001
1.40001
1.40001
1.40001
1.40007
1.57452
3.774
5.08331
5.12965
5.12476
5.11721
5.10245
5.08252
5.06127
5.04095
5.02182
5.00183
4.98095
4.95744
4.93189
4.90514
4.87382
4.84089
4.80737
4.77327
4.73563
4.69508
4.65326
4.60764
4.55798
4.50446
4.44781
4.3867
4.3233
4.25695
4.1882
4.11789
4.04287
3.96542
3.88156
3.79857
3.7098
3.61924
1.40001
1.40001
1.40001
1.40001
1.40001
1.40001
1.40001
1.40001
1.40001
1.40001
1.40001
1.40001
1.40001
1.40001
1.40001
1.40001
1.40001
1.40001
1.40001
1.40001
1.40001
1.40001
1.40001
1.40001
1.40001
1.40001
1.40001
1.40001
1.40001
1.40001
1.40001
1.40001
1.40001
1.40001
1.40001
1.40001
1.40001
1.40001
1.40001
1.40001
1.40001
1.40001
1.40001
1.40001
1.40001
1.40001
1.40001
1.40001
1.40001
1.40001
1.40001
1.40001
1.40001
1.40001
1.40001
1.40001
1.40001
1.40001
1.4016
1.79519
4.47281
5.16569
5.13303
5.11354
5.089
5.06462
5.04126
5.01938
4.99847
4.97865
4.95775
4.93361
4.90751
4.8802
4.84826
4.81396
4.77861
4.74375
4.70666
4.66672
4.62535
4.58104
4.53212
4.48021
4.42545
4.36689
4.30618
4.24246
4.17775
4.11099
4.04126
3.96783
3.89068
3.8115
3.72828
3.64411
1.40001
1.40001
1.40001
1.40001
1.40001
1.40001
1.40001
1.40001
1.40001
1.40001
1.40001
1.40001
1.40001
1.40001
1.40001
1.40001
1.40001
1.40001
1.40001
1.40001
1.40001
1.40001
1.40001
1.40001
1.40001
1.40001
1.40001
1.40001
1.40001
1.40001
1.40001
1.40001
1.40001
1.40001
1.40001
1.40001
1.40001
1.40001
1.40001
1.40001
1.40001
1.40001
1.40001
1.40001
1.40001
1.40001
1.40001
1.40001
1.40001
1.40001
1.40001
1.40001
1.40001
1.40001
1.40001
1.40001
1.40001
1.40001
1.40001
1.40846
2.56552
4.89271
5.10008
5.0701
5.05228
5.03515
5.01759
4.99842
4.97818
4.95726
4.93647
4.91172
4.88578
4.85832
4.82634
4.79195
4.7555
4.71871
4.68066
4.64231
4.60144
4.55722
4.51006
4.45966
4.40634
4.34985
4.2912
4.22993
4.16792
4.10495
4.04013
3.97149
3.90018
3.82479
3.74729
3.66851
1.40001
1.40001
1.40001
1.40001
1.40001
1.40001
1.40001
1.40001
1.40001
1.40001
1.40001
1.40001
1.40001
1.40001
1.40001
1.40001
1.40001
1.40001
1.40001
1.40001
1.40001
1.40001
1.40001
1.40001
1.40001
1.40001
1.40001
1.40001
1.40001
1.40001
1.40001
1.40001
1.40001
1.40001
1.40001
1.40001
1.40001
1.40001
1.40001
1.40001
1.40001
1.40001
1.40001
1.40001
1.40001
1.40001
1.40001
1.40001
1.40001
1.40001
1.40001
1.40001
1.40001
1.40001
1.40001
1.40001
1.40001
1.40001
1.40001
1.40002
1.47936
3.19999
4.97877
5.03582
5.02321
5.02169
5.01246
4.9972
4.97757
4.95451
4.93062
4.90379
4.87572
4.84562
4.81213
4.77641
4.73904
4.70069
4.66202
4.62204
4.58141
4.5385
4.49269
4.44329
4.39096
4.33602
4.27923
4.22035
4.16036
4.10068
4.0394
3.97498
3.90813
3.83722
3.76524
3.69237
1.40001
1.40001
1.40001
1.40001
1.40001
1.40001
1.40001
1.40001
1.40001
1.40001
1.40001
1.40001
1.40001
1.40001
1.40001
1.40001
1.40001
1.40001
1.40001
1.40001
1.40001
1.40001
1.40001
1.40001
1.40001
1.40001
1.40001
1.40001
1.40001
1.40001
1.40001
1.40001
1.40001
1.40001
1.40001
1.40001
1.40001
1.40001
1.40001
1.40001
1.40001
1.40001
1.40001
1.40001
1.40001
1.40001
1.40001
1.40001
1.40001
1.40001
1.40001
1.40001
1.40001
1.40001
1.40001
1.40001
1.40001
1.40001
1.40001
1.40001
1.40042
1.60017
3.58726
4.98261
5.01097
5.00807
5.0022
4.98966
4.97221
4.95003
4.92496
4.89666
4.86631
4.83403
4.79957
4.76339
4.72584
4.68742
4.64823
4.60721
4.56526
4.52339
4.47867
4.43026
4.37898
4.32535
4.2702
4.21336
4.15535
4.09838
4.03924
3.97802
3.91448
3.84833
3.78134
3.71435
1.40001
1.40001
1.40001
1.40001
1.40001
1.40001
1.40001
1.40001
1.40001
1.40001
1.40001
1.40001
1.40001
1.40001
1.40001
1.40001
1.40001
1.40001
1.40001
1.40001
1.40001
1.40001
1.40001
1.40001
1.40001
1.40001
1.40001
1.40001
1.40001
1.40001
1.40001
1.40001
1.40001
1.40001
1.40001
1.40001
1.40001
1.40001
1.40001
1.40001
1.40001
1.40001
1.40001
1.40001
1.40001
1.40001
1.40001
1.40001
1.40001
1.40001
1.40001
1.40001
1.40001
1.40001
1.40001
1.40001
1.40001
1.40001
1.40001
1.40001
1.40001
1.40224
1.72242
3.90602
5.01121
5.01006
4.99529
4.97996
4.96143
4.93942
4.91514
4.8882
4.85813
4.82527
4.79058
4.75456
4.71727
4.67902
4.64004
4.59939
4.55722
4.51485
4.47026
4.42252
4.37221
4.31971
4.26599
4.21073
4.15423
4.09869
4.04076
3.98165
3.92077
3.85904
3.79662
3.73474
1.40001
1.40001
1.40001
1.40001
1.40001
1.40001
1.40001
1.40001
1.40001
1.40001
1.40001
1.40001
1.40001
1.40001
1.40001
1.40001
1.40001
1.40001
1.40001
1.40001
1.40001
1.40001
1.40001
1.40001
1.40001
1.40001
1.40001
1.40001
1.40001
1.40001
1.40001
1.40001
1.40001
1.40001
1.40001
1.40001
1.40001
1.40001
1.40001
1.40001
1.40001
1.40001
1.40001
1.40001
1.40001
1.40001
1.40001
1.40001
1.40001
1.40001
1.40001
1.40001
1.40001
1.40001
1.40001
1.40001
1.40001
1.40001
1.40001
1.40001
1.40001
1.40001
1.40567
1.85814
4.18753
5.01637
5.00149
4.97978
4.95497
4.93069
4.90485
4.87738
4.84716
4.81471
4.78075
4.74553
4.70918
4.67164
4.63306
4.59316
4.55181
4.5095
4.46511
4.41813
4.3688
4.3173
4.26475
4.21057
4.1552
4.10073
4.04451
3.98689
3.92875
3.87046
3.81196
3.75347
1.40001
1.40001
1.40001
1.40001
1.40001
1.40001
1.40001
1.40001
1.40001
1.40001
1.40001
1.40001
1.40001
1.40001
1.40001
1.40001
1.40001
1.40001
1.40001
1.40001
1.40001
1.40001
1.40001
1.40001
1.40001
1.40001
1.40001
1.40001
1.40001
1.40001
1.40001
1.40001
1.40001
1.40001
1.40001
1.40001
1.40001
1.40001
1.40001
1.40001
1.40001
1.40001
1.40001
1.40001
1.40001
1.40001
1.40001
1.40001
1.40001
1.40001
1.40001
1.40001
1.40001
1.40001
1.40001
1.40001
1.40001
1.40001
1.40001
1.40001
1.40001
1.40001
1.40002
1.41135
2.0115
4.39082
5.02594
5.00085
4.97045
4.93812
4.90729
4.87582
4.84222
4.80828
4.77372
4.73858
4.70278
4.66593
4.628
4.58897
4.5488
4.50732
4.46363
4.41752
4.36898
4.31822
4.26661
4.21345
4.15962
4.10666
4.05219
3.99608
3.94033
3.88442
3.82847
3.77173
1.40001
1.40001
1.40001
1.40001
1.40001
1.40001
1.40001
1.40001
1.40001
1.40001
1.40001
1.40001
1.40001
1.40001
1.40001
1.40001
1.40001
1.40001
1.40001
1.40001
1.40001
1.40001
1.40001
1.40001
1.40001
1.40001
1.40001
1.40001
1.40001
1.40001
1.40001
1.40001
1.40001
1.40001
1.40001
1.40001
1.40001
1.40001
1.40001
1.40001
1.40001
1.40001
1.40001
1.40001
1.40001
1.40001
1.40001
1.40001
1.40001
1.40001
1.40001
1.40001
1.40001
1.40001
1.40001
1.40001
1.40001
1.40001
1.40001
1.40001
1.40001
1.40001
1.40001
1.40004
1.42024
2.15834
4.56774
5.02443
4.99403
4.95884
4.91945
4.88196
4.84523
4.80848
4.77152
4.73533
4.69902
4.66202
4.6241
4.58527
4.54555
4.5045
4.46144
4.4163
4.36898
4.31994
4.27028
4.2191
4.16714
4.11566
4.06256
4.00802
3.95397
3.90021
3.84566
3.79007
1.40001
1.40001
1.40001
1.40001
1.40001
1.40001
1.40001
1.40001
1.40001
1.40001
1.40001
1.40001
1.40001
1.40001
1.40001
1.40001
1.40001
1.40001
1.40001
1.40001
1.40001
1.40001
1.40001
1.40001
1.40001
1.40001
1.40001
1.40001
1.40001
1.40001
1.40001
1.40001
1.40001
1.40001
1.40001
1.40001
1.40001
1.40001
1.40001
1.40001