/*--------------------------------*- C++ -*----------------------------------*\
  =========                 |
  \\      /  F ield         | OpenFOAM: The Open Source CFD Toolbox
   \\    /   O peration     | Website:  https://openfoam.org
    \\  /    A nd           | Version:  7
     \\/     M anipulation  |
\*---------------------------------------------------------------------------*/
FoamFile
{
    version     2.0;
    format      ascii;
    class       volVectorField;
    location    "6.6";
    object      U;
}
// * * * * * * * * * * * * * * * * * * * * * * * * * * * * * * * * * * * * * //

dimensions      [0 1 -1 0 0 0 0];

internalField   nonuniform List<vector> 
19968
(
(3 2.03151e-17 0)
(3 2.93302e-16 0)
(3 3.56841e-16 0)
(3 2.1102e-16 0)
(3 1.37939e-16 0)
(3 4.93241e-16 0)
(3 1.26111e-15 0)
(3 1.62239e-15 0)
(3 1.47338e-15 0)
(3 1.06663e-15 0)
(3 2.62964e-16 0)
(3 -1.60812e-16 0)
(3 -3.78892e-16 0)
(3 -4.11e-16 0)
(3 -2.88209e-16 0)
(3 -5.32884e-16 0)
(3 -5.81745e-16 0)
(3 -2.92012e-16 0)
(3 -2.84792e-16 0)
(3 -2.82061e-16 0)
(3 -4.10432e-16 0)
(3 -7.16192e-16 0)
(3 -1.04027e-15 0)
(3 -9.88338e-16 0)
(3 -1.09393e-15 0)
(3 -1.39097e-15 0)
(3 -1.04168e-15 0)
(3 -1.01955e-15 0)
(3 -1.7131e-15 0)
(3 -2.16793e-15 0)
(3 -2.73527e-15 0)
(3 -2.73254e-15 0)
(3 -2.24435e-15 0)
(3 -7.01171e-16 0)
(3 4.66272e-16 0)
(3 5.53475e-16 0)
(3 1.00156e-15 0)
(3 8.98589e-16 0)
(3 2.48587e-16 0)
(3 6.31768e-17 0)
(3 1.45573e-16 0)
(3 1.72069e-17 0)
(3 4.20823e-17 0)
(3 6.29952e-17 0)
(3 -7.14108e-17 0)
(3 3.71557e-16 0)
(3 2.33269e-16 0)
(3 -1.69029e-16 0)
(2.80279 0.00198629 0)
(0.967629 0.00564773 0)
(0.759249 0.00404399 0)
(0.746822 0.009404 0)
(0.72852 0.00996016 0)
(0.712837 0.0093601 0)
(0.697866 0.00846054 0)
(0.683382 0.00806188 0)
(0.668616 0.00834618 0)
(0.653155 0.00909014 0)
(0.636943 0.00974733 0)
(0.620594 0.00959248 0)
(0.605136 0.00877746 0)
(0.590636 0.00845917 0)
(0.576127 0.00907872 0)
(0.560831 0.00988396 0)
(0.545133 0.0100206 0)
(0.529801 0.00971064 0)
(0.514812 0.00960004 0)
(0.499741 0.00972717 0)
(0.484361 0.00991496 0)
(0.468617 0.0100841 0)
(0.452554 0.0101883 0)
(0.436316 0.0102276 0)
(0.420045 0.0102752 0)
(0.403803 0.010383 0)
(0.387622 0.010524 0)
(0.371554 0.0106579 0)
(0.355617 0.0107876 0)
(0.33973 0.0109261 0)
(0.323725 0.0110593 0)
(0.307414 0.0111726 0)
(0.290656 0.0112765 0)
(0.273425 0.011386 0)
(0.255868 0.0115041 0)
(0.238221 0.0116312 0)
(0.220666 0.0117692 0)
(0.203229 0.0119216 0)
(0.185786 0.0120954 0)
(0.168129 0.0122963 0)
(0.150076 0.0125272 0)
(0.131538 0.0127894 0)
(0.112515 0.0130876 0)
(0.0930509 0.013413 0)
(0.0731709 0.0137779 0)
(0.0528101 0.0141946 0)
(0.0319924 0.0144724 0)
(0.0108926 0.0149004 0)
(3 -2.67486e-16 0)
(3 -4.08746e-17 0)
(3 -6.52939e-17 0)
(3 -2.09088e-16 0)
(3 -3.40524e-16 0)
(3 -2.24734e-17 0)
(3 7.24677e-16 0)
(3 1.36545e-15 0)
(3 1.2252e-15 0)
(3 3.37395e-16 0)
(3 -1.33507e-15 0)
(3 -1.5469e-15 0)
(3 -1.85871e-15 0)
(3 -1.09835e-15 0)
(3 -1.86707e-16 0)
(3 -7.15953e-17 0)
(3 -1.58603e-16 0)
(3 -2.29548e-16 0)
(3 -5.78918e-16 0)
(3 -9.36596e-16 0)
(3 -2.0629e-15 0)
(3 -3.00622e-15 0)
(3 -3.54311e-15 0)
(3 -3.74157e-15 0)
(3 -3.91526e-15 0)
(3 -4.07274e-15 0)
(3 -2.12404e-15 0)
(3 -1.60517e-15 0)
(3 -1.5609e-15 0)
(3 -1.58526e-15 0)
(3 -1.59868e-15 0)
(3 -2.06961e-15 0)
(3 -2.38714e-15 0)
(3 5.93299e-16 0)
(3 1.41531e-15 0)
(3 2.20542e-15 0)
(3 2.55882e-15 0)
(3 2.90784e-15 0)
(3 2.58147e-15 0)
(3 2.14296e-15 0)
(3 1.7334e-15 0)
(3 1.39821e-15 0)
(3 4.46707e-16 0)
(3 4.22358e-16 0)
(3 1.72016e-16 0)
(3 3.329e-16 0)
(3 1.15577e-16 0)
(3 -7.46956e-16 0)
(2.81692 0.0116881 0)
(0.972668 0.0273 0)
(0.755159 0.0195202 0)
(0.74097 0.0268887 0)
(0.724085 0.0285338 0)
(0.709103 0.027525 0)
(0.694413 0.0255084 0)
(0.679746 0.0244292 0)
(0.664745 0.0251286 0)
(0.649303 0.0271064 0)
(0.633364 0.028906 0)
(0.617355 0.0286644 0)
(0.602074 0.0267145 0)
(0.587322 0.0258697 0)
(0.572653 0.027488 0)
(0.557441 0.0296769 0)
(0.54191 0.0301026 0)
(0.526699 0.0294283 0)
(0.511629 0.0293026 0)
(0.49637 0.0297558 0)
(0.480796 0.030281 0)
(0.464937 0.0307264 0)
(0.448843 0.0310371 0)
(0.432603 0.0312166 0)
(0.416304 0.0314153 0)
(0.4 0.0317389 0)
(0.383746 0.0321212 0)
(0.367604 0.0324774 0)
(0.351598 0.0328327 0)
(0.335651 0.0332269 0)
(0.319603 0.0336156 0)
(0.303268 0.0339503 0)
(0.286506 0.0342588 0)
(0.269291 0.0345859 0)
(0.251761 0.0349431 0)
(0.234151 0.0353325 0)
(0.216639 0.0357604 0)
(0.199253 0.0362358 0)
(0.181879 0.0367796 0)
(0.164322 0.0374084 0)
(0.146415 0.0381315 0)
(0.128078 0.0389497 0)
(0.109326 0.0398688 0)
(0.0902074 0.0408576 0)
(0.0707641 0.0419358 0)
(0.0509586 0.0431496 0)
(0.0307876 0.0439332 0)
(0.0104759 0.0451178 0)
(3 -1.47682e-16 0)
(3 -3.04046e-16 0)
(3 -1.20222e-16 0)
(3 -8.69781e-17 0)
(3 -3.1302e-16 0)
(3 -8.25003e-16 0)
(3 -8.35046e-16 0)
(3 -6.66418e-16 0)
(3 -1.14141e-15 0)
(3 -1.0638e-15 0)
(3 -5.6664e-16 0)
(3 4.59503e-16 0)
(3 6.0841e-16 0)
(3 5.19739e-16 0)
(3 3.76846e-16 0)
(3 8.25201e-16 0)
(3 4.71528e-16 0)
(3 -4.68408e-17 0)
(3 -4.42719e-16 0)
(3 -8.84089e-16 0)
(3 -2.08719e-15 0)
(3 -3.33723e-15 0)
(3 -3.54065e-15 0)
(3 -3.22982e-15 0)
(3 -3.19587e-15 0)
(3 -2.79247e-15 0)
(3 -1.39963e-15 0)
(3 1.07272e-16 0)
(3 1.83212e-16 0)
(3 -7.91713e-17 0)
(3 5.70601e-16 0)
(3 6.72684e-16 0)
(3 4.42686e-18 0)
(3 -1.07997e-16 0)
(3 -7.49818e-17 0)
(3 1.24529e-16 0)
(3 3.43535e-16 0)
(3 3.15785e-16 0)
(3 8.13217e-16 0)
(3 8.77291e-16 0)
(3 5.62772e-16 0)
(3 -1.44034e-16 0)
(3 -8.54232e-16 0)
(3 -1.06679e-15 0)
(3 -1.22755e-15 0)
(3 -1.41419e-15 0)
(3 -1.56271e-15 0)
(3 -1.48018e-15 0)
(2.85119 0.0189068 0)
(0.989245 0.047447 0)
(0.758473 0.0367609 0)
(0.743888 0.046054 0)
(0.727265 0.0479191 0)
(0.712454 0.0465109 0)
(0.697599 0.0440013 0)
(0.682317 0.0427607 0)
(0.66662 0.0438597 0)
(0.650772 0.0466868 0)
(0.634737 0.0491523 0)
(0.618756 0.0487804 0)
(0.603416 0.0460741 0)
(0.588218 0.0449519 0)
(0.57326 0.0474055 0)
(0.558022 0.0506161 0)
(0.542545 0.0511453 0)
(0.527372 0.0501672 0)
(0.512153 0.0501777 0)
(0.49664 0.051067 0)
(0.480763 0.0519552 0)
(0.464643 0.0526416 0)
(0.448361 0.0531461 0)
(0.431964 0.0535216 0)
(0.415495 0.0539578 0)
(0.399005 0.0545563 0)
(0.38256 0.0551964 0)
(0.366226 0.0557612 0)
(0.350024 0.0563084 0)
(0.333881 0.0569148 0)
(0.31765 0.057519 0)
(0.301162 0.0580461 0)
(0.284286 0.0585396 0)
(0.267003 0.0590706 0)
(0.249447 0.0596557 0)
(0.231839 0.0602975 0)
(0.214348 0.0610044 0)
(0.196995 0.0617858 0)
(0.179662 0.0626676 0)
(0.162159 0.0636707 0)
(0.14432 0.0648086 0)
(0.126072 0.0660839 0)
(0.107437 0.0675091 0)
(0.0884776 0.0690418 0)
(0.0692537 0.0707049 0)
(0.0497741 0.0726022 0)
(0.0299914 0.0737856 0)
(0.0102165 0.0756204 0)
(3 3.18417e-16 0)
(3 1.45465e-16 0)
(3 -1.91317e-16 0)
(3 -3.49161e-16 0)
(3 -4.17164e-16 0)
(3 -1.63108e-16 0)
(3 -1.05873e-15 0)
(3 -1.94676e-15 0)
(3 -1.75119e-15 0)
(3 -5.09609e-16 0)
(3 1.33081e-15 0)
(3 1.87782e-15 0)
(3 2.00502e-15 0)
(3 1.56296e-15 0)
(3 7.69123e-16 0)
(3 1.37072e-16 0)
(3 -8.7587e-16 0)
(3 -1.09315e-15 0)
(3 -1.09878e-15 0)
(3 -1.06191e-15 0)
(3 -1.24981e-15 0)
(3 -9.64501e-16 0)
(3 -1.46811e-15 0)
(3 -1.75603e-15 0)
(3 -1.86777e-15 0)
(3 -1.5477e-15 0)
(3 -1.02155e-15 0)
(3 -1.04325e-15 0)
(3 -2.0073e-15 0)
(3 -1.61573e-15 0)
(3 -3.70528e-16 0)
(3 2.7148e-16 0)
(3 8.40745e-16 0)
(3 7.86253e-16 0)
(3 -8.82928e-16 0)
(3 -1.42688e-15 0)
(3 -1.53376e-15 0)
(3 -1.41995e-15 0)
(3 -1.30519e-15 0)
(3 -3.90135e-16 0)
(3 4.39255e-17 0)
(3 5.24967e-16 0)
(3 4.79621e-16 0)
(3 5.51372e-16 0)
(3 -6.49858e-16 0)
(3 -1.12088e-15 0)
(3 -1.59135e-15 0)
(3 -1.33204e-15 0)
(2.89559 0.0226647 0)
(1.0123 0.0667621 0)
(0.75965 0.055499 0)
(0.744721 0.0651378 0)
(0.729202 0.0669803 0)
(0.715064 0.0657097 0)
(0.700515 0.0634507 0)
(0.685163 0.0624266 0)
(0.669288 0.0638041 0)
(0.653487 0.0670232 0)
(0.637755 0.06978 0)
(0.622067 0.069477 0)
(0.606761 0.0665896 0)
(0.59122 0.0654423 0)
(0.576027 0.0684923 0)
(0.560779 0.07236 0)
(0.545344 0.0728978 0)
(0.530153 0.0717629 0)
(0.514756 0.0720848 0)
(0.498996 0.0735544 0)
(0.482814 0.0748808 0)
(0.466416 0.0758096 0)
(0.449928 0.0765196 0)
(0.433359 0.0771719 0)
(0.416701 0.077956 0)
(0.399995 0.0789089 0)
(0.383313 0.0798466 0)
(0.366717 0.0806353 0)
(0.350215 0.0813679 0)
(0.333732 0.0821608 0)
(0.317129 0.0829474 0)
(0.300254 0.0836315 0)
(0.283003 0.0842675 0)
(0.265375 0.0849497 0)
(0.247518 0.085702 0)
(0.229658 0.086532 0)
(0.211972 0.0874569 0)
(0.194496 0.0884901 0)
(0.177131 0.0896639 0)
(0.1597 0.0910042 0)
(0.142041 0.0925316 0)
(0.12406 0.0942524 0)
(0.105743 0.0961831 0)
(0.0871118 0.0982751 0)
(0.0681985 0.100526 0)
(0.0490424 0.103114 0)
(0.0295217 0.104688 0)
(0.0101143 0.107146 0)
(3 -5.07269e-17 0)
(3 -6.47619e-17 0)
(3 -3.35539e-16 0)
(3 -2.74979e-16 0)
(3 9.25967e-17 0)
(3 4.40044e-16 0)
(3 8.80107e-17 0)
(3 -6.23244e-16 0)
(3 -3.77839e-16 0)
(3 -6.73074e-17 0)
(3 3.29292e-16 0)
(3 5.92508e-16 0)
(3 7.35551e-16 0)
(3 6.66494e-16 0)
(3 5.1878e-16 0)
(3 -1.22075e-17 0)
(3 -9.35784e-16 0)
(3 -1.00407e-15 0)
(3 -1.0918e-15 0)
(3 -1.17917e-15 0)
(3 -8.68183e-16 0)
(3 -5.22293e-16 0)
(3 -4.67674e-16 0)
(3 -1.50128e-15 0)
(3 -2.01677e-15 0)
(3 -1.34749e-15 0)
(3 -2.22354e-15 0)
(3 -2.86205e-15 0)
(3 -2.83901e-15 0)
(3 -1.93653e-15 0)
(3 -4.18477e-16 0)
(3 2.19639e-16 0)
(3 3.69217e-17 0)
(3 -2.62211e-16 0)
(3 -2.60554e-16 0)
(3 -1.29038e-15 0)
(3 -1.52331e-15 0)
(3 -1.71521e-15 0)
(3 -1.86005e-15 0)
(3 -1.44785e-15 0)
(3 -9.38035e-16 0)
(3 3.17608e-16 0)
(3 9.70586e-16 0)
(3 5.5247e-16 0)
(3 -5.09218e-16 0)
(3 -1.40235e-15 0)
(3 -1.75023e-15 0)
(3 -1.30009e-15 0)
(2.94403 0.029476 0)
(1.04013 0.0930575 0)
(0.762281 0.0766142 0)
(0.747488 0.0840868 0)
(0.733527 0.0858039 0)
(0.719868 0.0851585 0)
(0.7054 0.0838826 0)
(0.689812 0.0835398 0)
(0.673634 0.0850374 0)
(0.657808 0.0880079 0)
(0.642545 0.0906027 0)
(0.627487 0.0906002 0)
(0.61254 0.088166 0)
(0.59704 0.0873953 0)
(0.58185 0.0909019 0)
(0.566706 0.0951532 0)
(0.55142 0.0956322 0)
(0.536331 0.0944308 0)
(0.520949 0.0951491 0)
(0.505188 0.0973152 0)
(0.488924 0.099201 0)
(0.472428 0.10042 0)
(0.45589 0.101357 0)
(0.439304 0.102367 0)
(0.422607 0.10363 0)
(0.405809 0.105062 0)
(0.388979 0.106407 0)
(0.372171 0.107532 0)
(0.355371 0.108562 0)
(0.338489 0.109647 0)
(0.321381 0.110722 0)
(0.303901 0.111666 0)
(0.28597 0.11253 0)
(0.267611 0.113413 0)
(0.248985 0.114334 0)
(0.230333 0.115292 0)
(0.211851 0.116308 0)
(0.193609 0.117398 0)
(0.175556 0.11861 0)
(0.157572 0.119996 0)
(0.139539 0.121618 0)
(0.121384 0.123524 0)
(0.103091 0.12576 0)
(0.0846647 0.128306 0)
(0.0660981 0.131096 0)
(0.0474601 0.1344 0)
(0.0284889 0.136406 0)
(0.00980823 0.139508 0)
(3 -3.29041e-17 0)
(3 7.74232e-17 0)
(3 9.25792e-16 0)
(3 1.32963e-15 0)
(3 1.32212e-15 0)
(3 1.39401e-15 0)
(3 1.07121e-15 0)
(3 8.52474e-16 0)
(3 5.67759e-16 0)
(3 1.38795e-16 0)
(3 6.70261e-16 0)
(3 1.03448e-15 0)
(3 6.59466e-16 0)
(3 3.64557e-16 0)
(3 -1.78366e-16 0)
(3 -5.27997e-16 0)
(3 -6.28254e-16 0)
(3 -6.95984e-17 0)
(3 -7.6738e-17 0)
(3 -2.76467e-16 0)
(3 -2.33707e-16 0)
(3 -1.40806e-15 0)
(3 -1.75889e-15 0)
(3 -1.71438e-15 0)
(3 -1.575e-15 0)
(3 -1.8155e-15 0)
(3 -2.29247e-15 0)
(3 -2.64626e-15 0)
(3 -2.63345e-15 0)
(3 -2.48862e-15 0)
(3 -2.0082e-15 0)
(3 -1.89783e-15 0)
(3 -2.11439e-15 0)
(3 -2.56281e-15 0)
(3 -2.69746e-15 0)
(3 -2.70043e-15 0)
(3 -2.48143e-15 0)
(3 -2.48957e-15 0)
(3 -2.40229e-15 0)
(3 -3.00435e-15 0)
(3 -3.47134e-15 0)
(3 -1.91684e-15 0)
(3 -8.3102e-16 0)
(3 -8.0521e-16 0)
(3 -1.46405e-15 0)
(3 -1.39008e-15 0)
(3 -9.16161e-16 0)
(3 -1.37238e-15 0)
(2.99876 0.00217636 0)
(1.10685 0.113101 0)
(0.774272 0.0936934 0)
(0.758192 0.100394 0)
(0.744909 0.103291 0)
(0.73074 0.104203 0)
(0.71585 0.104877 0)
(0.699726 0.105852 0)
(0.683089 0.107294 0)
(0.667091 0.109115 0)
(0.652194 0.110707 0)
(0.637824 0.110823 0)
(0.62334 0.109302 0)
(0.608105 0.109423 0)
(0.593058 0.113489 0)
(0.577996 0.117927 0)
(0.562873 0.118194 0)
(0.547974 0.116828 0)
(0.53278 0.117825 0)
(0.517268 0.12069 0)
(0.501168 0.123275 0)
(0.484762 0.124871 0)
(0.468328 0.126025 0)
(0.45189 0.127403 0)
(0.435338 0.129235 0)
(0.418624 0.131279 0)
(0.401804 0.133184 0)
(0.384937 0.134828 0)
(0.368001 0.136361 0)
(0.350895 0.13795 0)
(0.333464 0.13954 0)
(0.315557 0.140999 0)
(0.297097 0.14236 0)
(0.278114 0.143713 0)
(0.258764 0.145061 0)
(0.239278 0.146383 0)
(0.219852 0.147687 0)
(0.200577 0.148977 0)
(0.181439 0.150294 0)
(0.162375 0.151703 0)
(0.143322 0.153297 0)
(0.12425 0.155179 0)
(0.105171 0.157445 0)
(0.0861008 0.160161 0)
(0.0670159 0.163203 0)
(0.0480329 0.167012 0)
(0.0287546 0.169327 0)
(0.00993688 0.172952 0)
(3 2.55645e-16 0)
(3 8.31941e-16 0)
(3 1.16202e-15 0)
(3 1.10937e-15 0)
(3 1.09956e-15 0)
(3 1.02772e-15 0)
(3 1.16151e-15 0)
(3 1.35493e-15 0)
(3 1.11128e-15 0)
(3 1.09975e-15 0)
(3 1.08259e-15 0)
(3 1.23932e-15 0)
(3 1.24463e-15 0)
(3 8.20491e-16 0)
(3 7.37986e-16 0)
(3 5.50249e-16 0)
(3 6.80871e-16 0)
(3 5.7014e-16 0)
(3 -1.33691e-16 0)
(3 -1.06843e-15 0)
(3 -1.42488e-15 0)
(3 -1.25025e-15 0)
(3 -1.11548e-15 0)
(3 -7.25073e-16 0)
(3 -8.7755e-16 0)
(3 -3.20575e-15 0)
(3 -3.63382e-15 0)
(3 -3.72127e-15 0)
(3 -3.33519e-15 0)
(3 -3.62957e-15 0)
(3 -3.2817e-15 0)
(3 -2.55849e-15 0)
(3 -2.27003e-15 0)
(3 -2.38163e-15 0)
(3 -3.30438e-15 0)
(3 -3.51878e-15 0)
(3 -3.54379e-15 0)
(3 -2.71895e-15 0)
(3 -2.66308e-15 0)
(3 -2.6517e-15 0)
(3 -2.43038e-15 0)
(3 -1.61103e-15 0)
(3 -1.0268e-15 0)
(3 -4.50877e-18 0)
(3 1.95457e-16 0)
(3 2.51343e-16 0)
(3 -1.9634e-16 0)
(3 -7.57283e-16 0)
(3.00005 3.19985e-05 0)
(1.21995 0.136198 0)
(0.776363 0.115565 0)
(0.754953 0.11978 0)
(0.742093 0.124592 0)
(0.726837 0.127033 0)
(0.711236 0.129558 0)
(0.694578 0.13146 0)
(0.677885 0.132083 0)
(0.662269 0.131897 0)
(0.647974 0.132155 0)
(0.634265 0.132581 0)
(0.620199 0.132436 0)
(0.60533 0.133963 0)
(0.590654 0.13885 0)
(0.575884 0.143374 0)
(0.561188 0.143366 0)
(0.546759 0.141783 0)
(0.532044 0.142961 0)
(0.517144 0.146508 0)
(0.501641 0.149931 0)
(0.485728 0.152049 0)
(0.469748 0.153431 0)
(0.453784 0.155149 0)
(0.437724 0.15759 0)
(0.421453 0.160346 0)
(0.405003 0.162926 0)
(0.388459 0.165211 0)
(0.371822 0.167362 0)
(0.354997 0.169538 0)
(0.337815 0.171698 0)
(0.320106 0.173711 0)
(0.301776 0.175594 0)
(0.282845 0.177429 0)
(0.26345 0.179203 0)
(0.243806 0.180875 0)
(0.224108 0.182439 0)
(0.204456 0.183888 0)
(0.18486 0.185261 0)
(0.165293 0.186624 0)
(0.145731 0.188094 0)
(0.126176 0.189831 0)
(0.106653 0.191956 0)
(0.0872019 0.194673 0)
(0.0677763 0.197767 0)
(0.0485602 0.201945 0)
(0.0290313 0.204496 0)
(0.0100711 0.208559 0)
(3 1.25181e-16 0)
(3 -2.17965e-17 0)
(3 -2.68302e-16 0)
(3 -2.31335e-16 0)
(3 8.47584e-17 0)
(3 -3.17225e-16 0)
(3 2.15581e-17 0)
(3 4.62865e-16 0)
(3 7.75083e-16 0)
(3 6.80351e-16 0)
(3 6.5014e-16 0)
(3 9.20666e-16 0)
(3 1.29809e-15 0)
(3 9.90361e-16 0)
(3 6.07466e-16 0)
(3 3.82155e-16 0)
(3 3.83624e-16 0)
(3 -1.75058e-16 0)
(3 -5.16641e-16 0)
(3 -1.03626e-15 0)
(3 -1.58227e-15 0)
(3 -1.31386e-15 0)
(3 -1.02802e-15 0)
(3 -9.47714e-16 0)
(3 -1.24181e-15 0)
(3 -1.16306e-15 0)
(3 -8.53161e-16 0)
(3 -1.14905e-15 0)
(3 -1.88802e-15 0)
(3 -2.04578e-15 0)
(3 -2.13422e-15 0)
(3 -2.18511e-15 0)
(3 -2.04175e-15 0)
(3 -2.07597e-15 0)
(3 -2.37705e-15 0)
(3 -2.02448e-15 0)
(3 -2.69152e-15 0)
(3 -3.01777e-15 0)
(3 -2.69981e-15 0)
(3 -1.60623e-15 0)
(3 -8.56069e-16 0)
(3 -7.15668e-16 0)
(3 4.79104e-16 0)
(3 1.59037e-15 0)
(3 2.14799e-15 0)
(3 1.99705e-15 0)
(3 9.98358e-16 0)
(3 6.20794e-16 0)
(3 5.35553e-08 0)
(1.4216 0.16724 0)
(0.790426 0.144899 0)
(0.755011 0.138887 0)
(0.742586 0.145779 0)
(0.726476 0.150571 0)
(0.710508 0.155135 0)
(0.693636 0.1575 0)
(0.677169 0.156749 0)
(0.66196 0.154223 0)
(0.647855 0.152927 0)
(0.634403 0.153599 0)
(0.620619 0.154975 0)
(0.606146 0.158062 0)
(0.591924 0.163674 0)
(0.57757 0.168063 0)
(0.56344 0.167644 0)
(0.549604 0.165691 0)
(0.535501 0.166838 0)
(0.521416 0.170928 0)
(0.506797 0.175314 0)
(0.491646 0.17822 0)
(0.476353 0.179909 0)
(0.46109 0.181864 0)
(0.445761 0.184832 0)
(0.430147 0.188325 0)
(0.414194 0.191679 0)
(0.398017 0.194764 0)
(0.381667 0.197758 0)
(0.365075 0.20079 0)
(0.348081 0.203812 0)
(0.330494 0.206694 0)
(0.312194 0.209431 0)
(0.293166 0.212087 0)
(0.273521 0.214632 0)
(0.253459 0.217001 0)
(0.233189 0.219166 0)
(0.212834 0.221099 0)
(0.19244 0.222811 0)
(0.172008 0.224359 0)
(0.151552 0.225856 0)
(0.131101 0.227523 0)
(0.110699 0.229478 0)
(0.0904162 0.232112 0)
(0.0701909 0.235085 0)
(0.0502749 0.239488 0)
(0.0300412 0.242194 0)
(0.0104306 0.246599 0)
(3 -3.91311e-17 0)
(3 -5.91598e-16 0)
(3 -7.70621e-16 0)
(3 -6.33064e-16 0)
(3 -5.50703e-16 0)
(3 -4.67967e-16 0)
(3 -5.83499e-16 0)
(3 -6.81594e-16 0)
(3 -6.59171e-16 0)
(3 -4.27501e-16 0)
(3 -4.25777e-16 0)
(3 -7.25292e-16 0)
(3 -1.19623e-15 0)
(3 -1.74699e-15 0)
(3 -1.66209e-15 0)
(3 -1.27774e-15 0)
(3 -1.36557e-15 0)
(3 -1.61306e-15 0)
(3 -1.38298e-15 0)
(3 -5.05516e-16 0)
(3 4.36479e-16 0)
(3 1.22029e-17 0)
(3 -1.00736e-15 0)
(3 -1.26578e-15 0)
(3 -1.43355e-15 0)
(3 -1.4195e-15 0)
(3 -8.49154e-16 0)
(3 -7.08942e-16 0)
(3 -1.20712e-15 0)
(3 -1.72983e-15 0)
(3 -1.96843e-15 0)
(3 -2.49444e-15 0)
(3 -2.80629e-15 0)
(3 -2.52284e-15 0)
(3 -1.97544e-15 0)
(3 -9.46755e-16 0)
(3 -5.42323e-16 0)
(3 -2.30724e-16 0)
(3 -1.80459e-16 0)
(3 1.31851e-16 0)
(3 1.41721e-16 0)
(3 4.66022e-16 0)
(3 5.54935e-16 0)
(3 1.03262e-15 0)
(3 1.06606e-15 0)
(3 6.17737e-16 0)
(3 4.64501e-16 0)
(3 5.71245e-18 0)
(3 1.47501e-10 0)
(1.7339 0.189439 0)
(0.819275 0.177499 0)
(0.76155 0.162225 0)
(0.747276 0.169434 0)
(0.730369 0.176075 0)
(0.713962 0.182014 0)
(0.696853 0.184325 0)
(0.680301 0.1824 0)
(0.664836 0.17804 0)
(0.650041 0.175296 0)
(0.635904 0.176006 0)
(0.621739 0.178755 0)
(0.607159 0.183308 0)
(0.592915 0.189474 0)
(0.578568 0.19363 0)
(0.56449 0.192924 0)
(0.550678 0.19054 0)
(0.536601 0.191343 0)
(0.5228 0.195721 0)
(0.508763 0.201107 0)
(0.494197 0.205096 0)
(0.479454 0.207279 0)
(0.464831 0.209402 0)
(0.45031 0.212828 0)
(0.435583 0.217144 0)
(0.420417 0.221435 0)
(0.404922 0.225484 0)
(0.389211 0.229503 0)
(0.37325 0.233597 0)
(0.356884 0.237697 0)
(0.339901 0.241668 0)
(0.322133 0.245483 0)
(0.303519 0.249182 0)
(0.284118 0.252716 0)
(0.2641 0.255995 0)
(0.243666 0.258977 0)
(0.222952 0.261616 0)
(0.202013 0.263901 0)
(0.180869 0.265864 0)
(0.159554 0.26759 0)
(0.138133 0.269343 0)
(0.116675 0.271189 0)
(0.0953007 0.273735 0)
(0.0739534 0.276446 0)
(0.0529702 0.280938 0)
(0.031661 0.283716 0)
(0.0109829 0.288388 0)
(3 -8.25686e-17 0)
(3 -2.36201e-16 0)
(3 -5.98973e-16 0)
(3 -8.03138e-16 0)
(3 -9.28642e-16 0)
(3 -8.6054e-16 0)
(3 -8.43607e-16 0)
(3 -9.25133e-16 0)
(3 -1.04478e-15 0)
(3 -9.52176e-16 0)
(3 -1.44627e-15 0)
(3 -2.75229e-15 0)
(3 -3.10655e-15 0)
(3 -2.70517e-15 0)
(3 -1.48184e-15 0)
(3 -5.18182e-16 0)
(3 -6.06761e-16 0)
(3 -9.24039e-16 0)
(3 -6.65747e-16 0)
(3 -4.30611e-16 0)
(3 6.36612e-17 0)
(3 -2.78556e-17 0)
(3 -2.37463e-16 0)
(3 -4.62295e-16 0)
(3 -7.80441e-16 0)
(3 -1.32595e-15 0)
(3 -1.50002e-15 0)
(3 -1.29139e-15 0)
(3 -9.51937e-16 0)
(3 -1.05362e-15 0)
(3 -1.26657e-15 0)
(3 -1.57729e-15 0)
(3 -2.23128e-15 0)
(3 -2.15044e-15 0)
(3 -4.06769e-16 0)
(3 -5.29721e-17 0)
(3 5.11926e-16 0)
(3 9.62398e-16 0)
(3 1.21551e-15 0)
(3 1.13962e-15 0)
(3 9.79638e-16 0)
(3 8.15237e-16 0)
(3 8.49686e-16 0)
(3 1.25502e-15 0)
(3 1.16962e-15 0)
(3 5.82e-16 0)
(3 6.33643e-16 0)
(3 3.77292e-16 0)
(3 3.51122e-13 0)
(2.15454 0.197818 0)
(0.85972 0.218447 0)
(0.759121 0.190768 0)
(0.743844 0.19691 0)
(0.729319 0.204118 0)
(0.715811 0.210855 0)
(0.701143 0.213267 0)
(0.686044 0.211099 0)
(0.67098 0.205962 0)
(0.655858 0.201952 0)
(0.641077 0.202138 0)
(0.626629 0.205595 0)
(0.612074 0.211044 0)
(0.597887 0.217384 0)
(0.583586 0.221394 0)
(0.569262 0.220838 0)
(0.554966 0.218199 0)
(0.540292 0.218241 0)
(0.525981 0.222226 0)
(0.511875 0.228122 0)
(0.497385 0.233127 0)
(0.482632 0.235848 0)
(0.468037 0.237833 0)
(0.453725 0.241269 0)
(0.43945 0.246148 0)
(0.424777 0.251289 0)
(0.409751 0.256235 0)
(0.394583 0.261243 0)
(0.3793 0.266456 0)
(0.36375 0.271772 0)
(0.34768 0.277041 0)
(0.330846 0.282211 0)
(0.313088 0.287299 0)
(0.294362 0.292242 0)
(0.274759 0.296924 0)
(0.254451 0.301266 0)
(0.233586 0.305181 0)
(0.212254 0.308597 0)
(0.190509 0.311484 0)
(0.168417 0.31386 0)
(0.146068 0.316024 0)
(0.123533 0.317952 0)
(0.100977 0.320489 0)
(0.0783582 0.322834 0)
(0.0561097 0.327257 0)
(0.0335504 0.329995 0)
(0.0115976 0.334872 0)
(3 -9.00993e-18 0)
(3 3.59974e-17 0)
(3 1.45825e-17 0)
(3 -3.54173e-16 0)
(3 -5.56934e-16 0)
(3 -8.89699e-16 0)
(3 -1.15703e-15 0)
(3 -1.24031e-15 0)
(3 -1.44182e-15 0)
(3 -1.81666e-15 0)
(3 -1.92889e-15 0)
(3 -1.97691e-15 0)
(3 -1.76882e-15 0)
(3 -1.21964e-15 0)
(3 -1.06623e-15 0)
(3 -1.3283e-15 0)
(3 2.02248e-16 0)
(3 6.97844e-16 0)
(3 1.577e-15 0)
(3 1.86946e-15 0)
(3 1.65758e-15 0)
(3 1.25173e-15 0)
(3 1.1605e-15 0)
(3 1.10584e-15 0)
(3 8.06584e-16 0)
(3 3.48201e-16 0)
(3 -1.934e-17 0)
(3 -2.87118e-16 0)
(3 -2.57025e-16 0)
(3 -1.12167e-16 0)
(3 -5.06159e-17 0)
(3 2.70812e-16 0)
(3 4.59329e-16 0)
(3 4.12122e-16 0)
(3 1.95244e-16 0)
(3 4.74294e-16 0)
(3 6.72296e-16 0)
(3 4.53112e-16 0)
(3 3.21889e-16 0)
(3 4.986e-16 0)
(3 -1.55026e-17 0)
(3 9.96188e-16 0)
(3 1.81942e-15 0)
(3 2.28987e-15 0)
(3 2.09052e-15 0)
(3 1.90463e-15 0)
(3 2.04501e-15 0)
(3 1.69949e-15 0)
(3 2.47218e-15 0)
(2.69146 0.174059 0)
(0.963324 0.260313 0)
(0.783541 0.226042 0)
(0.770637 0.219556 0)
(0.753882 0.224617 0)
(0.740013 0.23149 0)
(0.725407 0.236113 0)
(0.710041 0.236465 0)
(0.694467 0.233001 0)
(0.678683 0.229039 0)
(0.662811 0.228854 0)
(0.647408 0.232751 0)
(0.632168 0.238855 0)
(0.617359 0.245446 0)
(0.602652 0.2501 0)
(0.587654 0.250928 0)
(0.572401 0.24906 0)
(0.556643 0.248567 0)
(0.541059 0.251756 0)
(0.526051 0.257708 0)
(0.511025 0.263771 0)
(0.495575 0.267549 0)
(0.480097 0.269614 0)
(0.464904 0.272787 0)
(0.449995 0.277887 0)
(0.434841 0.283645 0)
(0.419301 0.289201 0)
(0.403683 0.294819 0)
(0.38816 0.300803 0)
(0.372633 0.307096 0)
(0.35684 0.313534 0)
(0.340495 0.320048 0)
(0.323378 0.326628 0)
(0.30536 0.333188 0)
(0.286444 0.33956 0)
(0.266735 0.345606 0)
(0.246325 0.351189 0)
(0.225248 0.356176 0)
(0.203492 0.360507 0)
(0.181035 0.364132 0)
(0.157928 0.367385 0)
(0.134205 0.370076 0)
(0.110105 0.373198 0)
(0.0856098 0.375547 0)
(0.0613342 0.380013 0)
(0.0366932 0.382718 0)
(0.012638 0.387858 0)
(3 -1.98266e-17 0)
(3 -1.46036e-16 0)
(3 -1.07489e-16 0)
(3 -9.49689e-17 0)
(3 1.2294e-16 0)
(3 2.82567e-16 0)
(3 2.24681e-16 0)
(3 -3.3109e-17 0)
(3 -3.67962e-16 0)
(3 -8.6278e-16 0)
(3 -8.01451e-16 0)
(3 -4.41915e-16 0)
(3 2.69993e-16 0)
(3 2.66229e-16 0)
(3 5.90873e-17 0)
(3 -1.96683e-16 0)
(3 6.85138e-16 0)
(3 1.13975e-15 0)
(3 1.76635e-15 0)
(3 1.82361e-15 0)
(3 1.79487e-15 0)
(3 1.28544e-15 0)
(3 1.19332e-15 0)
(3 1.27655e-15 0)
(3 1.43084e-15 0)
(3 1.0014e-15 0)
(3 3.51145e-16 0)
(3 -6.24041e-17 0)
(3 -1.53064e-16 0)
(3 -8.83516e-17 0)
(3 2.86768e-16 0)
(3 8.22329e-16 0)
(3 1.24843e-15 0)
(3 1.23476e-15 0)
(3 5.05643e-17 0)
(3 1.53074e-18 0)
(3 6.07032e-16 0)
(3 1.60009e-15 0)
(3 1.77896e-15 0)
(3 1.59474e-15 0)
(3 1.20004e-15 0)
(3 1.35575e-15 0)
(3 1.01566e-15 0)
(3 6.2371e-16 0)
(3 7.50845e-16 0)
(3 2.03147e-15 0)
(3 2.38068e-15 0)
(3 2.23511e-15 0)
(3 1.50523e-15 0)
(3.02045 0.00986829 0)
(1.1515 0.276766 0)
(0.808358 0.231689 0)
(0.79403 0.245278 0)
(0.77787 0.252763 0)
(0.762803 0.258799 0)
(0.748808 0.263071 0)
(0.734944 0.263979 0)
(0.720795 0.261911 0)
(0.705971 0.258679 0)
(0.690432 0.258009 0)
(0.675035 0.261377 0)
(0.659844 0.266981 0)
(0.64504 0.272917 0)
(0.630694 0.277811 0)
(0.616122 0.280302 0)
(0.600899 0.280235 0)
(0.584925 0.279836 0)
(0.568641 0.281799 0)
(0.552807 0.28697 0)
(0.537386 0.293827 0)
(0.521524 0.299502 0)
(0.50523 0.302667 0)
(0.489017 0.305807 0)
(0.473153 0.311026 0)
(0.457221 0.317494 0)
(0.440795 0.323844 0)
(0.424162 0.330086 0)
(0.407682 0.336744 0)
(0.391384 0.343921 0)
(0.375028 0.351462 0)
(0.358306 0.359271 0)
(0.34095 0.367353 0)
(0.322749 0.375658 0)
(0.303591 0.384035 0)
(0.283479 0.392315 0)
(0.262459 0.400339 0)
(0.240533 0.407894 0)
(0.217709 0.414805 0)
(0.194002 0.420797 0)
(0.169585 0.426107 0)
(0.144499 0.430283 0)
(0.118994 0.434533 0)
(0.0927841 0.437297 0)
(0.0664575 0.441733 0)
(0.0397211 0.444178 0)
(0.0134981 0.449358 0)
(3 9.64893e-17 0)
(3 2.05059e-16 0)
(3 9.02564e-17 0)
(3 3.32904e-16 0)
(3 5.34212e-16 0)
(3 5.81071e-16 0)
(3 6.15917e-16 0)
(3 4.79304e-16 0)
(3 4.74407e-16 0)
(3 -6.66197e-17 0)
(3 -4.26848e-16 0)
(3 3.28677e-16 0)
(3 1.18534e-15 0)
(3 1.26317e-15 0)
(3 1.13634e-15 0)
(3 8.60535e-16 0)
(3 3.79223e-16 0)
(3 -1.85662e-16 0)
(3 -1.26917e-15 0)
(3 -1.70155e-15 0)
(3 -1.51531e-15 0)
(3 -1.11542e-15 0)
(3 -7.37184e-16 0)
(3 -1.77743e-16 0)
(3 9.05817e-16 0)
(3 1.33103e-15 0)
(3 1.10566e-15 0)
(3 1.05726e-15 0)
(3 6.24277e-16 0)
(3 3.33798e-16 0)
(3 3.80288e-16 0)
(3 2.75571e-16 0)
(3 -5.70662e-17 0)
(3 1.42655e-16 0)
(3 4.57732e-17 0)
(3 -1.53751e-16 0)
(3 1.23092e-15 0)
(3 1.78168e-15 0)
(3 2.08225e-15 0)
(3 9.99301e-16 0)
(3 3.77634e-16 0)
(3 -3.62919e-16 0)
(3 -7.03446e-16 0)
(3 -1.30893e-15 0)
(3 -1.36862e-17 0)
(3 4.78912e-16 0)
(3 9.90523e-16 0)
(3 1.48894e-15 0)
(3 1.55574e-15 0)
(3.00029 9.75076e-06 0)
(1.56456 0.308382 0)
(0.826005 0.274654 0)
(0.779372 0.281185 0)
(0.76467 0.287584 0)
(0.751343 0.289539 0)
(0.739998 0.291386 0)
(0.728794 0.292808 0)
(0.716967 0.293279 0)
(0.704095 0.292672 0)
(0.690206 0.293016 0)
(0.676072 0.296302 0)
(0.662064 0.301389 0)
(0.648307 0.306452 0)
(0.635267 0.311249 0)
(0.622553 0.315237 0)
(0.609327 0.317439 0)
(0.595242 0.318296 0)
(0.580394 0.319627 0)
(0.565397 0.323511 0)
(0.550944 0.330269 0)
(0.536482 0.337497 0)
(0.521299 0.342284 0)
(0.505841 0.345587 0)
(0.490557 0.350469 0)
(0.475343 0.357184 0)
(0.459539 0.364177 0)
(0.443193 0.370894 0)
(0.426803 0.377923 0)
(0.410615 0.385647 0)
(0.394476 0.394009 0)
(0.378062 0.40288 0)
(0.361088 0.412279 0)
(0.343337 0.422221 0)
(0.324672 0.432577 0)
(0.305086 0.443144 0)
(0.284647 0.453719 0)
(0.263336 0.463953 0)
(0.241102 0.473568 0)
(0.217741 0.482047 0)
(0.193282 0.489733 0)
(0.167363 0.496242 0)
(0.1401 0.50333 0)
(0.11064 0.509242 0)
(0.0797281 0.515635 0)
(0.0476164 0.518823 0)
(0.0159237 0.523841 0)
(3 8.47348e-17 0)
(3 3.07488e-16 0)
(3 6.85162e-19 0)
(3 -1.85594e-16 0)
(3 -2.87211e-16 0)
(3 -4.54377e-16 0)
(3 -5.5982e-16 0)
(3 -7.19904e-16 0)
(3 -6.94114e-16 0)
(3 -5.2929e-16 0)
(3 -3.67668e-16 0)
(3 -7.92663e-17 0)
(3 3.044e-17 0)
(3 2.90097e-16 0)
(3 8.0228e-16 0)
(3 7.70729e-16 0)
(3 4.31559e-16 0)
(3 2.33086e-16 0)
(3 -4.76201e-17 0)
(3 -3.08443e-16 0)
(3 -5.45846e-16 0)
(3 -5.72958e-16 0)
(3 -6.69659e-16 0)
(3 3.79125e-19 0)
(3 1.30941e-15 0)
(3 1.79158e-15 0)
(3 1.84835e-15 0)
(3 9.40241e-16 0)
(3 8.87609e-16 0)
(3 1.27297e-15 0)
(3 2.15598e-15 0)
(3 1.93065e-15 0)
(3 1.67823e-15 0)
(3 1.5036e-15 0)
(3 1.87467e-15 0)
(3 2.03508e-15 0)
(3 1.76896e-15 0)
(3 9.4876e-16 0)
(3 5.24964e-16 0)
(3 1.28977e-16 0)
(3 -6.17134e-16 0)
(3 -1.42853e-15 0)
(3 -2.09347e-15 0)
(3 -2.24061e-15 0)
(3 -2.82979e-15 0)
(3 -2.16635e-15 0)
(3 -1.07469e-15 0)
(3 -3.92214e-16 0)
(3 -4.58052e-16 0)
(3 1.65443e-08 0)
(2.38961 0.278157 0)
(0.923937 0.33462 0)
(0.791461 0.323489 0)
(0.77859 0.314207 0)
(0.764418 0.313686 0)
(0.752665 0.315006 0)
(0.74141 0.317978 0)
(0.729952 0.321316 0)
(0.717686 0.323706 0)
(0.704613 0.325394 0)
(0.691226 0.328378 0)
(0.677839 0.332451 0)
(0.664426 0.336261 0)
(0.651518 0.340293 0)
(0.639424 0.344999 0)
(0.627439 0.349434 0)
(0.614695 0.352522 0)
(0.600989 0.354403 0)
(0.586592 0.35734 0)
(0.5724 0.363471 0)
(0.558837 0.371831 0)
(0.544858 0.379069 0)
(0.530293 0.383801 0)
(0.515651 0.388863 0)
(0.501145 0.395973 0)
(0.48619 0.404085 0)
(0.470442 0.412043 0)
(0.45432 0.420046 0)
(0.43829 0.428723 0)
(0.42239 0.438218 0)
(0.40636 0.4485 0)
(0.389745 0.45948 0)
(0.3724 0.471244 0)
(0.354034 0.483801 0)
(0.334567 0.497011 0)
(0.313983 0.510768 0)
(0.292092 0.52476 0)
(0.268717 0.538869 0)
(0.243354 0.55251 0)
(0.216044 0.56595 0)
(0.186607 0.578617 0)
(0.155889 0.591562 0)
(0.124076 0.603377 0)
(0.0909594 0.612955 0)
(0.0559131 0.61793 0)
(0.0179145 0.621068 0)
(3 1.15611e-17 0)
(3 4.65962e-17 0)
(3 9.96765e-17 0)
(3 1.66314e-16 0)
(3 3.2543e-16 0)
(3 2.22378e-16 0)
(3 1.284e-16 0)
(3 -7.73678e-17 0)
(3 -1.21165e-16 0)
(3 1.55393e-16 0)
(3 3.85884e-16 0)
(3 1.84594e-16 0)
(3 -1.3934e-16 0)
(3 2.86558e-16 0)
(3 9.23724e-16 0)
(3 1.33757e-15 0)
(3 2.08087e-15 0)
(3 2.3328e-15 0)
(3 2.03174e-15 0)
(3 1.0941e-15 0)
(3 7.38272e-16 0)
(3 6.88877e-16 0)
(3 7.09285e-16 0)
(3 5.92861e-16 0)
(3 5.76406e-16 0)
(3 4.85699e-16 0)
(3 1.13911e-15 0)
(3 1.41954e-15 0)
(3 1.51041e-15 0)
(3 2.39003e-15 0)
(3 3.00355e-15 0)
(3 2.87405e-15 0)
(3 3.41135e-15 0)
(3 3.45406e-15 0)
(3 2.99276e-15 0)
(3 2.57644e-15 0)
(3 1.60583e-15 0)
(3 1.39411e-15 0)
(3 9.63914e-16 0)
(3 1.4121e-16 0)
(3 -1.09609e-15 0)
(3 -1.41103e-15 0)
(3 -2.92243e-15 0)
(3 -3.14077e-15 0)
(3 -3.15625e-15 0)
(3 -3.07277e-15 0)
(3 -2.87578e-15 0)
(3 -2.7477e-15 0)
(3 -2.52462e-15 0)
(3 -6.39021e-09 0)
(3.02696 0.0169413 0)
(1.2588 0.373543 0)
(0.841714 0.336076 0)
(0.818672 0.336747 0)
(0.804115 0.333926 0)
(0.78959 0.334367 0)
(0.776294 0.33857 0)
(0.763405 0.344589 0)
(0.750351 0.350186 0)
(0.736759 0.353899 0)
(0.722978 0.35701 0)
(0.70919 0.36056 0)
(0.695214 0.363982 0)
(0.681372 0.367691 0)
(0.668363 0.372749 0)
(0.656269 0.378992 0)
(0.644032 0.384914 0)
(0.630805 0.389012 0)
(0.61667 0.392051 0)
(0.602298 0.397257 0)
(0.588726 0.405708 0)
(0.575616 0.414975 0)
(0.561986 0.422082 0)
(0.548075 0.427913 0)
(0.534282 0.435197 0)
(0.520347 0.44426 0)
(0.505665 0.453889 0)
(0.49025 0.463513 0)
(0.474656 0.4737 0)
(0.459166 0.484726 0)
(0.443849 0.496703 0)
(0.428222 0.509622 0)
(0.411794 0.523575 0)
(0.394465 0.538795 0)
(0.376055 0.555277 0)
(0.356603 0.573083 0)
(0.335972 0.592 0)
(0.314164 0.611953 0)
(0.290829 0.632289 0)
(0.265906 0.652457 0)
(0.23924 0.671212 0)
(0.210467 0.687451 0)
(0.179645 0.70319 0)
(0.142999 0.721671 0)
(0.0971548 0.743774 0)
(0.0371689 0.762998 0)
(3 -4.88548e-17 0)
(3 -1.94485e-16 0)
(3 7.85228e-17 0)
(3 1.49395e-16 0)
(3 6.81868e-19 0)
(3 1.86381e-17 0)