/*--------------------------------*- C++ -*----------------------------------*\
  =========                 |
  \\      /  F ield         | OpenFOAM: The Open Source CFD Toolbox
   \\    /   O peration     | Website:  https://openfoam.org
    \\  /    A nd           | Version:  7
     \\/     M anipulation  |
\*---------------------------------------------------------------------------*/
FoamFile
{
    version     2.0;
    format      ascii;
    class       volScalarField;
    location    "0.007";
    object      mag(U);
}
// * * * * * * * * * * * * * * * * * * * * * * * * * * * * * * * * * * * * * //

dimensions      [0 1 -1 0 0 0 0];

internalField   nonuniform List<scalar> 
1000
(
9.80267e-13
9.10248e-13
1.01528e-12
9.68597e-13
9.21917e-13
8.63568e-13
7.93549e-13
7.93549e-13
8.86908e-13
7.4687e-13
8.40228e-13
6.65181e-13
6.65181e-13
6.53511e-13
8.05219e-13
9.80267e-13
7.1186e-13
9.21917e-13
8.51898e-13
1.10863e-12
6.06832e-13
9.10248e-13
6.76851e-13
8.51898e-13
9.91936e-13
9.56927e-13
8.51898e-13
1.02695e-12
8.75238e-13
9.56927e-13
8.86908e-13
6.18502e-13
4.66794e-13
3.85105e-13
1.63378e-13
1.05029e-13
9.33587e-14
3.50095e-13
3.38425e-13
7.70209e-13
8.28559e-13
1.24867e-12
1.20199e-12
1.1203e-12
1.06196e-12
8.16889e-13
9.91936e-13
7.2353e-13
8.16889e-13
5.71822e-13
1.06196e-12
9.45257e-13
1.00361e-12
1.31869e-12
8.63568e-13
8.40228e-13
5.01803e-13
3.73435e-13
1.98387e-13
3.85105e-13
1.28368e-13
5.83492e-13
4.20114e-13
3.03416e-13
2.21727e-13
4.08444e-13
3.38425e-13
1.16698e-13
2.80076e-13
3.38425e-13
3.26756e-13
4.78463e-13
2.45067e-13
3.61765e-13
3.61765e-13
4.20114e-13
4.31784e-13
3.50095e-13
2.45067e-13
5.83492e-14
1.16698e-14
8.16889e-14
1.16698e-13
1.51708e-13
2.21727e-13
3.50095e-14
1.16698e-14
2.33397e-13
9.33587e-14
2.56736e-13
3.38425e-13
3.50095e-13
4.55124e-13
1.75048e-13
1.63378e-13
8.16889e-14
5.01803e-13
9.33587e-14
3.85105e-13
1.40038e-13
5.25143e-13
1.51708e-13
4.55124e-13
1.16698e-13
2.68406e-13
9.33587e-14
2.80076e-13
5.83492e-14
2.45067e-13
1.51708e-13
2.68406e-13
3.96775e-13
3.73435e-13
3.96775e-13
3.38425e-13
3.15086e-13
1.63378e-13
2.33397e-13
4.66794e-14
1.98387e-13
1.75048e-13
3.96775e-13
1.16698e-14
8.16889e-14
1.00848e-26
3.73435e-13
1.51708e-13
1.75048e-13
2.33397e-13
3.73435e-13
1.40038e-13
4.66794e-14
1.28368e-13
1.86717e-13
1.71025e-27
9.33587e-14
1.63378e-13
3.50095e-14
1.05029e-13
2.33397e-14
3.96775e-13
1.16698e-13
3.96775e-13
2.33692e-26
2.56736e-13
2.33397e-13
3.50095e-13
1.0853e-12
1.62211e-12
3.29089e-12
5.3798e-12
1.02111e-11
1.68629e-11
2.9303e-11
4.93284e-11
8.39995e-11
1.40377e-10
2.35684e-10
3.91955e-10
6.50594e-10
1.0734e-09
1.76401e-09
2.88668e-09
4.70305e-09
7.62901e-09
1.23212e-08
1.98117e-08
3.17147e-08
5.05417e-08
8.01825e-08
1.26629e-07
1.99065e-07
3.11494e-07
4.85152e-07
7.5208e-07
1.16035e-06
1.78171e-06
2.72263e-06
4.14023e-06
6.2651e-06
9.43361e-06
1.41337e-05
2.10689e-05
3.12474e-05
4.61056e-05
6.76766e-05
9.88206e-05
0.000143535
0.000207372
0.000297988
0.000425874
0.000605305
0.000855566
0.00120253
0.00168064
0.00233541
0.00322656
0.00443176
0.00605127
0.00821341
0.011081
0.0148591
0.0198029
0.026228
0.0345203
0.0451473
0.0586695
0.0757515
0.0971734
0.12384
0.156787
0.19719
0.246359
0.305743
0.376916
0.461563
0.561467
0.678478
0.814486
0.971386
1.15104
1.35525
1.5857
1.84394
2.13135
2.44908
2.7981
3.17911
3.59259
4.03877
4.51764
5.02898
5.57234
6.14711
6.75252
7.38764
8.05145
8.74285
9.46065
10.2037
10.9706
11.7604
12.5716
13.4032
14.2539
15.1227
16.0084
16.9101
17.8268
18.7575
19.7013
20.6576
21.6254
22.6041
23.593
24.5916
25.5991
26.6152
27.6393
28.6708
29.7095
30.755
31.8067
32.8645
33.9279
34.9967
36.0706
37.1494
38.2327
39.3205
40.4124
41.5082
42.6079
43.7111
44.8178
45.9277
47.0408
48.1569
49.2758
50.3974
51.5217
52.6484
53.7775
54.9089
56.0425
57.1781
58.3158
59.4554
60.5968
61.7399
62.8848
64.0312
65.1792
66.3287
67.4796
68.6319
69.7855
70.9403
72.0964
73.2536
74.4119
75.5713
76.7317
77.8931
79.0555
80.2188
81.383
82.548
83.7138
84.8804
86.0478
87.216
88.3848
89.5543
90.7245
91.8953
93.0667
94.2387
95.4113
96.5844
97.7581
98.9323
100.107
101.282
102.458
103.634
104.81
105.987
107.165
108.342
109.521
110.699
111.878
113.057
114.237
115.417
116.597
117.777
118.958
120.139
121.321
122.502
123.684
124.867
126.049
127.232
128.414
129.598
130.781
131.964
133.148
134.332
135.516
136.701
137.885
139.07
140.255
141.44
142.625
143.81
144.996
146.181
147.367
148.553
149.739
150.925
152.112
153.298
154.484
155.671
156.858
158.045
159.232
160.419
161.606
162.793
163.981
165.168
166.355
167.543
168.731
169.918
171.106
172.294
173.482
174.669
175.857
177.045
178.234
179.422
180.61
181.798
182.987
184.175
185.364
186.552
187.741
188.929
190.118
191.306
192.495
193.684
194.872
196.061
197.25
198.439
199.628
200.816
202.005
203.194
204.383
205.572
206.761
207.95
209.139
210.327
211.516
212.705
213.894
215.083
216.272
217.461
218.65
219.839
221.028
222.217
223.406
224.595
225.784
226.972
228.161
229.35
230.539
231.728
232.917
234.105
235.294
236.483
237.672
238.86
240.049
241.238
242.427
243.615
244.804
245.992
247.181
248.369
249.558
250.746
251.935
253.123
254.312
255.5
256.688
257.877
259.065
260.253
261.441
262.629
263.818
265.006
266.194
267.382
268.57
269.757
270.945
272.133
273.321
274.509
275.696
276.884
278.071
279.259
280.447
281.634
282.821
284.009
285.196
286.383
287.57
288.757
289.945
291.132
292.319
293.505
294.692
295.879
297.066
298.252
299.439
300.626
301.812
302.999
304.185
305.371
306.557
307.744
308.93
310.116
311.302
312.488
313.673
314.859
316.045
317.23
318.416
319.601
320.787
321.972
323.157
324.342
325.528
326.713
327.897
329.082
330.267
331.452
332.636
333.821
335.005
336.19
337.374
338.558
339.742
340.926
342.11
343.294
344.477
345.661
346.844
348.028
349.211
350.394
351.577
352.76
353.943
355.126
356.309
357.491
358.674
359.856
361.038
362.221
363.403
364.585
365.766
366.948
368.13
369.311
370.492
371.673
372.854
374.035
375.216
376.397
377.577
378.758
379.938
381.118
382.298
383.478
384.657
385.837
387.016
388.195
389.375
390.553
391.732
392.911
394.089
395.267
396.445
397.623
398.801
399.978
401.156
402.333
403.51
404.687
405.863
407.039
408.216
409.392
410.567
411.743
412.918
414.093
415.268
416.443
417.617
418.791
419.965
421.139
422.312
423.485
424.658
425.831
427.003
428.175
429.347
430.518
431.689
432.86
434.031
435.201
436.371
437.54
438.709
439.878
441.047
442.215
443.382
444.55
445.717
446.883
448.049
449.215
450.38
451.545
452.71
453.874
455.037
456.2
457.363
458.524
459.686
460.847
462.007
463.167
464.326
465.485
466.643
467.8
468.957
470.113
471.268
472.423
473.577
474.73
475.883
477.034
478.185
479.335
480.484
481.633
482.78
483.927
485.072
486.217
487.36
488.503
489.644
490.784
491.924
493.062
494.198
495.334
496.468
497.601
498.733
499.863
500.991
502.119
503.244
504.368
505.49
506.611
507.73
508.847
509.962
511.075
512.186
513.295
514.402
515.507
516.609
517.709
518.806
519.901
520.993
522.083
523.169
524.253
525.333
526.411
527.485
528.556
529.623
530.686
531.746
532.802
533.854
534.902
535.945
536.984
538.018
539.047
540.071
541.09
542.104
543.112
544.115
545.111
546.101
547.085
548.062
549.032
549.995
550.951
551.899
552.839
553.771
554.694
555.609
556.515
557.411
558.298
559.175
560.042
560.897
561.743
562.576
563.399
564.209
565.007
565.792
566.565
567.324
568.07
568.802
569.519
570.222
570.91
571.583
572.241
572.882
573.508
574.117
574.71
575.286
575.845
576.388
576.912
577.42
577.91
578.383
578.838
579.275
579.695
580.098
580.483
580.852
581.203
581.537
581.855
582.156
582.442
582.712
582.966
583.206
583.431
583.642
583.839
584.023
584.195
584.354
584.502
584.639
584.765
584.881
584.988
585.086
585.175
585.257
585.33
585.398
585.458
585.513
585.562
585.606
585.645
585.679
585.71
585.737
585.761
585.782
585.8
585.816
585.829
585.841
585.851
585.859
585.866
585.872
585.876
585.88
585.883
585.885
585.887
585.888
585.889
585.889
585.889
585.888
585.888
585.887
585.886
585.885
585.884
585.882
585.881
585.88
585.879
585.877
585.876
585.875
585.874
585.872
585.871
585.87
585.869
585.868
585.867
585.866
585.865
585.864
585.863
585.863
585.862
585.861
585.861
585.86
585.859
585.859
585.858
585.858
585.857
585.857
585.856
585.856
585.856
585.855
585.855
585.855
585.854
585.854
585.854
585.854
585.854
585.853
585.853
585.853
585.853
585.853
585.853
585.853
585.853
585.853
585.853
585.853
585.853
585.853
585.854
585.854
585.854
585.854
585.854
585.854
585.855
585.855
585.855
585.855
585.855
585.856
585.856
585.856
585.856
585.856
585.856
585.856
585.855
585.855
585.855
585.854
585.853
585.852
585.851
585.85
585.848
585.847
585.844
585.842
585.839
585.836
585.833
585.83
585.826
585.822
585.818
585.814
585.81
585.806
585.802
585.798
585.794
585.791
585.789
585.787
585.786
585.786
585.786
585.786
585.786
585.787
585.789
585.792
585.796
585.8
585.806
585.811
585.817
585.824
585.83
585.837
585.843
585.85
585.856
585.862
585.868
585.873
585.878
585.882
585.886
585.889
585.892
585.895
585.898
585.901
585.904
585.906
585.908
585.91
585.912
585.914
585.916
585.917
585.919
585.92
585.922
585.923
585.924
585.925
585.926
585.927
585.928
585.93
585.931
585.932
585.933
585.934
585.935
585.936
585.937
585.939
585.94
585.941
585.942
585.943
585.945
585.946
585.947
585.948
585.949
585.95
585.951
585.953
585.954
585.956
585.959
585.962
585.965
585.969
585.973
585.979
585.987
585.998
586.014
586.037
586.071
586.117
586.18
586.262
586.366
586.493
586.641
586.802
586.963
587.1
587.183
)
;

boundaryField
{
    sides
    {
        type            calculated;
        value           nonuniform List<scalar> 2(587.183 9.80267e-13);
    }
    empty
    {
        type            empty;
    }
}


// ************************************************************************* //
