/*--------------------------------*- C++ -*----------------------------------*\
  =========                 |
  \\      /  F ield         | OpenFOAM: The Open Source CFD Toolbox
   \\    /   O peration     | Website:  https://openfoam.org
    \\  /    A nd           | Version:  7
     \\/     M anipulation  |
\*---------------------------------------------------------------------------*/
FoamFile
{
    version     2.0;
    format      ascii;
    class       volScalarField;
    location    "0.007";
    object      p;
}
// * * * * * * * * * * * * * * * * * * * * * * * * * * * * * * * * * * * * * //

dimensions      [1 -1 -2 0 0 0 0];

internalField   nonuniform List<scalar> 
1000
(
1e+06
1e+06
1e+06
1e+06
1e+06
1e+06
1e+06
1e+06
1e+06
1e+06
1e+06
1e+06
1e+06
1e+06
1e+06
1e+06
1e+06
1e+06
1e+06
1e+06
1e+06
1e+06
1e+06
1e+06
1e+06
1e+06
1e+06
1e+06
1e+06
1e+06
1e+06
1e+06
1e+06
1e+06
1e+06
1e+06
1e+06
1e+06
1e+06
1e+06
1e+06
1e+06
1e+06
1e+06
1e+06
1e+06
1e+06
1e+06
1e+06
1e+06
1e+06
1e+06
1e+06
1e+06
1e+06
1e+06
1e+06
1e+06
1e+06
1e+06
1e+06
1e+06
1e+06
1e+06
1e+06
1e+06
1e+06
1e+06
1e+06
1e+06
1e+06
1e+06
1e+06
1e+06
1e+06
1e+06
1e+06
1e+06
1e+06
1e+06
1e+06
1e+06
1e+06
1e+06
1e+06
1e+06
1e+06
1e+06
1e+06
1e+06
1e+06
1e+06
1e+06
1e+06
1e+06
1e+06
1e+06
1e+06
1e+06
1e+06
1e+06
1e+06
1e+06
1e+06
1e+06
1e+06
1e+06
1e+06
1e+06
1e+06
1e+06
1e+06
1e+06
1e+06
1e+06
1e+06
1e+06
1e+06
1e+06
1e+06
1e+06
1e+06
1e+06
1e+06
1e+06
1e+06
1e+06
1e+06
1e+06
1e+06
1e+06
1e+06
1e+06
1e+06
1e+06
1e+06
1e+06
1e+06
1e+06
1e+06
1e+06
1e+06
1e+06
1e+06
1e+06
1e+06
1e+06
1e+06
1e+06
1e+06
1e+06
1e+06
1e+06
1e+06
1e+06
1e+06
1e+06
1e+06
1e+06
1e+06
1e+06
1e+06
1e+06
1e+06
1e+06
1e+06
1e+06
1e+06
1e+06
1e+06
1e+06
1e+06
1e+06
1e+06
1e+06
1e+06
1e+06
1e+06
1e+06
1e+06
1e+06
1e+06
1e+06
1e+06
1e+06
1e+06
1e+06
999999
999999
999999
999998
999998
999997
999996
999994
999991
999988
999984
999978
999970
999959
999945
999927
999903
999872
999832
999782
999719
999639
999540
999417
999267
999083
998862
998597
998282
997910
997474
996967
996383
995715
994955
994098
993138
992071
990892
989599
988188
986659
985011
983245
981362
979364
977255
975038
972716
970294
967778
965171
962479
959707
956860
953942
950960
947918
944820
941670
938473
935232
931952
928636
925286
921907
918500
915070
911617
908144
904654
901147
897628
894095
890552
887000
883440
879874
876302
872725
869145
865562
861978
858393
854807
851223
847639
844058
840479
836903
833330
829761
826197
822638
819084
815536
811994
808458
804929
801407
797892
794385
790886
787394
783911
780437
776971
773515
770067
766628
763199
759780
756370
752970
749580
746201
742831
739472
736123
732784
729456
726139
722832
719536
716251
712977
709714
706461
703220
699990
696770
693562
690365
687180
684005
680842
677690
674549
671420
668301
665194
662099
659014
655941
652880
649829
646790
643762
640746
637741
634747
631764
628793
625833
622884
619947
617021
614106
611202
608309
605428
602558
599699
596851
594014
591188
588374
585570
582777
579996
577225
574466
571717
568979
566253
563537
560832
558138
555454
552781
550120
547468
544828
542198
539579
536970
534373
531785
529208
526642
524086
521541
519006
516482
513967
511464
508970
506488
504015
501552
499100
496657
494225
491803
489391
486989
484597
482215
479843
477481
475128
472786
470454
468131
465818
463515
461221
458937
456663
454399
452144
449898
447662
445436
443219
441012
438813
436625
434445
432275
430115
427963
425821
423688
421564
419449
417343
415247
413159
411081
409011
406950
404899
402856
400822
398797
396780
394773
392774
390783
388802
386829
384865
382909
380962
379023
377093
375172
373259
371354
369457
367569
365690
363818
361955
360100
358253
356415
354584
352762
350947
349141
347343
345553
343771
341996
340230
338472
336721
334978
333243
331516
329796
328084
326380
324684
322995
321314
319640
317974
316315
314664
313021
311384
309756
308134
306520
304913
303314
301722
300137
298559
296988
295425
293869
292319
290777
289242
287714
286193
284679
283172
281672
280179
278693
277213
275740
274274
272815
271363
269917
268478
267046
265620
264201
262789
261383
259984
258591
257204
255825
254451
253084
251724
250369
249021
247680
246345
245016
243693
242376
241066
239762
238464
237172
235886
234607
233333
232065
230804
229548
228299
227055
225817
224585
223359
222139
220925
219717
218514
217317
216126
214941
213761
212587
211418
210256
209098
207947
206801
205660
204525
203396
202272
201154
200041
198933
197831
196734
195642
194556
193476
192400
191330
190265
189205
188151
187101
186057
185018
183984
182956
181932
180913
179900
178892
177888
176890
175896
174908
173924
172946
171972
171003
170040
169081
168126
167177
166233
165293
164358
163428
162502
161581
160665
159754
158847
157945
157048
156155
155267
154383
153505
152630
151760
150895
150034
149178
148326
147478
146636
145797
144963
144133
143308
142487
141671
140859
140051
139248
138448
137654
136863
136077
135295
134517
133744
132975
132210
131449
130693
129940
129192
128448
127709
126973
126242
125515
124791
124072
123358
122647
121940
121238
120539
119845
119155
118469
117787
117109
116435
115766
115100
114439
113781
113128
112479
111833
111192
110555
109922
109294
108669
108049
107432
106820
106212
105608
105008
104412
103821
103234
102651
102072
101497
100927
100361
99799.2
99241.9
98688.9
98140.3
97596.1
97056.3
96521
95990.2
95463.9
94942.2
94425.1
93912.7
93404.9
92901.8
92403.5
91910
91421.3
90937.6
90458.8
89985
89516.3
89052.7
88594.3
88141.1
87693.2
87250.7
86813.7
86382.1
85956.1
85535.8
85121.2
84712.3
84309.4
83912.4
83521.5
83136.6
82758
82385.6
82019.7
81660.1
81307.2
80960.8
80621.1
80288.3
79962.3
79643.2
79331.2
79026.3
78728.6
78438.1
78154.9
77879.1
77610.8
77349.9
77096.5
76850.7
76612.5
76381.8
76158.9
75943.5
75735.8
75535.6
75343.1
75158.1
74980.6
74810.6
74647.9
74492.5
74344.4
74203.3
74069.2
73942
73821.5
73707.5
73600
73498.7
73403.5
73314.2
73230.5
73152.4
73079.5
73011.7
72948.8
72890.5
72836.7
72787.1
72741.4
72699.6
72661.3
72626.4
72594.6
72565.7
72539.8
72516.3
72495.1
72476
72459.1
72444.1
72430.8
72419.1
72408.8
72399.9
72392.1
72385.3
72379.6
72374.6
72370.5
72367.1
72364.3
72362
72360.2
72358.8
72357.8
72357.2
72356.7
72356.7
72356.8
72356.8
72357.2
72357.8
72358.4
72359.2
72360
72360.9
72361.8
72362.8
72363.8
72364.8
72365.9
72366.9
72367.9
72369
72370
72371
72372.1
72373.1
72374.1
72375.1
72376
72377
72378
72378.9
72379.8
72380.7
72381.6
72382.5
72383.4
72384.3
72385.1
72386
72386.8
72387.7
72388.5
72389.3
72390.1
72390.9
72391.7
72392.5
72393.3
72394.1
72394.9
72395.7
72396.5
72397.2
72398
72398.8
72399.5
72400.3
72401
72401.8
72402.5
72403.2
72404
72404.7
72405.4
72406.1
72406.8
72407.5
72408.2
72408.9
72409.6
72410.3
72410.9
72411.6
72412.3
72412.9
72413.5
72414.2
72414.8
72415.4
72415.9
72416.5
72417
72417.6
72418.1
72418.6
72419
72419.5
72419.9
72420.3
72420.6
72421
72421.2
72421.5
72421.8
72422
72422.2
72422.4
72422.5
72422.7
72422.8
72422.9
72423
72423.2
72423.3
72423.5
72423.6
72423.9
72424.1
72424.4
72424.7
72425.2
72425.6
72426.4
72427.1
72427.5
72428.2
72428.6
72429.6
72430
72431.3
72432.3
72433.5
72434.6
72435.8
72436.9
72438.1
72439.2
72440.3
72441.4
72442.4
72443.5
72444.2
72445.1
72445.8
72446.4
72447.2
72447.6
72447.9
72448.3
72448.5
72448.8
72449
72449.2
72449.3
72449.4
72449.5
72449.5
72449.5
72449.6
72449.7
72449.7
72449.8
72449.9
72450.1
72450.2
72450.4
72450.6
72450.9
72451.1
72451.4
72451.7
72452
72452.3
72452.6
72452.9
72453.2
72453.5
72453.8
72454.1
72454.5
72454.8
72455.1
72455.5
72455.8
72456.2
72456.6
72456.9
72457.4
72457.7
72458.1
72458.5
72458.8
72459.2
72459.5
72459.7
72459.8
72459.8
72459.8
72459.3
72459
72458.1
72456.7
72454.2
72450.3
72444.4
72436
72424.2
72408.4
72388.1
72363
72333.5
72301
72268
72238.9
72220.3
)
;

boundaryField
{
    sides
    {
        type            zeroGradient;
    }
    empty
    {
        type            empty;
    }
}


// ************************************************************************* //
