/*--------------------------------*- C++ -*----------------------------------*\
  =========                 |
  \\      /  F ield         | OpenFOAM: The Open Source CFD Toolbox
   \\    /   O peration     | Website:  https://openfoam.org
    \\  /    A nd           | Version:  7
     \\/     M anipulation  |
\*---------------------------------------------------------------------------*/
FoamFile
{
    version     2.0;
    format      ascii;
    class       surfaceScalarField;
    location    "0.007";
    object      phi;
}
// * * * * * * * * * * * * * * * * * * * * * * * * * * * * * * * * * * * * * //

dimensions      [1 0 -1 0 0 0 0];

internalField   nonuniform List<scalar> 
999
(
-3.86535e-11
-4.00178e-11
-3.72893e-11
-4.00178e-11
-3.68345e-11
-3.41061e-11
-2.95586e-11
-3.22871e-11
-3.09228e-11
-3.27418e-11
-2.72848e-11
-2.54659e-11
-2.54659e-11
-2.77396e-11
-3.31966e-11
-3.45608e-11
-3.27418e-11
-3.81988e-11
-3.7744e-11
-3.63798e-11
-3.09228e-11
-3.09228e-11
-3.18323e-11
-3.63798e-11
-4.27463e-11
-3.22871e-11
-4.18368e-11
-3.63798e-11
-3.86535e-11
-4.00178e-11
-3.04681e-11
-2.04636e-11
-1.81899e-11
-1.13687e-11
-5.00222e-12
-5.00222e-12
-1.04592e-11
-1.27329e-11
-1.86446e-11
-3.41061e-11
-4.22915e-11
-4.8658e-11
-5.00222e-11
-4.22915e-11
-4.00178e-11
-3.22871e-11
-3.81988e-11
-3.09228e-11
-2.86491e-11
-3.41061e-11
-4.04725e-11
-3.7744e-11
-5.13865e-11
-4.3201e-11
-3.68345e-11
-2.54659e-11
-1.63709e-11
-1.22782e-11
-1.09139e-11
-1.04592e-11
-1.40972e-11
-2.36469e-11
-1.40972e-11
-8.18545e-12
-1.63709e-11
-1.68257e-11
-6.82121e-12
-9.54969e-12
-1.18234e-11
-1.54614e-11
-1.59162e-11
-1.50067e-11
-1.09139e-11
-1.81899e-11
-1.59162e-11
-1.63709e-11
-1.81899e-11
-1.31877e-11
-7.27596e-12
-9.09495e-13
4.54747e-13
4.54747e-12
6.82121e-12
-2.72848e-12
-5.91172e-12
-1.36424e-12
-4.09273e-12
-3.63798e-12
-4.09273e-12
-1.31877e-11
-1.59162e-11
-1.63709e-11
-1.27329e-11
-8.18545e-12
-3.18323e-12
-1.59162e-11
-1.36424e-11
-9.09495e-12
-1.00044e-11
-1.27329e-11
-1.63709e-11
-1.09139e-11
-1.18234e-11
-9.54969e-12
-2.27374e-12
-5.91172e-12
-6.36646e-12
-7.27596e-12
-7.27596e-12
-1.00044e-11
-9.09495e-12
-1.63709e-11
-1.72804e-11
-1.63709e-11
-1.36424e-11
-1.09139e-11
-5.45697e-12
-8.6402e-12
-5.00222e-12
-5.00222e-12
-1.22782e-11
-1.00044e-11
-4.54747e-13
-1.81899e-12
-9.09495e-12
-1.54614e-11
-5.00222e-12
-1.22782e-11
-1.22782e-11
-1.09139e-11
-5.91172e-12
3.63798e-12
6.36646e-12
5.45697e-12
2.27374e-12
3.18323e-12
6.82121e-12
-2.72848e-12
-1.81899e-12
-7.27596e-12
-1.36424e-11
-9.09495e-12
-9.54969e-12
-4.54747e-12
4.54747e-13
1.00044e-11
3.00133e-11
5.0477e-11
9.23137e-11
1.60981e-10
2.95586e-10
5.08862e-10
8.70386e-10
1.48748e-09
2.52339e-09
4.24598e-09
7.12544e-09
1.18962e-08
1.97815e-08
3.27377e-08
5.39239e-08
8.8452e-08
1.44469e-07
2.34927e-07
3.80356e-07
6.13124e-07
9.83936e-07
1.57202e-06
2.5003e-06
3.95877e-06
6.23942e-06
9.78877e-06
1.52861e-05
2.37591e-05
3.67548e-05
5.65885e-05
8.67074e-05
0.000132214
0.000200622
0.000302924
0.000455121
0.00068036
0.00101193
0.00149739
0.00220434
0.00322817
0.00470272
0.00681447
0.00982163
0.0140793
0.0200725
0.028459
0.0401248
0.0562543
0.0784192
0.10869
0.14977
0.205168
0.279393
0.378192
0.508832
0.680417
0.904247
1.19422
1.56724
2.04372
2.64796
3.40866
4.3593
5.53844
6.99005
8.76351
10.9136
13.5004
16.5885
20.2464
24.546
29.5607
35.3647
42.0313
49.631
58.2304
67.8906
78.6654
90.6005
103.732
118.087
133.681
150.519
168.599
187.904
208.413
230.094
252.91
276.815
301.761
327.695
354.562
382.304
410.864
440.184
470.206
500.876
532.138
563.941
596.235
628.971
662.105
695.595
729.4
763.483
797.81
832.347
867.065
901.936
936.933
972.032
1007.21
1042.45
1077.73
1113.04
1148.35
1183.65
1218.93
1254.18
1289.38
1324.52
1359.6
1394.6
1429.51
1464.33
1499.05
1533.65
1568.15
1602.52
1636.76
1670.87
1704.84
1738.67
1772.36
1805.89
1839.27
1872.48
1905.54
1938.43
1971.15
2003.7
2036.08
2068.28
2100.3
2132.14
2163.8
2195.27
2226.56
2257.66
2288.57
2319.29
2349.82
2380.16
2410.3
2440.25
2470.01
2499.56
2528.92
2558.08
2587.05
2615.82
2644.38
2672.75
2700.92
2728.89
2756.66
2784.23
2811.6
2838.77
2865.74
2892.51
2919.08
2945.45
2971.63
2997.6
3023.37
3048.95
3074.32
3099.5
3124.48
3149.26
3173.85
3198.24
3222.43
3246.42
3270.22
3293.83
3317.24
3340.45
3363.48
3386.31
3408.94
3431.39
3453.64
3475.7
3497.57
3519.25
3540.74
3562.05
3583.16
3604.09
3624.83
3645.38
3665.75
3685.93
3705.93
3725.75
3745.38
3764.83
3784.09
3803.18
3822.09
3840.81
3859.36
3877.73
3895.92
3913.93
3931.76
3949.42
3966.91
3984.22
4001.36
4018.32
4035.11
4051.74
4068.18
4084.47
4100.55
4116.53
4132.25
4147.94
4163.26
4178.67
4193.63
4208.72
4223.37
4238.05
4252.51
4266.71
4281
4294.76
4308.8
4322.25
4335.87
4349.17
4362.31
4375.4
4388.21
4400.93
4413.53
4425.88
4438.17
4450.26
4462.19
4474.01
4485.66
4497.14
4508.51
4519.71
4530.76
4541.68
4552.44
4563.06
4573.54
4583.87
4594.06
4604.11
4614.02
4623.78
4633.4
4642.89
4652.24
4661.45
4670.52
4679.46
4688.26
4696.92
4705.45
4713.85
4722.11
4730.24
4738.24
4746.11
4753.84
4761.45
4768.93
4776.28
4783.5
4790.59
4797.56
4804.4
4811.12
4817.71
4824.18
4830.52
4836.74
4842.84
4848.82
4854.68
4860.42
4866.03
4871.53
4876.91
4882.18
4887.32
4892.35
4897.27
4902.07
4906.75
4911.32
4915.78
4920.13
4924.36
4928.49
4932.5
4936.4
4940.19
4943.87
4947.45
4950.92
4954.28
4957.53
4960.68
4963.72
4966.66
4969.5
4972.23
4974.86
4977.38
4979.81
4982.13
4984.35
4986.48
4988.5
4990.42
4992.25
4993.98
4995.61
4997.15
4998.59
4999.93
5001.18
5002.33
5003.4
5004.36
5005.24
5006.03
5006.72
5007.32
5007.83
5008.25
5008.59
5008.83
5008.99
5009.05
5009.04
5008.93
5008.74
5008.46
5008.1
5007.66
5007.13
5006.51
5005.82
5005.04
5004.18
5003.24
5002.22
5001.12
4999.94
4998.68
4997.34
4995.92
4994.43
4992.86
4991.21
4989.49
4987.69
4985.81
4983.87
4981.84
4979.75
4977.58
4975.34
4973.02
4970.64
4968.18
4965.65
4963.06
4960.39
4957.65
4954.85
4951.98
4949.03
4946.03
4942.95
4939.81
4936.61
4933.33
4930
4926.6
4923.13
4919.6
4916.01
4912.36
4908.64
4904.87
4901.03
4897.13
4893.17
4889.15
4885.07
4880.93
4876.74
4872.48
4868.17
4863.8
4859.38
4854.9
4850.36
4845.77
4841.12
4836.42
4831.66
4826.85
4821.99
4817.08
4812.11
4807.09
4802.02
4796.9
4791.73
4786.51
4781.23
4775.91
4770.54
4765.13
4759.66
4754.15
4748.59
4742.98
4737.32
4731.62
4725.88
4720.09
4714.25
4708.38
4702.45
4696.49
4690.48
4684.43
4678.33
4672.2
4666.02
4659.8
4653.55
4647.25
4640.91
4634.53
4628.12
4621.66
4615.17
4608.64
4602.07
4595.47
4588.83
4582.16
4575.44
4568.7
4561.92
4555.1
4548.25
4541.37
4534.45
4527.51
4520.53
4513.51
4506.47
4499.4
4492.29
4485.16
4477.99
4470.8
4463.58
4456.33
4449.05
4441.75
4434.41
4427.05
4419.67
4412.26
4404.82
4397.36
4389.88
4382.37
4374.84
4367.28
4359.71
4352.11
4344.49
4336.85
4329.19
4321.51
4313.81
4306.09
4298.35
4290.6
4282.82
4275.03
4267.23
4259.41
4251.57
4243.73
4235.86
4227.99
4220.1
4212.2
4204.28
4196.36
4188.43
4180.49
4172.53
4164.58
4156.61
4148.64
4140.66
4132.68
4124.69
4116.7
4108.71
4100.71
4092.72
4084.72
4076.73
4068.74
4060.75
4052.76
4044.78
4036.81
4028.84
4020.88
4012.93
4004.99
3997.06
3989.15
3981.25
3973.36
3965.49
3957.64
3949.81
3942
3934.21
3926.45
3918.71
3911
3903.32
3895.66
3888.05
3880.46
3872.91
3865.4
3857.94
3850.51
3843.13
3835.79
3828.5
3821.27
3814.08
3806.96
3799.89
3792.88
3785.93
3779.06
3772.24
3765.51
3758.84
3752.25
3745.74
3739.31
3732.97
3726.71
3720.55
3714.47
3708.5
3702.62
3696.84
3691.17
3685.61
3680.15
3674.81
3669.58
3664.47
3659.48
3654.61
3649.86
3645.24
3640.74
3636.37
3632.13
3628.03
3624.05
3620.2
3616.49
3612.91
3609.47
3606.15
3602.97
3599.91
3596.99
3594.19
3591.53
3588.98
3586.56
3584.25
3582.07
3579.99
3578.03
3576.17
3574.42
3572.77
3571.21
3569.75
3568.38
3567.09
3565.88
3564.74
3563.68
3562.69
3561.76
3560.88
3560.06
3559.3
3558.58
3557.91
3557.28
3556.69
3556.12
3555.6
3555.09
3554.62
3554.16
3553.72
3553.3
3552.9
3552.51
3552.13
3551.76
3551.39
3551.03
3550.68
3550.32
3549.98
3549.63
3549.27
3548.92
3548.57
3548.21
3547.85
3547.48
3547.11
3546.73
3546.35
3545.96
3545.56
3545.15
3544.74
3544.31
3543.88
3543.43
3542.98
3542.51
3542.03
3541.54
3541.04
3540.53
3540
3539.46
3538.9
3538.33
3537.74
3537.14
3536.51
3535.88
3535.22
3534.54
3533.85
3533.13
3532.39
3531.63
3530.84
3530.03
3529.19
3528.33
3527.44
3526.51
3525.56
3524.57
3523.55
3522.49
3521.39
3520.25
3519.06
3517.83
3516.54
3515.21
3513.81
3512.35
3510.82
3509.21
3507.51
3505.72
3503.81
3501.78
3499.6
3497.25
3494.71
3491.94
3488.92
3485.6
3481.93
3477.86
3473.33
3468.28
3462.64
3456.31
3449.22
3441.27
3432.36
3422.37
3411.2
3398.74
3384.85
3369.42
3352.33
3333.46
3312.69
3289.91
3265.03
3237.93
3208.56
3176.83
3142.7
3106.15
3067.14
3025.71
2981.87
2935.68
2887.21
2836.57
2783.89
2729.3
2672.98
2615.1
2555.88
2495.54
2434.29
2372.39
2310.09
2247.64
2185.28
2123.27
2061.85
2001.26
1941.72
1883.44
1826.64
1771.47
1718.11
1666.68
1617.31
1570.09
1525.09
1482.36
1441.94
1403.84
1368.05
1334.56
1303.32
1274.28
1247.38
1222.55
1199.7
1178.74
1159.58
1142.12
1126.26
1111.91
1098.96
1087.3
1076.85
1067.51
1059.19
1051.79
1045.24
1039.46
1034.37
1029.91
1026.01
1022.61
1019.66
1017.1
1014.89
1013
1011.37
1009.98
1008.8
1007.8
1006.96
1006.25
1005.66
1005.17
1004.76
1004.42
1004.15
1003.92
1003.74
1003.6
1003.49
1003.4
1003.33
1003.28
1003.24
1003.22
1003.2
1003.19
1003.19
1003.19
1003.19
1003.2
1003.21
1003.22
1003.23
1003.25
1003.26
1003.27
1003.29
1003.3
1003.32
1003.33
1003.34
1003.35
1003.37
1003.38
1003.39
1003.39
1003.4
1003.4
1003.39
1003.38
1003.35
1003.31
1003.26
1003.19
)
;

boundaryField
{
    sides
    {
        type            calculated;
        value           nonuniform List<scalar> 2(1003.12 4.00469e-11);
    }
    empty
    {
        type            empty;
        value           nonuniform 0();
    }
}


// ************************************************************************* //
