/*--------------------------------*- C++ -*----------------------------------*\
  =========                 |
  \\      /  F ield         | OpenFOAM: The Open Source CFD Toolbox
   \\    /   O peration     | Website:  https://openfoam.org
    \\  /    A nd           | Version:  7
     \\/     M anipulation  |
\*---------------------------------------------------------------------------*/
FoamFile
{
    version     2.0;
    format      ascii;
    class       volScalarField;
    location    "0.007";
    object      rho;
}
// * * * * * * * * * * * * * * * * * * * * * * * * * * * * * * * * * * * * * //

dimensions      [1 -3 0 0 0 0 0];

internalField   nonuniform List<scalar> 
1000
(
9.97574
9.97574
9.97574
9.97574
9.97574
9.97574
9.97574
9.97574
9.97574
9.97574
9.97574
9.97574
9.97574
9.97574
9.97574
9.97574
9.97574
9.97574
9.97574
9.97574
9.97574
9.97574
9.97574
9.97574
9.97574
9.97574
9.97574
9.97574
9.97574
9.97574
9.97574
9.97574
9.97574
9.97574
9.97574
9.97574
9.97574
9.97574
9.97574
9.97574
9.97574
9.97574
9.97574
9.97574
9.97574
9.97574
9.97574
9.97574
9.97574
9.97574
9.97574
9.97574
9.97574
9.97574
9.97574
9.97574
9.97574
9.97574
9.97574
9.97574
9.97574
9.97574
9.97574
9.97574
9.97574
9.97574
9.97574
9.97574
9.97574
9.97574
9.97574
9.97574
9.97574
9.97574
9.97574
9.97574
9.97574
9.97574
9.97574
9.97574
9.97574
9.97574
9.97574
9.97574
9.97574
9.97574
9.97574
9.97574
9.97574
9.97574
9.97574
9.97574
9.97574
9.97574
9.97574
9.97574
9.97574
9.97574
9.97574
9.97574
9.97574
9.97574
9.97574
9.97574
9.97574
9.97574
9.97574
9.97574
9.97574
9.97574
9.97574
9.97574
9.97574
9.97574
9.97574
9.97574
9.97574
9.97574
9.97574
9.97574
9.97574
9.97574
9.97574
9.97574
9.97574
9.97574
9.97574
9.97574
9.97574
9.97574
9.97574
9.97574
9.97574
9.97574
9.97574
9.97574
9.97574
9.97574
9.97574
9.97574
9.97574
9.97574
9.97574
9.97574
9.97574
9.97574
9.97574
9.97574
9.97574
9.97574
9.97574
9.97574
9.97574
9.97574
9.97574
9.97574
9.97574
9.97574
9.97574
9.97574
9.97574
9.97574
9.97574
9.97574
9.97574
9.97574
9.97574
9.97574
9.97574
9.97574
9.97574
9.97574
9.97574
9.97574
9.97574
9.97574
9.97574
9.97574
9.97574
9.97574
9.97574
9.97574
9.97574
9.97574
9.97574
9.97574
9.97574
9.97574
9.97574
9.97573
9.97573
9.97573
9.97572
9.97571
9.9757
9.97568
9.97566
9.97563
9.97558
9.97553
9.97545
9.97535
9.97522
9.97505
9.97483
9.97455
9.97419
9.97374
9.97317
9.97246
9.97159
9.97052
9.96922
9.96764
9.96575
9.96351
9.96085
9.95775
9.95414
9.94998
9.94521
9.93979
9.93368
9.92684
9.91922
9.91081
9.90157
9.89149
9.88056
9.86878
9.85614
9.84267
9.82836
9.81324
9.79734
9.78068
9.76329
9.74521
9.72646
9.70708
9.68711
9.66659
9.64554
9.624
9.60201
9.57959
9.55678
9.5336
9.51009
9.48626
9.46215
9.43777
9.41314
9.3883
9.36325
9.33801
9.31259
9.28702
9.26131
9.23547
9.20951
9.18344
9.15727
9.13101
9.10468
9.07827
9.0518
9.02527
8.99869
8.97207
8.94541
8.91872
8.892
8.86526
8.8385
8.81172
8.78494
8.75815
8.73135
8.70456
8.67777
8.65099
8.62422
8.59746
8.57071
8.54398
8.51727
8.49059
8.46393
8.43729
8.41068
8.3841
8.35756
8.33104
8.30457
8.27812
8.25172
8.22535
8.19902
8.17274
8.14649
8.12029
8.09414
8.06802
8.04196
8.01594
7.98997
7.96405
7.93817
7.91235
7.88658
7.86085
7.83518
7.80957
7.784
7.75849
7.73303
7.70762
7.68227
7.65698
7.63174
7.60655
7.58142
7.55635
7.53133
7.50637
7.48147
7.45662
7.43183
7.4071
7.38243
7.35781
7.33326
7.30876
7.28432
7.25993
7.23561
7.21135
7.18714
7.163
7.13891
7.11488
7.09092
7.06701
7.04316
7.01937
6.99564
6.97197
6.94836
6.92481
6.90132
6.87789
6.85452
6.8312
6.80795
6.78476
6.76163
6.73856
6.71555
6.6926
6.6697
6.64687
6.6241
6.60139
6.57873
6.55614
6.53361
6.51114
6.48872
6.46637
6.44406
6.42186
6.39962
6.37762
6.35537
6.33369
6.31125
6.29013
6.26722
6.24695
6.22331
6.20405
6.17973
6.16113
6.13679
6.11799
6.0945
6.07474
6.05262
6.03179
6.01067
5.98954
5.9685
5.94779
5.92654
5.9061
5.88506
5.86447
5.8438
5.82322
5.80263
5.78224
5.76173
5.74141
5.7211
5.70085
5.68064
5.66054
5.64043
5.62042
5.60045
5.58055
5.56068
5.5409
5.52115
5.50147
5.48184
5.46228
5.44275
5.4233
5.40389
5.38454
5.36525
5.34601
5.32683
5.3077
5.28863
5.26961
5.25065
5.23173
5.21288
5.19408
5.17534
5.15664
5.13801
5.11942
5.1009
5.08242
5.06401
5.04563
5.02732
5.00906
4.99086
4.9727
4.9546
4.93655
4.91856
4.90062
4.88273
4.86489
4.84711
4.82938
4.8117
4.79407
4.7765
4.75898
4.74151
4.72409
4.70672
4.68941
4.67215
4.65493
4.63777
4.62066
4.6036
4.58659
4.56964
4.55273
4.53587
4.51907
4.50231
4.48561
4.46895
4.45235
4.43579
4.41929
4.40283
4.38643
4.37007
4.35376
4.33751
4.3213
4.30514
4.28903
4.27297
4.25696
4.241
4.22508
4.20921
4.1934
4.17763
4.1619
4.14623
4.13061
4.11503
4.0995
4.08402
4.06858
4.0532
4.03785
4.02256
4.00732
3.99212
3.97697
3.96186
3.9468
3.9318
3.91683
3.90191
3.88704
3.87221
3.85743
3.8427
3.82801
3.81337
3.79877
3.78422
3.76972
3.75526
3.74084
3.72648
3.71215
3.69787
3.68364
3.66945
3.6553
3.6412
3.62715
3.61314
3.59917
3.58525
3.57137
3.55753
3.54374
3.53
3.51629
3.50263
3.48902
3.47544
3.46192
3.44843
3.43499
3.42159
3.40823
3.39492
3.38165
3.36842
3.35523
3.34209
3.32899
3.31593
3.30291
3.28994
3.27701
3.26412
3.25127
3.23846
3.2257
3.21297
3.20029
3.18765
3.17505
3.1625
3.14998
3.1375
3.12507
3.11268
3.10032
3.08801
3.07574
3.06351
3.05132
3.03917
3.02706
3.01499
3.00296
2.99097
2.97903
2.96712
2.95525
2.94342
2.93163
2.91988
2.90817
2.8965
2.88487
2.87327
2.86172
2.85021
2.83873
2.8273
2.8159
2.80455
2.79323
2.78195
2.77071
2.7595
2.74834
2.73722
2.72613
2.71508
2.70407
2.6931
2.68217
2.67127
2.66041
2.6496
2.63882
2.62807
2.61737
2.6067
2.59607
2.58548
2.57493
2.56441
2.55393
2.54349
2.53309
2.52273
2.5124
2.50211
2.49186
2.48164
2.47146
2.46132
2.45122
2.44116
2.43113
2.42114
2.41119
2.40127
2.39139
2.38155
2.37175
2.36198
2.35225
2.34256
2.33291
2.32329
2.31371
2.30417
2.29467
2.2852
2.27577
2.26638
2.25703
2.24772
2.23844
2.2292
2.22
2.21083
2.20171
2.19262
2.18357
2.17456
2.16559
2.15666
2.14776
2.1389
2.13009
2.12131
2.11257
2.10387
2.09521
2.08659
2.07801
2.06948
2.06098
2.05252
2.0441
2.03572
2.02739
2.0191
2.01085
2.00264
1.99447
1.98635
1.97827
1.97023
1.96224
1.95429
1.94638
1.93852
1.93071
1.92294
1.91522
1.90755
1.89992
1.89234
1.88481
1.87733
1.8699
1.86252
1.85519
1.84791
1.84069
1.83351
1.8264
1.81933
1.81233
1.80537
1.79848
1.79165
1.78487
1.77815
1.7715
1.76491
1.75838
1.75191
1.74551
1.73918
1.73292
1.72672
1.7206
1.71455
1.70857
1.70266
1.69684
1.69108
1.68541
1.67982
1.67431
1.66888
1.66354
1.65829
1.65312
1.64804
1.64305
1.63816
1.63336
1.62865
1.62404
1.61953
1.61512
1.6108
1.6066
1.60249
1.59849
1.59459
1.5908
1.58712
1.58354
1.58008
1.57672
1.57347
1.57033
1.5673
1.56438
1.56157
1.55886
1.55627
1.55378
1.5514
1.54912
1.54694
1.54487
1.5429
1.54102
1.53924
1.53756
1.53596
1.53446
1.53304
1.5317
1.53045
1.52927
1.52817
1.52714
1.52617
1.52528
1.52444
1.52366
1.52294
1.52227
1.52164
1.52107
1.52053
1.52003
1.51958
1.51915
1.51876
1.5184
1.51807
1.51775
1.51746
1.51719
1.51694
1.5167
1.51648
1.51627
1.51607
1.51588
1.5157
1.51552
1.51535
1.51519
1.51503
1.51487
1.51472
1.51456
1.51441
1.51425
1.51411
1.51395
1.5138
1.51364
1.51349
1.51332
1.51316
1.513
1.51283
1.51265
1.51248
1.5123
1.51212
1.51192
1.51174
1.51153
1.51134
1.51112
1.51092
1.51069
1.51047
1.51023
1.51
1.50974
1.5095
1.50923
1.50898
1.50869
1.50842
1.50812
1.50783
1.50751
1.5072
1.50686
1.50653
1.50617
1.50582
1.50544
1.50506
1.50465
1.50425
1.50381
1.50337
1.50291
1.50244
1.50193
1.50143
1.50088
1.50033
1.49974
1.49914
1.4985
1.49783
1.49712
1.49639
1.49559
1.49476
1.49385
1.4929
1.49185
1.49073
1.48949
1.48815
1.48665
1.48501
1.48318
1.48115
1.47887
1.47633
1.47347
1.47028
1.46668
1.46267
1.45816
1.45314
1.44752
1.44129
1.43435
1.4267
1.41825
1.40898
1.39881
1.38774
1.37569
1.36267
1.34862
1.33355
1.31743
1.30027
1.28207
1.26286
1.24266
1.22151
1.19945
1.17656
1.15288
1.1285
1.1035
1.07797
1.05201
1.02572
0.999189
0.972553
0.945893
0.919336
0.892976
0.866924
0.84126
0.816107
0.791525
0.767616
0.744435
0.722061
0.700538
0.679913
0.660223
0.641493
0.623743
0.606982
0.591212
0.576425
0.562613
0.549749
0.537819
0.526782
0.516611
0.507268
0.498714
0.490909
0.483807
0.477368
0.47155
0.466307
0.4616
0.457385
0.453623
0.450276
0.447308
0.444683
0.44237
0.440339
0.438559
0.437006
0.435655
0.434484
0.433471
0.432599
0.43185
0.43121
0.430664
0.430201
0.429809
0.42948
0.429203
0.428972
0.428781
0.428622
0.428492
0.428386
0.4283
0.42823
0.428175
0.428131
0.428098
0.428072
0.428053
0.428039
0.428029
0.428023
0.42802
0.428019
0.42802
0.428021
0.428025
0.428027
0.428032
0.428034
0.428041
0.428041
0.428049
0.428049
0.428051
0.428054
0.428054
0.428051
0.428045
0.428033
0.428013
0.427983
0.42794
0.427881
0.427803
0.427705
0.427588
0.427455
0.427318
0.427191
0.4271
)
;

boundaryField
{
    sides
    {
        type            calculated;
        value           nonuniform List<scalar> 2(0.4271 9.97574);
    }
    empty
    {
        type            empty;
    }
}


// ************************************************************************* //
