/*--------------------------------*- C++ -*----------------------------------*\
  =========                 |
  \\      /  F ield         | OpenFOAM: The Open Source CFD Toolbox
   \\    /   O peration     | Website:  https://openfoam.org
    \\  /    A nd           | Version:  7
     \\/     M anipulation  |
\*---------------------------------------------------------------------------*/
FoamFile
{
    version     2.0;
    format      ascii;
    class       volScalarField;
    location    "0.007";
    object      T;
}
// * * * * * * * * * * * * * * * * * * * * * * * * * * * * * * * * * * * * * //

dimensions      [0 0 0 1 0 0 0];

internalField   nonuniform List<scalar> 
1000
(
348.432
348.432
348.432
348.432
348.432
348.432
348.432
348.432
348.432
348.432
348.432
348.432
348.432
348.432
348.432
348.432
348.432
348.432
348.432
348.432
348.432
348.432
348.432
348.432
348.432
348.432
348.432
348.432
348.432
348.432
348.432
348.432
348.432
348.432
348.432
348.432
348.432
348.432
348.432
348.432
348.432
348.432
348.432
348.432
348.432
348.432
348.432
348.432
348.432
348.432
348.432
348.432
348.432
348.432
348.432
348.432
348.432
348.432
348.432
348.432
348.432
348.432
348.432
348.432
348.432
348.432
348.432
348.432
348.432
348.432
348.432
348.432
348.432
348.432
348.432
348.432
348.432
348.432
348.432
348.432
348.432
348.432
348.432
348.432
348.432
348.432
348.432
348.432
348.432
348.432
348.432
348.432
348.432
348.432
348.432
348.432
348.432
348.432
348.432
348.432
348.432
348.432
348.432
348.432
348.432
348.432
348.432
348.432
348.432
348.432
348.432
348.432
348.432
348.432
348.432
348.432
348.432
348.432
348.432
348.432
348.432
348.432
348.432
348.432
348.432
348.432
348.432
348.432
348.432
348.432
348.432
348.432
348.432
348.432
348.432
348.432
348.432
348.432
348.432
348.432
348.432
348.432
348.432
348.432
348.432
348.432
348.432
348.432
348.432
348.432
348.432
348.432
348.432
348.432
348.432
348.432
348.432
348.432
348.432
348.432
348.432
348.432
348.432
348.432
348.432
348.432
348.432
348.432
348.432
348.432
348.432
348.432
348.432
348.432
348.432
348.432
348.432
348.432
348.432
348.432
348.432
348.432
348.432
348.432
348.432
348.432
348.432
348.432
348.432
348.432
348.432
348.432
348.432
348.432
348.431
348.431
348.431
348.43
348.43
348.429
348.428
348.427
348.425
348.422
348.419
348.415
348.41
348.404
348.396
348.386
348.374
348.359
348.341
348.318
348.292
348.261
348.223
348.18
348.129
348.071
348.004
347.928
347.842
347.746
347.639
347.521
347.391
347.249
347.095
346.929
346.751
346.561
346.359
346.145
345.921
345.685
345.438
345.182
344.915
344.64
344.356
344.063
343.763
343.455
343.14
342.819
342.492
342.159
341.821
341.477
341.129
340.777
340.42
340.06
339.696
339.329
338.959
338.586
338.21
337.832
337.451
337.068
336.683
336.296
335.907
335.516
335.124
334.73
334.335
333.939
333.541
333.142
332.742
332.34
331.938
331.535
331.131
330.726
330.32
329.914
329.506
329.099
328.69
328.281
327.872
327.462
327.051
326.64
326.229
325.817
325.405
324.993
324.58
324.167
323.754
323.34
322.927
322.513
322.099
321.685
321.27
320.856
320.441
320.027
319.612
319.197
318.782
318.367
317.953
317.538
317.123
316.708
316.293
315.878
315.463
315.048
314.634
314.219
313.804
313.39
312.975
312.561
312.147
311.733
311.319
310.905
310.491
310.077
309.664
309.25
308.837
308.424
308.011
307.598
307.185
306.772
306.36
305.948
305.536
305.124
304.712
304.301
303.889
303.478
303.067
302.656
302.246
301.836
301.425
301.015
300.606
300.196
299.787
299.377
298.969
298.56
298.151
297.743
297.335
296.927
296.52
296.112
295.705
295.298
294.891
294.485
294.079
293.673
293.267
292.861
292.457
292.05
291.648
291.239
290.843
290.425
290.044
289.605
289.252
288.78
288.468
287.954
287.679
287.141
286.874
286.35
286.05
285.577
285.218
284.801
284.401
284.005
283.607
283.197
282.815
282.398
282.012
281.608
281.211
280.813
280.418
280.016
279.623
279.225
278.828
278.432
278.037
277.64
277.246
276.85
276.456
276.061
275.667
275.272
274.879
274.486
274.093
273.699
273.307
272.915
272.523
272.131
271.74
271.348
270.957
270.567
270.176
269.786
269.396
269.007
268.618
268.229
267.84
267.452
267.064
266.676
266.289
265.902
265.514
265.128
264.742
264.356
263.97
263.584
263.199
262.814
262.43
262.045
261.661
261.278
260.894
260.511
260.128
259.746
259.363
258.982
258.6
258.218
257.837
257.457
257.076
256.696
256.316
255.936
255.557
255.178
254.799
254.421
254.043
253.665
253.287
252.91
252.533
252.156
251.78
251.404
251.028
250.653
250.278
249.903
249.528
249.154
248.78
248.406
248.033
247.66
247.287
246.915
246.543
246.171
245.799
245.428
245.057
244.687
244.316
243.946
243.576
243.207
242.838
242.469
242.101
241.732
241.364
240.997
240.63
240.263
239.896
239.53
239.164
238.798
238.432
238.067
237.702
237.338
236.974
236.61
236.246
235.883
235.52
235.157
234.795
234.433
234.071
233.71
233.349
232.988
232.627
232.267
231.908
231.548
231.189
230.83
230.471
230.113
229.755
229.397
229.04
228.683
228.326
227.97
227.614
227.258
226.903
226.548
226.193
225.839
225.485
225.131
224.777
224.424
224.071
223.719
223.367
223.015
222.663
222.312
221.961
221.61
221.26
220.91
220.561
220.212
219.863
219.514
219.166
218.818
218.47
218.123
217.776
217.43
217.083
216.737
216.392
216.047
215.702
215.357
215.013
214.669
214.326
213.983
213.64
213.297
212.955
212.613
212.272
211.931
211.59
211.25
210.91
210.57
210.231
209.892
209.553
209.215
208.877
208.54
208.203
207.866
207.53
207.193
206.858
206.523
206.188
205.853
205.519
205.185
204.852
204.519
204.186
203.854
203.522
203.191
202.86
202.529
202.199
201.869
201.54
201.211
200.882
200.554
200.227
199.899
199.572
199.246
198.92
198.594
198.269
197.944
197.62
197.296
196.973
196.65
196.328
196.006
195.684
195.363
195.043
194.723
194.403
194.084
193.766
193.448
193.13
192.813
192.497
192.181
191.866
191.551
191.237
190.923
190.61
190.297
189.986
189.674
189.364
189.054
188.744
188.435
188.127
187.82
187.513
187.207
186.902
186.597
186.293
185.99
185.688
185.386
185.085
184.785
184.486
184.187
183.89
183.593
183.298
183.003
182.709
182.416
182.124
181.833
181.543
181.255
180.967
180.68
180.395
180.111
179.828
179.546
179.265
178.986
178.708
178.432
178.157
177.883
177.611
177.34
177.071
176.804
176.539
176.275
176.013
175.752
175.494
175.238
174.983
174.731
174.481
174.233
173.987
173.744
173.503
173.264
173.028
172.795
172.564
172.337
172.112
171.89
171.671
171.455
171.242
171.033
170.826
170.624
170.425
170.229
170.037
169.849
169.665
169.485
169.309
169.137
168.969
168.806
168.646
168.491
168.341
168.195
168.054
167.917
167.785
167.658
167.535
167.417
167.304
167.195
167.092
166.993
166.898
166.808
166.723
166.643
166.567
166.495
166.428
166.365
166.307
166.252
166.201
166.154
166.111
166.072
166.036
166.003
165.974
165.948
165.924
165.904
165.886
165.871
165.858
165.847
165.838
165.832
165.827
165.824
165.823
165.823
165.825
165.827
165.831
165.837
165.843
165.85
165.858
165.867
165.877
165.888
165.898
165.911
165.923
165.936
165.949
165.963
165.977
165.992
166.007
166.023
166.039
166.056
166.073
166.09
166.107
166.126
166.144
166.163
166.182
166.202
166.221
166.242
166.263
166.284
166.306
166.328
166.35
166.374
166.397
166.422
166.446
166.472
166.497
166.525
166.551
166.58
166.607
166.637
166.666
166.698
166.728
166.762
166.794
166.829
166.863
166.9
166.937
166.976
167.015
167.056
167.097
167.142
167.185
167.233
167.28
167.33
167.38
167.434
167.488
167.546
167.605
167.667
167.73
167.798
167.867
167.941
168.017
168.098
168.183
168.274
168.369
168.473
168.583
168.703
168.831
168.973
169.127
169.299
169.487
169.698
169.932
170.196
170.49
170.822
171.195
171.616
172.088
172.622
173.219
173.893
174.646
175.492
176.434
177.487
178.656
179.955
181.392
182.981
184.73
186.655
188.766
191.076
193.598
196.347
199.334
202.575
206.082
209.872
213.957
218.352
223.069
228.124
233.526
239.291
245.425
251.942
258.843
266.14
273.83
281.917
290.391
299.251
308.478
318.06
327.971
338.186
348.671
359.388
370.296
381.346
392.486
403.662
414.815
425.886
436.818
447.548
458.027
468.195
478.009
487.426
496.408
504.927
512.961
520.493
527.516
534.028
540.033
545.543
550.572
555.139
559.267
562.978
566.301
569.262
571.889
574.21
576.251
578.039
579.598
580.953
582.126
583.136
584.004
584.745
585.377
585.912
586.364
586.744
587.062
587.327
587.547
587.728
587.876
587.997
588.095
588.173
588.236
588.285
588.323
588.352
588.374
588.39
588.401
588.409
588.414
588.415
588.416
588.415
588.414
588.411
588.41
588.403
588.403
588.393
588.392
588.385
588.379
588.372
588.364
588.352
588.337
588.316
588.289
588.253
588.206
588.148
588.079
588.001
587.918
587.839
587.777
587.751
)
;

boundaryField
{
    sides
    {
        type            zeroGradient;
    }
    empty
    {
        type            empty;
    }
}


// ************************************************************************* //
