/*--------------------------------*- C++ -*----------------------------------*\
  =========                 |
  \\      /  F ield         | OpenFOAM: The Open Source CFD Toolbox
   \\    /   O peration     | Website:  https://openfoam.org
    \\  /    A nd           | Version:  7
     \\/     M anipulation  |
\*---------------------------------------------------------------------------*/
FoamFile
{
    version     2.0;
    format      ascii;
    class       volVectorField;
    location    "0.007";
    object      U;
}
// * * * * * * * * * * * * * * * * * * * * * * * * * * * * * * * * * * * * * //

dimensions      [0 1 -1 0 0 0 0];

internalField   nonuniform List<vector> 
1000
(
(-9.80267e-13 0 0)
(-9.10248e-13 0 0)
(-1.01528e-12 0 0)
(-9.68597e-13 0 0)
(-9.21917e-13 0 0)
(-8.63568e-13 0 0)
(-7.93549e-13 0 0)
(-7.93549e-13 0 0)
(-8.86908e-13 0 0)
(-7.4687e-13 0 0)
(-8.40228e-13 0 0)
(-6.65181e-13 0 0)
(-6.65181e-13 0 0)
(-6.53511e-13 0 0)
(-8.05219e-13 0 0)
(-9.80267e-13 0 0)
(-7.1186e-13 0 0)
(-9.21917e-13 0 0)
(-8.51898e-13 0 0)
(-1.10863e-12 0 0)
(-6.06832e-13 0 0)
(-9.10248e-13 0 0)
(-6.76851e-13 0 0)
(-8.51898e-13 0 0)
(-9.91936e-13 0 0)
(-9.56927e-13 0 0)
(-8.51898e-13 0 0)
(-1.02695e-12 0 0)
(-8.75238e-13 0 0)
(-9.56927e-13 0 0)
(-8.86908e-13 0 0)
(-6.18502e-13 0 0)
(-4.66794e-13 0 0)
(-3.85105e-13 0 0)
(-1.63378e-13 0 0)
(-1.05029e-13 0 0)
(-9.33587e-14 0 0)
(-3.50095e-13 0 0)
(-3.38425e-13 0 0)
(-7.70209e-13 0 0)
(-8.28559e-13 0 0)
(-1.24867e-12 0 0)
(-1.20199e-12 0 0)
(-1.1203e-12 0 0)
(-1.06196e-12 0 0)
(-8.16889e-13 0 0)
(-9.91936e-13 0 0)
(-7.2353e-13 0 0)
(-8.16889e-13 0 0)
(-5.71822e-13 0 0)
(-1.06196e-12 0 0)
(-9.45257e-13 0 0)
(-1.00361e-12 0 0)
(-1.31869e-12 0 0)
(-8.63568e-13 0 0)
(-8.40228e-13 0 0)
(-5.01803e-13 0 0)
(-3.73435e-13 0 0)
(-1.98387e-13 0 0)
(-3.85105e-13 0 0)
(-1.28368e-13 0 0)
(-5.83492e-13 0 0)
(-4.20114e-13 0 0)
(-3.03416e-13 0 0)
(-2.21727e-13 0 0)
(-4.08444e-13 0 0)
(-3.38425e-13 0 0)
(-1.16698e-13 0 0)
(-2.80076e-13 0 0)
(-3.38425e-13 0 0)
(-3.26756e-13 0 0)
(-4.78463e-13 0 0)
(-2.45067e-13 0 0)
(-3.61765e-13 0 0)
(-3.61765e-13 0 0)
(-4.20114e-13 0 0)
(-4.31784e-13 0 0)
(-3.50095e-13 0 0)
(-2.45067e-13 0 0)
(-5.83492e-14 0 0)
(-1.16698e-14 0 0)
(8.16889e-14 0 0)
(1.16698e-13 0 0)
(1.51708e-13 0 0)
(-2.21727e-13 0 0)
(-3.50095e-14 0 0)
(-1.16698e-14 0 0)
(-2.33397e-13 0 0)
(9.33587e-14 0 0)
(-2.56736e-13 0 0)
(-3.38425e-13 0 0)
(-3.50095e-13 0 0)
(-4.55124e-13 0 0)
(-1.75048e-13 0 0)
(-1.63378e-13 0 0)
(-8.16889e-14 0 0)
(-5.01803e-13 0 0)
(-9.33587e-14 0 0)
(-3.85105e-13 0 0)
(-1.40038e-13 0 0)
(-5.25143e-13 0 0)
(-1.51708e-13 0 0)
(-4.55124e-13 0 0)
(-1.16698e-13 0 0)
(-2.68406e-13 0 0)
(9.33587e-14 0 0)
(-2.80076e-13 0 0)
(-5.83492e-14 0 0)
(-2.45067e-13 0 0)
(-1.51708e-13 0 0)
(-2.68406e-13 0 0)
(-3.96775e-13 0 0)
(-3.73435e-13 0 0)
(-3.96775e-13 0 0)
(-3.38425e-13 0 0)
(-3.15086e-13 0 0)
(-1.63378e-13 0 0)
(-2.33397e-13 0 0)
(-4.66794e-14 0 0)
(-1.98387e-13 0 0)
(-1.75048e-13 0 0)
(-3.96775e-13 0 0)
(-1.16698e-14 0 0)
(-8.16889e-14 0 0)
(-1.00848e-26 0 0)
(-3.73435e-13 0 0)
(-1.51708e-13 0 0)
(-1.75048e-13 0 0)
(-2.33397e-13 0 0)
(-3.73435e-13 0 0)
(-1.40038e-13 0 0)
(-4.66794e-14 0 0)
(1.28368e-13 0 0)
(1.86717e-13 0 0)
(1.71025e-27 0 0)
(9.33587e-14 0 0)
(1.63378e-13 0 0)
(3.50095e-14 0 0)
(-1.05029e-13 0 0)
(2.33397e-14 0 0)
(-3.96775e-13 0 0)
(-1.16698e-13 0 0)
(-3.96775e-13 0 0)
(-2.33692e-26 0 0)
(-2.56736e-13 0 0)
(2.33397e-13 0 0)
(3.50095e-13 0 0)
(1.0853e-12 0 0)
(1.62211e-12 0 0)
(3.29089e-12 0 0)
(5.3798e-12 0 0)
(1.02111e-11 0 0)
(1.68629e-11 0 0)
(2.9303e-11 0 0)
(4.93284e-11 0 0)
(8.39995e-11 0 0)
(1.40377e-10 0 0)
(2.35684e-10 0 0)
(3.91955e-10 0 0)
(6.50594e-10 0 0)
(1.0734e-09 0 0)
(1.76401e-09 0 0)
(2.88668e-09 0 0)
(4.70305e-09 0 0)
(7.62901e-09 0 0)
(1.23212e-08 0 0)
(1.98117e-08 0 0)
(3.17147e-08 0 0)
(5.05417e-08 0 0)
(8.01825e-08 0 0)
(1.26629e-07 0 0)
(1.99065e-07 0 0)
(3.11494e-07 0 0)
(4.85152e-07 0 0)
(7.5208e-07 0 0)
(1.16035e-06 0 0)
(1.78171e-06 0 0)
(2.72263e-06 0 0)
(4.14023e-06 0 0)
(6.2651e-06 0 0)
(9.43361e-06 0 0)
(1.41337e-05 0 0)
(2.10689e-05 0 0)
(3.12474e-05 0 0)
(4.61056e-05 0 0)
(6.76766e-05 0 0)
(9.88206e-05 0 0)
(0.000143535 0 0)
(0.000207372 0 0)
(0.000297988 0 0)
(0.000425874 0 0)
(0.000605305 0 0)
(0.000855566 0 0)
(0.00120253 0 0)
(0.00168064 0 0)
(0.00233541 0 0)
(0.00322656 0 0)
(0.00443176 0 0)
(0.00605127 0 0)
(0.00821341 0 0)
(0.011081 0 0)
(0.0148591 0 0)
(0.0198029 0 0)
(0.026228 0 0)
(0.0345203 0 0)
(0.0451473 0 0)
(0.0586695 0 0)
(0.0757515 0 0)
(0.0971734 0 0)
(0.12384 0 0)
(0.156787 0 0)
(0.19719 0 0)
(0.246359 0 0)
(0.305743 0 0)
(0.376916 0 0)
(0.461563 0 0)
(0.561467 0 0)
(0.678478 0 0)
(0.814486 0 0)
(0.971386 0 0)
(1.15104 0 0)
(1.35525 0 0)
(1.5857 0 0)
(1.84394 0 0)
(2.13135 0 0)
(2.44908 0 0)
(2.7981 0 0)
(3.17911 0 0)
(3.59259 0 0)
(4.03877 0 0)
(4.51764 0 0)
(5.02898 0 0)
(5.57234 0 0)
(6.14711 0 0)
(6.75252 0 0)
(7.38764 0 0)
(8.05145 0 0)
(8.74285 0 0)
(9.46065 0 0)
(10.2037 0 0)
(10.9706 0 0)
(11.7604 0 0)
(12.5716 0 0)
(13.4032 0 0)
(14.2539 0 0)
(15.1227 0 0)
(16.0084 0 0)
(16.9101 0 0)
(17.8268 0 0)
(18.7575 0 0)
(19.7013 0 0)
(20.6576 0 0)
(21.6254 0 0)
(22.6041 0 0)
(23.593 0 0)
(24.5916 0 0)
(25.5991 0 0)
(26.6152 0 0)
(27.6393 0 0)
(28.6708 0 0)
(29.7095 0 0)
(30.755 0 0)
(31.8067 0 0)
(32.8645 0 0)
(33.9279 0 0)
(34.9967 0 0)
(36.0706 0 0)
(37.1494 0 0)
(38.2327 0 0)
(39.3205 0 0)
(40.4124 0 0)
(41.5082 0 0)
(42.6079 0 0)
(43.7111 0 0)
(44.8178 0 0)
(45.9277 0 0)
(47.0408 0 0)
(48.1569 0 0)
(49.2758 0 0)
(50.3974 0 0)
(51.5217 0 0)
(52.6484 0 0)
(53.7775 0 0)
(54.9089 0 0)
(56.0425 0 0)
(57.1781 0 0)
(58.3158 0 0)
(59.4554 0 0)
(60.5968 0 0)
(61.7399 0 0)
(62.8848 0 0)
(64.0312 0 0)
(65.1792 0 0)
(66.3287 0 0)
(67.4796 0 0)
(68.6319 0 0)
(69.7855 0 0)
(70.9403 0 0)
(72.0964 0 0)
(73.2536 0 0)
(74.4119 0 0)
(75.5713 0 0)
(76.7317 0 0)
(77.8931 0 0)
(79.0555 0 0)
(80.2188 0 0)
(81.383 0 0)
(82.548 0 0)
(83.7138 0 0)
(84.8804 0 0)
(86.0478 0 0)
(87.216 0 0)
(88.3848 0 0)
(89.5543 0 0)
(90.7245 0 0)
(91.8953 0 0)
(93.0667 0 0)
(94.2387 0 0)
(95.4113 0 0)
(96.5844 0 0)
(97.7581 0 0)
(98.9323 0 0)
(100.107 0 0)
(101.282 0 0)
(102.458 0 0)
(103.634 0 0)
(104.81 0 0)
(105.987 0 0)
(107.165 0 0)
(108.342 0 0)
(109.521 0 0)
(110.699 0 0)
(111.878 0 0)
(113.057 0 0)
(114.237 0 0)
(115.417 0 0)
(116.597 0 0)
(117.777 0 0)
(118.958 0 0)
(120.139 0 0)
(121.321 0 0)
(122.502 0 0)
(123.684 0 0)
(124.867 0 0)
(126.049 0 0)
(127.232 0 0)
(128.414 0 0)
(129.598 0 0)
(130.781 0 0)
(131.964 0 0)
(133.148 0 0)
(134.332 0 0)
(135.516 0 0)
(136.701 0 0)
(137.885 0 0)
(139.07 0 0)
(140.255 0 0)
(141.44 0 0)
(142.625 0 0)
(143.81 0 0)
(144.996 0 0)
(146.181 0 0)
(147.367 0 0)
(148.553 0 0)
(149.739 0 0)
(150.925 0 0)
(152.112 0 0)
(153.298 0 0)
(154.484 0 0)
(155.671 0 0)
(156.858 0 0)
(158.045 0 0)
(159.232 0 0)
(160.419 0 0)
(161.606 0 0)
(162.793 0 0)
(163.981 0 0)
(165.168 0 0)
(166.355 0 0)
(167.543 0 0)
(168.731 0 0)
(169.918 0 0)
(171.106 0 0)
(172.294 0 0)
(173.482 0 0)
(174.669 0 0)
(175.857 0 0)
(177.045 0 0)
(178.234 0 0)
(179.422 0 0)
(180.61 0 0)
(181.798 0 0)
(182.987 0 0)
(184.175 0 0)
(185.364 0 0)
(186.552 0 0)
(187.741 0 0)
(188.929 0 0)
(190.118 0 0)
(191.306 0 0)
(192.495 0 0)
(193.684 0 0)
(194.872 0 0)
(196.061 0 0)
(197.25 0 0)
(198.439 0 0)
(199.628 0 0)
(200.816 0 0)
(202.005 0 0)
(203.194 0 0)
(204.383 0 0)
(205.572 0 0)
(206.761 0 0)
(207.95 0 0)
(209.139 0 0)
(210.327 0 0)
(211.516 0 0)
(212.705 0 0)
(213.894 0 0)
(215.083 0 0)
(216.272 0 0)
(217.461 0 0)
(218.65 0 0)
(219.839 0 0)
(221.028 0 0)
(222.217 0 0)
(223.406 0 0)
(224.595 0 0)
(225.784 0 0)
(226.972 0 0)
(228.161 0 0)
(229.35 0 0)
(230.539 0 0)
(231.728 0 0)
(232.917 0 0)
(234.105 0 0)
(235.294 0 0)
(236.483 0 0)
(237.672 0 0)
(238.86 0 0)
(240.049 0 0)
(241.238 0 0)
(242.427 0 0)
(243.615 0 0)
(244.804 0 0)
(245.992 0 0)
(247.181 0 0)
(248.369 0 0)
(249.558 0 0)
(250.746 0 0)
(251.935 0 0)
(253.123 0 0)
(254.312 0 0)
(255.5 0 0)
(256.688 0 0)
(257.877 0 0)
(259.065 0 0)
(260.253 0 0)
(261.441 0 0)
(262.629 0 0)
(263.818 0 0)
(265.006 0 0)
(266.194 0 0)
(267.382 0 0)
(268.57 0 0)
(269.757 0 0)
(270.945 0 0)
(272.133 0 0)
(273.321 0 0)
(274.509 0 0)
(275.696 0 0)
(276.884 0 0)
(278.071 0 0)
(279.259 0 0)
(280.447 0 0)
(281.634 0 0)
(282.821 0 0)
(284.009 0 0)
(285.196 0 0)
(286.383 0 0)
(287.57 0 0)
(288.757 0 0)
(289.945 0 0)
(291.132 0 0)
(292.319 0 0)
(293.505 0 0)
(294.692 0 0)
(295.879 0 0)
(297.066 0 0)
(298.252 0 0)
(299.439 0 0)
(300.626 0 0)
(301.812 0 0)
(302.999 0 0)
(304.185 0 0)
(305.371 0 0)
(306.557 0 0)
(307.744 0 0)
(308.93 0 0)
(310.116 0 0)
(311.302 0 0)
(312.488 0 0)
(313.673 0 0)
(314.859 0 0)
(316.045 0 0)
(317.23 0 0)
(318.416 0 0)
(319.601 0 0)
(320.787 0 0)
(321.972 0 0)
(323.157 0 0)
(324.342 0 0)
(325.528 0 0)
(326.713 0 0)
(327.897 0 0)
(329.082 0 0)
(330.267 0 0)
(331.452 0 0)
(332.636 0 0)
(333.821 0 0)
(335.005 0 0)
(336.19 0 0)
(337.374 0 0)
(338.558 0 0)
(339.742 0 0)
(340.926 0 0)
(342.11 0 0)
(343.294 0 0)
(344.477 0 0)
(345.661 0 0)
(346.844 0 0)
(348.028 0 0)
(349.211 0 0)
(350.394 0 0)
(351.577 0 0)
(352.76 0 0)
(353.943 0 0)
(355.126 0 0)
(356.309 0 0)
(357.491 0 0)
(358.674 0 0)
(359.856 0 0)
(361.038 0 0)
(362.221 0 0)
(363.403 0 0)
(364.585 0 0)
(365.766 0 0)
(366.948 0 0)
(368.13 0 0)
(369.311 0 0)
(370.492 0 0)
(371.673 0 0)
(372.854 0 0)
(374.035 0 0)
(375.216 0 0)
(376.397 0 0)
(377.577 0 0)
(378.758 0 0)
(379.938 0 0)
(381.118 0 0)
(382.298 0 0)
(383.478 0 0)
(384.657 0 0)
(385.837 0 0)
(387.016 0 0)
(388.195 0 0)
(389.375 0 0)
(390.553 0 0)
(391.732 0 0)
(392.911 0 0)
(394.089 0 0)
(395.267 0 0)
(396.445 0 0)
(397.623 0 0)
(398.801 0 0)
(399.978 0 0)
(401.156 0 0)
(402.333 0 0)
(403.51 0 0)
(404.687 0 0)
(405.863 0 0)
(407.039 0 0)
(408.216 0 0)
(409.392 0 0)
(410.567 0 0)
(411.743 0 0)
(412.918 0 0)
(414.093 0 0)
(415.268 0 0)
(416.443 0 0)
(417.617 0 0)
(418.791 0 0)
(419.965 0 0)
(421.139 0 0)
(422.312 0 0)
(423.485 0 0)
(424.658 0 0)
(425.831 0 0)
(427.003 0 0)
(428.175 0 0)
(429.347 0 0)
(430.518 0 0)
(431.689 0 0)
(432.86 0 0)
(434.031 0 0)
(435.201 0 0)
(436.371 0 0)
(437.54 0 0)
(438.709 0 0)
(439.878 0 0)
(441.047 0 0)
(442.215 0 0)
(443.382 0 0)
(444.55 0 0)
(445.717 0 0)
(446.883 0 0)
(448.049 0 0)
(449.215 0 0)
(450.38 0 0)
(451.545 0 0)
(452.71 0 0)
(453.874 0 0)
(455.037 0 0)
(456.2 0 0)
(457.363 0 0)
(458.524 0 0)
(459.686 0 0)
(460.847 0 0)
(462.007 0 0)
(463.167 0 0)
(464.326 0 0)
(465.485 0 0)
(466.643 0 0)
(467.8 0 0)
(468.957 0 0)
(470.113 0 0)
(471.268 0 0)
(472.423 0 0)
(473.577 0 0)
(474.73 0 0)
(475.883 0 0)
(477.034 0 0)
(478.185 0 0)
(479.335 0 0)
(480.484 0 0)
(481.633 0 0)
(482.78 0 0)
(483.927 0 0)
(485.072 0 0)
(486.217 0 0)
(487.36 0 0)
(488.503 0 0)
(489.644 0 0)
(490.784 0 0)
(491.924 0 0)
(493.062 0 0)
(494.198 0 0)
(495.334 0 0)
(496.468 0 0)
(497.601 0 0)
(498.733 0 0)
(499.863 0 0)
(500.991 0 0)
(502.119 0 0)
(503.244 0 0)
(504.368 0 0)
(505.49 0 0)
(506.611 0 0)
(507.73 0 0)
(508.847 0 0)
(509.962 0 0)
(511.075 0 0)
(512.186 0 0)
(513.295 0 0)
(514.402 0 0)
(515.507 0 0)
(516.609 0 0)
(517.709 0 0)
(518.806 0 0)
(519.901 0 0)
(520.993 0 0)
(522.083 0 0)
(523.169 0 0)
(524.253 0 0)
(525.333 0 0)
(526.411 0 0)
(527.485 0 0)
(528.556 0 0)
(529.623 0 0)
(530.686 0 0)
(531.746 0 0)
(532.802 0 0)
(533.854 0 0)
(534.902 0 0)
(535.945 0 0)
(536.984 0 0)
(538.018 0 0)
(539.047 0 0)
(540.071 0 0)
(541.09 0 0)
(542.104 0 0)
(543.112 0 0)
(544.115 0 0)
(545.111 0 0)
(546.101 0 0)
(547.085 0 0)
(548.062 0 0)
(549.032 0 0)
(549.995 0 0)
(550.951 0 0)
(551.899 0 0)
(552.839 0 0)
(553.771 0 0)
(554.694 0 0)
(555.609 0 0)
(556.515 0 0)
(557.411 0 0)
(558.298 0 0)
(559.175 0 0)
(560.042 0 0)
(560.897 0 0)
(561.743 0 0)
(562.576 0 0)
(563.399 0 0)
(564.209 0 0)
(565.007 0 0)
(565.792 0 0)
(566.565 0 0)
(567.324 0 0)
(568.07 0 0)
(568.802 0 0)
(569.519 0 0)
(570.222 0 0)
(570.91 0 0)
(571.583 0 0)
(572.241 0 0)
(572.882 0 0)
(573.508 0 0)
(574.117 0 0)
(574.71 0 0)
(575.286 0 0)
(575.845 0 0)
(576.388 0 0)
(576.912 0 0)
(577.42 0 0)
(577.91 0 0)
(578.383 0 0)
(578.838 0 0)
(579.275 0 0)
(579.695 0 0)
(580.098 0 0)
(580.483 0 0)
(580.852 0 0)
(581.203 0 0)
(581.537 0 0)
(581.855 0 0)
(582.156 0 0)
(582.442 0 0)
(582.712 0 0)
(582.966 0 0)
(583.206 0 0)
(583.431 0 0)
(583.642 0 0)
(583.839 0 0)
(584.023 0 0)
(584.195 0 0)
(584.354 0 0)
(584.502 0 0)
(584.639 0 0)
(584.765 0 0)
(584.881 0 0)
(584.988 0 0)
(585.086 0 0)
(585.175 0 0)
(585.257 0 0)
(585.33 0 0)
(585.398 0 0)
(585.458 0 0)
(585.513 0 0)
(585.562 0 0)
(585.606 0 0)
(585.645 0 0)
(585.679 0 0)
(585.71 0 0)
(585.737 0 0)
(585.761 0 0)
(585.782 0 0)
(585.8 0 0)
(585.816 0 0)
(585.829 0 0)
(585.841 0 0)
(585.851 0 0)
(585.859 0 0)
(585.866 0 0)
(585.872 0 0)
(585.876 0 0)
(585.88 0 0)
(585.883 0 0)
(585.885 0 0)
(585.887 0 0)
(585.888 0 0)
(585.889 0 0)
(585.889 0 0)
(585.889 0 0)
(585.888 0 0)
(585.888 0 0)
(585.887 0 0)
(585.886 0 0)
(585.885 0 0)
(585.884 0 0)
(585.882 0 0)
(585.881 0 0)
(585.88 0 0)
(585.879 0 0)
(585.877 0 0)
(585.876 0 0)
(585.875 0 0)
(585.874 0 0)
(585.872 0 0)
(585.871 0 0)
(585.87 0 0)
(585.869 0 0)
(585.868 0 0)
(585.867 0 0)
(585.866 0 0)
(585.865 0 0)
(585.864 0 0)
(585.863 0 0)
(585.863 0 0)
(585.862 0 0)
(585.861 0 0)
(585.861 0 0)
(585.86 0 0)
(585.859 0 0)
(585.859 0 0)
(585.858 0 0)
(585.858 0 0)
(585.857 0 0)
(585.857 0 0)
(585.856 0 0)
(585.856 0 0)
(585.856 0 0)
(585.855 0 0)
(585.855 0 0)
(585.855 0 0)
(585.854 0 0)
(585.854 0 0)
(585.854 0 0)
(585.854 0 0)
(585.854 0 0)
(585.853 0 0)
(585.853 0 0)
(585.853 0 0)
(585.853 0 0)
(585.853 0 0)
(585.853 0 0)
(585.853 0 0)
(585.853 0 0)
(585.853 0 0)
(585.853 0 0)
(585.853 0 0)
(585.853 0 0)
(585.853 0 0)
(585.854 0 0)
(585.854 0 0)
(585.854 0 0)
(585.854 0 0)
(585.854 0 0)
(585.854 0 0)
(585.855 0 0)
(585.855 0 0)
(585.855 0 0)
(585.855 0 0)
(585.855 0 0)
(585.856 0 0)
(585.856 0 0)
(585.856 0 0)
(585.856 0 0)
(585.856 0 0)
(585.856 0 0)
(585.856 0 0)
(585.855 0 0)
(585.855 0 0)
(585.855 0 0)
(585.854 0 0)
(585.853 0 0)
(585.852 0 0)
(585.851 0 0)
(585.85 0 0)
(585.848 0 0)
(585.847 0 0)
(585.844 0 0)
(585.842 0 0)
(585.839 0 0)
(585.836 0 0)
(585.833 0 0)
(585.83 0 0)
(585.826 0 0)
(585.822 0 0)
(585.818 0 0)
(585.814 0 0)
(585.81 0 0)
(585.806 0 0)
(585.802 0 0)
(585.798 0 0)
(585.794 0 0)
(585.791 0 0)
(585.789 0 0)
(585.787 0 0)
(585.786 0 0)
(585.786 0 0)
(585.786 0 0)
(585.786 0 0)
(585.786 0 0)
(585.787 0 0)
(585.789 0 0)
(585.792 0 0)
(585.796 0 0)
(585.8 0 0)
(585.806 0 0)
(585.811 0 0)
(585.817 0 0)
(585.824 0 0)
(585.83 0 0)
(585.837 0 0)
(585.843 0 0)
(585.85 0 0)
(585.856 0 0)
(585.862 0 0)
(585.868 0 0)
(585.873 0 0)
(585.878 0 0)
(585.882 0 0)
(585.886 0 0)
(585.889 0 0)
(585.892 0 0)
(585.895 0 0)
(585.898 0 0)
(585.901 0 0)
(585.904 0 0)
(585.906 0 0)
(585.908 0 0)
(585.91 0 0)
(585.912 0 0)
(585.914 0 0)
(585.916 0 0)
(585.917 0 0)
(585.919 0 0)
(585.92 0 0)
(585.922 0 0)
(585.923 0 0)
(585.924 0 0)
(585.925 0 0)
(585.926 0 0)
(585.927 0 0)
(585.928 0 0)
(585.93 0 0)
(585.931 0 0)
(585.932 0 0)
(585.933 0 0)
(585.934 0 0)
(585.935 0 0)
(585.936 0 0)
(585.937 0 0)
(585.939 0 0)
(585.94 0 0)
(585.941 0 0)
(585.942 0 0)
(585.943 0 0)
(585.945 0 0)
(585.946 0 0)
(585.947 0 0)
(585.948 0 0)
(585.949 0 0)
(585.95 0 0)
(585.951 0 0)
(585.953 0 0)
(585.954 0 0)
(585.956 0 0)
(585.959 0 0)
(585.962 0 0)
(585.965 0 0)
(585.969 0 0)
(585.973 0 0)
(585.979 0 0)
(585.987 0 0)
(585.998 0 0)
(586.014 0 0)
(586.037 0 0)
(586.071 0 0)
(586.117 0 0)
(586.18 0 0)
(586.262 0 0)
(586.366 0 0)
(586.493 0 0)
(586.641 0 0)
(586.802 0 0)
(586.963 0 0)
(587.1 0 0)
(587.183 0 0)
)
;

boundaryField
{
    sides
    {
        type            zeroGradient;
    }
    empty
    {
        type            empty;
    }
}


// ************************************************************************* //
