/*--------------------------------*- C++ -*----------------------------------*\
  =========                 |
  \\      /  F ield         | OpenFOAM: The Open Source CFD Toolbox
   \\    /   O peration     | Website:  https://openfoam.org
    \\  /    A nd           | Version:  7
     \\/     M anipulation  |
\*---------------------------------------------------------------------------*/
FoamFile
{
    version     2.0;
    format      ascii;
    class       volScalarField;
    location    "0.001";
    object      mag(U);
}
// * * * * * * * * * * * * * * * * * * * * * * * * * * * * * * * * * * * * * //

dimensions      [0 1 -1 0 0 0 0];

internalField   nonuniform List<scalar> 
1000
(
5.13473e-13
5.13473e-13
6.06832e-13
7.352e-13
5.71822e-13
6.06832e-13
3.96775e-13
3.38425e-13
1.63378e-13
2.91746e-13
4.66794e-14
2.45067e-13
3.15086e-13
1.40038e-13
1.63378e-13
1.16698e-14
1.63378e-13
9.33587e-14
2.33397e-13
1.16698e-14
8.16889e-14
5.83492e-14
1.86717e-13
9.33587e-14
3.50095e-14
1.40038e-13
1.16698e-14
3.50095e-14
1.98387e-13
1.86717e-13
1.05029e-13
1.86717e-13
8.16889e-14
1.51708e-13
1.28368e-13
1.16698e-14
1.51708e-13
1.98387e-13
2.33397e-14
2.33397e-13
1.86717e-13
4.78463e-13
7.0019e-14
1.00974e-27
2.33397e-14
1.16698e-13
9.33587e-14
7.0019e-14
1.63378e-13
3.38425e-13
3.50095e-14
1.16698e-14
2.56736e-13
1.63378e-13
2.91746e-13
1.98387e-13
8.16889e-14
1.28368e-13
1.86717e-13
2.45067e-13
1.16698e-13
3.61765e-13
2.45067e-13
1.16698e-14
2.21727e-13
1.75048e-13
1.16698e-14
1.63378e-13
1.05029e-13
5.83492e-14
2.80076e-13
1.86717e-13
1.63378e-13
1.86717e-13
7.0019e-14
1.40038e-13
8.16889e-14
8.16889e-14
1.98387e-13
1.16698e-14
1.40038e-13
1.98387e-13
2.33397e-14
3.85105e-13
2.65057e-28
1.28368e-13
7.0019e-14
1.28368e-13
7.0019e-14
4.66794e-13
1.98387e-13
2.33397e-13
1.98387e-13
2.21727e-13
1.05029e-13
9.33587e-14
2.33397e-13
2.45067e-13
1.75048e-13
2.33397e-13
1.69132e-27
1.16698e-14
4.22829e-28
3.50095e-14
5.83492e-14
4.66794e-14
1.28368e-13
1.63378e-13
2.33397e-13
7.0019e-14
8.16889e-14
5.83492e-14
1.16698e-14
1.86717e-13
3.26756e-13
1.51708e-13
3.26756e-13
3.73435e-13
3.96775e-13
2.33397e-13
1.98387e-13
2.45067e-13
2.68406e-13
3.73435e-13
2.80076e-13
3.03416e-13
1.16698e-14
1.05029e-13
8.16889e-14
1.16698e-14
4.66794e-14
8.16889e-14
2.56736e-13
4.66794e-14
4.66794e-14
2.33397e-13
1.05029e-13
3.50095e-13
2.33397e-13
2.56736e-13
7.0019e-14
5.83492e-14
1.40038e-13
2.33397e-14
1.16698e-13
3.50095e-14
1.16698e-13
1.16698e-14
2.33397e-14
7.0019e-14
1.75048e-13
1.24324e-27
8.16889e-14
2.56736e-13
4.66794e-14
1.05029e-13
1.51708e-13
5.83492e-14
1.51708e-13
4.66794e-14
9.33587e-14
1.51708e-13
1.05029e-13
1.40038e-13
2.45067e-13
1.16698e-14
3.50095e-14
3.15086e-13
1.63378e-13
3.26756e-13
3.03416e-13
2.33397e-13
7.0019e-14
2.56736e-13
9.33587e-14
8.16889e-14
1.05029e-13
1.63378e-13
1.63378e-13
2.56736e-13
3.85105e-13
1.86717e-13
1.75048e-13
2.56736e-13
1.05029e-13
2.80076e-13
5.83492e-14
1.05029e-13
7.0019e-14
1.16698e-13
1.28368e-13
5.83492e-14
2.45067e-13
1.05029e-13
3.38425e-13
2.33397e-13
2.21727e-13
2.21727e-13
1.86717e-13
8.16889e-14
4.66794e-14
1.40038e-13
2.68406e-13
1.51708e-13
1.40038e-13
3.96775e-13
3.15086e-13
1.40038e-13
2.33397e-14
1.63378e-13
3.50095e-14
1.86717e-13
1.16698e-13
1.98387e-13
2.33397e-13
3.03416e-13
4.20114e-13
2.10057e-13
1.63378e-13
2.68406e-13
1.86717e-13
1.40038e-13
3.15086e-13
2.33397e-13
1.51708e-13
7.0019e-14
1.51708e-13
5.83492e-14
0
5.83492e-14
9.33587e-14
4.66794e-14
7.0019e-14
1.86717e-13
1.98387e-13
5.83492e-14
2.33397e-14
2.56736e-13
2.33397e-14
3.61765e-13
2.10057e-13
2.91746e-13
1.05029e-13
1.16698e-13
2.45067e-13
1.59981e-27
1.16698e-13
5.83492e-14
7.0019e-14
1.16698e-14
1.40038e-13
1.28368e-13
1.63378e-13
1.28368e-13
3.50095e-14
1.16698e-13
2.10057e-13
1.86717e-13
7.0019e-14
1.05029e-13
2.33397e-14
1.28368e-13
2.10057e-13
9.33587e-14
9.33587e-14
3.50095e-14
3.50095e-14
8.16889e-14
8.16889e-14
1.51708e-13
2.33397e-14
1.16698e-13
1.05029e-13
1.98387e-13
1.28368e-13
1.16698e-13
5.83492e-14
2.68406e-13
1.16698e-13
2.33397e-14
1.51708e-13
4.66794e-14
1.28368e-13
4.66794e-14
1.05029e-13
3.50095e-14
4.66794e-14
9.33587e-14
1.05029e-13
2.33397e-14
2.33397e-14
8.16889e-14
3.50095e-14
2.91746e-13
2.21727e-13
2.21727e-13
1.16698e-13
1.28368e-13
1.98387e-13
1.16698e-13
4.31784e-13
2.21727e-13
4.08444e-13
2.56736e-13
2.21727e-13
2.91746e-13
3.50095e-13
3.61765e-13
4.43454e-13
3.03416e-13
9.33587e-14
5.83492e-14
7.0019e-14
9.33587e-14
1.98387e-13
9.33587e-14
1.16698e-14
2.56736e-13
2.33397e-13
7.0019e-14
8.16889e-14
1.16698e-14
2.33397e-14
1.98387e-13
3.50095e-14
2.33397e-14
7.0019e-14
8.16889e-14
2.10057e-13
1.92013e-27
4.66794e-14
1.86717e-13
1.98387e-13
2.56736e-13
1.40038e-13
1.16698e-14
9.33587e-14
1.16698e-13
2.10057e-13
2.33397e-13
1.63378e-13
4.66794e-14
4.66794e-14
8.16889e-14
3.50095e-14
1.28368e-13
8.16889e-14
1.16698e-13
1.28368e-13
2.33397e-14
1.05029e-13
2.33397e-14
9.33587e-14
4.66794e-14
7.0019e-14
1.63378e-13
7.0019e-14
3.03416e-13
1.29058e-27
1.75048e-13
4.66794e-14
3.50095e-14
1.63378e-13
5.83492e-14
3.50095e-14
3.50095e-14
1.05029e-13
1.00974e-28
9.33587e-14
2.10057e-13
7.0019e-14
3.50095e-14
8.16889e-14
1.63378e-13
1.98387e-13
1.86717e-13
1.16698e-14
4.66794e-14
1.51708e-13
1.40038e-13
3.50095e-14
1.16698e-13
3.50095e-14
1.86717e-13
4.66794e-14
1.98793e-28
1.28368e-13
5.83492e-14
1.05029e-13
8.16889e-14
1.05029e-13
9.33587e-14
1.86717e-13
2.21727e-13
4.66794e-13
1.40038e-13
1.75048e-13
6.30655e-28
1.16698e-13
2.33397e-14
4.66794e-14
1.98387e-13
1.51708e-13
2.33397e-14
5.83492e-14
2.21727e-13
5.83492e-14
3.26756e-13
2.68406e-13
2.33397e-14
2.33397e-14
2.91746e-13
2.56736e-13
5.36813e-13
4.31784e-13
5.60152e-13
4.31784e-13
7.2353e-13
8.16889e-13
1.49374e-12
3.08084e-12
8.13388e-12
2.28262e-11
6.29121e-11
1.72305e-10
4.6663e-10
1.24926e-09
3.30491e-09
8.63329e-09
2.22636e-08
5.66537e-08
1.42215e-07
3.52031e-07
8.58964e-07
2.06516e-06
4.89028e-06
1.14005e-05
2.61531e-05
5.90086e-05
0.00013088
0.000285202
0.000610236
0.00128125
0.00263798
0.00532224
0.010514
0.0203207
0.0383903
0.0708301
0.127499
0.223693
0.382139
0.635032
1.02563
1.60875
2.44944
3.61931
5.19066
7.229
9.78563
12.8917
16.555
20.7604
25.4739
30.6488
36.2329
42.1735
48.4209
54.931
61.6657
68.5928
75.6859
82.9231
90.2862
97.7603
105.332
112.991
120.728
128.532
136.396
144.316
152.276
160.289
168.314
176.399
184.481
192.598
200.74
208.881
217.038
225.213
233.387
241.56
249.742
257.928
266.107
274.281
282.452
290.621
298.782
306.933
315.072
323.199
331.315
339.419
347.507
355.575
363.624
371.649
379.652
387.629
395.579
403.497
411.382
419.226
427.027
434.779
442.477
450.115
457.687
465.185
472.602
479.926
487.147
494.251
501.224
508.049
514.708
521.181
527.448
533.487
539.277
544.793
550.014
554.919
559.487
563.693
567.527
571.027
574.151
576.865
579.166
581.072
582.656
583.934
584.936
585.697
586.251
586.631
586.871
587.001
587.041
587.026
586.988
586.929
586.867
586.822
586.806
586.821
586.856
586.936
587.045
587.148
587.243
587.339
587.452
587.573
587.703
587.842
587.984
588.128
588.255
588.377
588.511
588.573
588.66
588.529
588.446
587.855
586.802
584.761
580.045
571.218
553.2
517.738
451.583
337.661
182.709
59.6641
13.0284
2.3335
0.36431
0.0544369
0.00809358
0.00120445
0.000179385
2.67255e-05
3.98197e-06
5.93277e-07
8.83869e-08
1.31671e-08
1.9614e-09
2.92082e-10
4.34702e-11
6.57888e-12
1.02111e-12
1.45873e-13
2.91746e-14
1.60461e-13
7.29366e-14
1.45873e-14
1.45873e-14
3.56565e-28
1.45873e-14
4.3762e-14
2.91746e-14
1.02111e-13
1.02111e-13
2.91746e-14
7.29366e-14
1.16699e-13
5.83493e-14
1.45873e-13
1.45873e-13
2.1881e-13
1.16699e-13
7.29366e-14
5.83493e-14
1.02111e-13
1.45873e-13
4.3762e-14
4.3762e-14
4.89094e-28
8.75239e-14
2.91746e-14
1.75048e-13
1.45873e-14
2.1881e-13
5.83493e-14
1.60461e-13
3.50096e-13
1.02111e-13
4.3762e-14
1.45873e-14
8.75239e-14
2.91746e-14
4.3762e-14
1.02111e-13
3.20921e-13
2.1881e-13
2.47984e-13
2.1881e-13
1.45873e-14
1.45873e-14
4.3762e-14
1.45873e-14
1.89635e-13
2.62572e-13
7.29366e-14
1.45873e-13
2.91746e-14
2.91746e-14
2.91746e-14
1.45873e-14
1.02111e-13
7.29366e-14
8.75239e-14
4.3762e-14
4.3762e-14
2.04222e-13
1.75048e-13
3.50254e-28
2.91746e-14
1.60461e-13
2.77159e-13
1.31286e-13
2.47984e-13
1.16699e-13
2.91746e-13
2.91746e-14
1.60461e-13
3.64683e-13
1.45873e-14
2.47984e-13
1.75048e-13
3.93858e-13
3.35508e-13
2.1881e-13
1.60461e-13
4.3762e-14
3.06334e-13
7.29366e-14
1.75048e-13
1.60461e-13
4.3762e-14
2.91746e-13
2.33397e-13
3.7927e-13
2.47984e-13
2.47984e-13
1.60461e-13
1.02111e-13
8.18107e-28
1.16699e-13
2.33397e-13
2.33397e-13
1.89635e-13
1.16699e-13
1.45873e-13
2.04222e-13
4.3762e-14
1.75048e-13
2.47984e-13
3.20921e-13
1.60461e-13
5.25144e-13
3.50096e-13
3.64683e-13
3.20921e-13
2.04222e-13
2.33397e-13
2.1881e-13
5.25144e-13
1.75048e-13
4.08445e-13
2.77159e-13
2.91746e-13
3.06334e-13
1.02111e-13
1.16699e-13
1.45873e-13
3.06334e-13
2.91746e-13
1.02111e-13
2.91746e-13
1.31286e-13
2.91746e-13
3.06334e-13
3.20921e-13
3.7927e-13
5.9808e-13
1.89635e-13
4.3762e-13
4.3762e-14
1.16699e-13
2.33397e-13
8.75239e-14
1.45873e-14
1.45873e-13
1.02111e-13
2.1881e-13
1.45873e-14
2.1881e-13
5.83493e-14
1.31286e-13
2.04222e-13
3.93858e-13
3.7927e-13
5.39731e-13
1.02111e-13
2.1881e-13
5.83493e-14
1.60461e-13
3.93858e-13
3.06334e-13
3.64683e-13
4.3762e-14
3.06334e-13
1.89635e-13
1.02111e-13
2.33397e-13
5.83493e-14
2.91746e-14
8.75239e-14
2.04222e-13
4.95969e-13
3.35508e-13
4.3762e-13
3.7927e-13
3.50096e-13
5.10556e-13
3.64683e-13
2.47984e-13
4.23032e-13
2.33397e-13
2.91746e-13
4.3762e-13
6.56429e-13
7.73128e-13
4.52207e-13
5.83493e-13
2.91746e-13
2.04222e-13
1.31286e-13
7.29366e-14
2.62572e-13
3.50096e-13
3.50096e-13
1.75048e-13
1.60461e-13
7.29366e-14
1.60461e-13
1.16699e-13
2.91746e-14
7.29366e-14
2.04222e-13
7.29366e-14
1.31286e-13
1.45873e-13
1.16699e-13
1.45873e-14
2.91746e-14
5.83493e-14
1.60461e-13
4.3762e-14
7.29366e-14
2.62572e-13
1.45873e-13
8.75239e-14
1.45873e-14
2.33397e-13
1.45873e-14
3.7927e-13
1.89635e-13
5.25144e-13
5.9808e-13
8.89827e-13
4.52207e-13
8.02303e-13
5.54318e-13
7.87715e-13
7.43953e-13
6.71017e-13
3.35508e-13
3.50096e-13
2.33397e-13
2.1881e-13
2.25299e-27
4.08445e-13
3.58143e-27
1.16699e-13
2.62572e-13
2.91746e-13
1.45873e-13
7.29366e-14
1.45873e-13
8.75239e-14
1.60461e-13
8.75239e-14
1.45873e-13
3.23117e-27
1.45873e-13
9.65566e-28
1.45873e-14
1.16699e-13
2.91746e-14
1.31286e-13
1.02111e-13
1.89635e-13
2.33397e-13
1.16699e-13
1.45873e-13
1.60461e-13
1.60461e-13
1.45873e-14
5.83493e-14
5.83493e-14
2.91746e-14
1.31286e-13
4.3762e-14
7.29366e-14
2.91746e-13
1.31286e-13
3.06334e-13
2.62572e-13
4.66794e-13
2.47984e-13
2.47984e-13
1.02111e-13
1.45873e-14
2.91746e-14
1.02111e-13
1.31286e-13
2.47984e-13
3.50096e-13
4.95969e-13
3.93858e-13
6.56429e-13
4.23032e-13
5.39731e-13
4.23032e-13
8.75239e-13
6.27255e-13
6.27255e-13
5.25144e-13
3.7927e-13
5.10556e-13
1.31286e-13
2.91746e-13
4.3762e-14
8.75239e-14
2.91746e-14
2.04222e-13
3.64683e-13
1.45873e-13
3.64683e-13
2.33397e-13
8.75239e-14
1.75048e-13
1.45873e-14
8.75239e-14
2.04222e-13
8.75239e-14
4.3762e-14
2.04222e-13
1.75048e-13
2.91746e-14
1.45873e-14
5.83493e-14
2.1881e-13
2.04222e-13
2.33397e-13
1.89635e-13
7.29366e-14
1.31286e-13
4.3762e-14
2.91746e-14
4.3762e-14
5.83493e-14
8.75239e-14
1.45873e-14
1.02111e-13
1.89635e-13
4.3762e-14
1.31286e-13
5.83493e-14
1.31286e-13
1.45873e-13
1.45873e-13
4.3762e-14
1.16699e-13
1.45873e-14
1.75048e-13
1.45873e-13
4.3762e-14
1.31286e-13
4.3762e-14
1.45873e-14
1.60461e-13
2.91746e-14
4.3762e-14
5.83493e-14
1.60461e-13
4.08445e-13
7.29366e-14
3.20921e-13
2.91746e-14
1.02111e-13
1.45873e-13
5.83493e-14
2.33397e-13
7.29366e-14
1.31286e-13
4.3762e-14
1.29058e-27
2.04222e-13
2.04222e-13
1.89635e-13
2.33397e-13
5.83493e-14
8.75239e-14
1.45873e-13
2.91746e-14
1.45873e-14
1.16699e-13
2.33397e-13
8.33037e-28
5.11182e-28
8.75239e-14
5.83493e-14
1.45873e-13
8.75239e-14
1.75048e-13
1.02111e-13
2.91746e-14
1.31286e-13
5.83493e-14
1.60461e-13
1.75048e-13
3.20921e-13
3.20921e-13
1.89635e-13
2.77159e-13
2.91746e-13
1.16699e-13
3.35508e-13
4.3762e-13
5.10556e-13
6.56429e-13
4.08445e-13
)
;

boundaryField
{
    sides
    {
        type            calculated;
        value           nonuniform List<scalar> 2(4.08445e-13 5.13473e-13);
    }
    empty
    {
        type            empty;
    }
}


// ************************************************************************* //
