/*--------------------------------*- C++ -*----------------------------------*\
  =========                 |
  \\      /  F ield         | OpenFOAM: The Open Source CFD Toolbox
   \\    /   O peration     | Website:  https://openfoam.org
    \\  /    A nd           | Version:  7
     \\/     M anipulation  |
\*---------------------------------------------------------------------------*/
FoamFile
{
    version     2.0;
    format      ascii;
    class       surfaceScalarField;
    location    "0.001";
    object      phi;
}
// * * * * * * * * * * * * * * * * * * * * * * * * * * * * * * * * * * * * * //

dimensions      [1 0 -1 0 0 0 0];

internalField   nonuniform List<scalar> 
999
(
-2.22826e-11
-2.04636e-11
-2.63753e-11
-2.77396e-11
-2.31921e-11
-2.04636e-11
-1.63709e-11
-1.00044e-11
-1.00044e-11
-4.09273e-12
-5.45697e-12
-1.18234e-11
-9.54969e-12
-6.36646e-12
-5.00222e-12
-4.54747e-12
-5.45697e-12
-9.09495e-12
-5.00222e-12
-2.27374e-12
-3.18323e-12
9.09495e-13
4.09273e-12
-3.18323e-12
-1.81899e-12
-2.72848e-12
-9.09495e-13
-4.54747e-12
-9.09495e-12
-5.91172e-12
1.81899e-12
2.27374e-12
-4.09273e-12
-7.27596e-12
-1.81899e-12
-6.36646e-12
-3.63798e-12
-5.45697e-12
-6.82121e-12
-4.54747e-12
-1.50067e-11
-1.22782e-11
-2.72848e-12
2.72848e-12
2.72848e-12
9.09495e-13
-4.54747e-12
3.18323e-12
8.18545e-12
1.18234e-11
-9.09495e-13
-5.91172e-12
0
9.09495e-12
1.13687e-11
4.09273e-12
5.91172e-12
7.7307e-12
-3.18323e-12
-5.45697e-12
-9.09495e-12
-1.40972e-11
-4.09273e-12
-5.91172e-12
-1.36424e-12
5.00222e-12
3.18323e-12
5.91172e-12
3.63798e-12
6.36646e-12
1.00044e-11
8.6402e-12
-9.09495e-13
-2.72848e-12
-1.36424e-12
-1.81899e-12
6.82121e-12
-5.91172e-12
-1.36424e-12
-4.09273e-12
1.36424e-12
5.00222e-12
7.27596e-12
8.18545e-12
2.72848e-12
2.27374e-12
-5.45697e-12
-4.09273e-12
-1.00044e-11
-1.59162e-11
-6.82121e-12
-1.18234e-11
-7.27596e-12
-7.7307e-12
-4.54747e-13
-3.63798e-12
-1.00044e-11
-9.54969e-12
-1.04592e-11
-3.18323e-12
-4.54747e-13
1.36424e-12
2.46519e-32
1.81899e-12
2.72848e-12
3.63798e-12
6.36646e-12
8.6402e-12
5.45697e-12
5.00222e-12
4.54747e-13
-1.36424e-12
-4.54747e-12
-1.09139e-11
-1.13687e-11
-1.04592e-11
-1.18234e-11
-1.90994e-11
-1.27329e-11
-6.82121e-12
-7.27596e-12
-1.13687e-11
-1.40972e-11
-1.22782e-11
-1.36424e-11
-7.7307e-12
-9.09495e-13
-9.09495e-13
1.81899e-12
4.54747e-13
5.00222e-12
5.00222e-12
7.27596e-12
-5.00222e-12
3.63798e-12
6.82121e-12
1.09139e-11
1.13687e-11
1.13687e-11
3.18323e-12
-3.63798e-12
2.27374e-12
1.81899e-12
-1.81899e-12
-5.45697e-12
-9.09495e-13
-4.54747e-12
-4.54747e-13
3.18323e-12
-3.18323e-12
-5.00222e-12
1.36424e-12
8.18545e-12
3.18323e-12
1.36424e-12
0
-7.27596e-12
-2.72848e-12
-5.00222e-12
-2.27374e-12
-5.00222e-12
-4.09273e-12
-7.7307e-12
-5.45697e-12
-5.45697e-12
-4.54747e-13
9.54969e-12
6.36646e-12
1.31877e-11
1.09139e-11
1.18234e-11
6.82121e-12
4.54747e-12
5.45697e-12
4.09273e-12
3.18323e-12
-9.09495e-13
-7.27596e-12
-9.54969e-12
-1.50067e-11
-9.54969e-12
-5.91172e-12
-7.7307e-12
-1.09139e-11
-4.54747e-12
-5.91172e-12
3.63798e-12
4.09273e-12
4.54747e-12
3.18323e-12
5.45697e-12
5.91172e-12
6.82121e-12
6.82121e-12
1.45519e-11
7.7307e-12
1.04592e-11
7.27596e-12
8.18545e-12
9.09495e-13
-9.09495e-13
1.36424e-12
1.09139e-11
4.54747e-12
1.18234e-11
1.81899e-11
6.82121e-12
4.54747e-12
2.72848e-12
4.54747e-12
-5.00222e-12
-1.00044e-11
-4.09273e-12
-1.09139e-11
-1.18234e-11
-1.50067e-11
-1.45519e-11
-6.36646e-12
-1.09139e-11
-1.04592e-11
-5.00222e-12
-1.04592e-11
-1.27329e-11
-6.82121e-12
-5.00222e-12
3.18323e-12
2.72848e-12
9.09495e-13
1.36424e-12
9.09495e-13
-1.81899e-12
2.72848e-12
8.18545e-12
6.36646e-12
8.6402e-12
-9.09495e-13
6.82121e-12
5.00222e-12
7.7307e-12
1.36424e-11
9.54969e-12
6.82121e-12
6.82121e-12
4.54747e-12
5.91172e-12
3.18323e-12
3.18323e-12
-4.03897e-28
4.09273e-12
1.36424e-12
0
9.09495e-13
-2.46519e-32
-1.36424e-12
-3.18323e-12
-9.09495e-12
-6.82121e-12
-8.18545e-12
-3.63798e-12
-3.18323e-12
3.18323e-12
-4.09273e-12
-9.09495e-13
-4.54747e-13
-3.63798e-12
1.81899e-12
-1.36424e-12
1.36424e-12
1.36424e-12
3.63798e-12
-5.00222e-12
-5.45697e-12
-5.91172e-12
-7.7307e-12
-5.45697e-12
-3.18323e-12
4.09273e-12
1.04592e-11
1.36424e-12
-2.27374e-12
-2.27374e-12
9.09495e-13
4.09273e-12
-5.00222e-12
-1.81899e-12
-4.54747e-13
-3.63798e-12
-4.09273e-12
-3.63798e-12
0
-2.72848e-12
-2.72848e-12
7.7307e-12
1.04592e-11
1.09139e-11
6.82121e-12
0
4.54747e-13
7.27596e-12
1.31877e-11
1.36424e-11
1.00044e-11
1.77351e-11
9.54969e-12
8.18545e-12
1.18234e-11
1.72804e-11
1.68257e-11
1.31877e-11
9.09495e-12
9.09495e-13
-2.27374e-12
-4.54747e-12
-4.54747e-12
-5.91172e-12
-2.27374e-12
7.27596e-12
6.82121e-12
8.6402e-12
-9.09495e-13
-4.54747e-13
-1.81899e-12
4.09273e-12
3.18323e-12
9.09495e-13
2.72848e-12
1.81899e-12
8.18545e-12
4.54747e-12
-2.27374e-12
-6.36646e-12
-8.6402e-12
-6.36646e-12
-9.09495e-12
-4.09273e-12
3.18323e-12
-4.54747e-13
-7.7307e-12
-8.18545e-12
-1.36424e-12
2.27374e-12
-4.54747e-13
9.09495e-13
-2.27374e-12
-4.54747e-13
8.6402e-12
1.81899e-12
4.54747e-12
4.54747e-12
-2.72848e-12
-4.54747e-12
2.72848e-12
9.09495e-13
-2.72848e-12
-5.00222e-12
-5.45697e-12
-8.6402e-12
-4.54747e-12
3.18323e-12
5.00222e-12
9.09495e-13
-2.72848e-12
-1.81899e-12
0
-2.27374e-12
-2.27374e-12
-2.27374e-12
-2.27374e-12
3.63798e-12
1.81899e-12
3.18323e-12
-1.36424e-12
7.7307e-12
-2.27374e-12
4.54747e-13
3.18323e-12
9.09495e-13
-9.09495e-13
-9.09495e-13
4.09273e-12
1.81899e-12
1.81899e-12
-5.45697e-12
-2.27374e-12
9.09495e-13
-2.27374e-12
-1.36424e-12
-1.36424e-12
-4.54747e-12
-1.36424e-12
7.27596e-12
3.63798e-12
9.54969e-12
1.40972e-11
1.04592e-11
7.7307e-12
3.63798e-12
2.72848e-12
9.09495e-13
-4.54747e-13
4.09273e-12
5.45697e-12
6.82121e-12
-2.72848e-12
-6.36646e-12
-3.63798e-12
-7.7307e-12
-1.22782e-11
-4.09273e-12
-1.81899e-12
7.27596e-12
1.09139e-11
1.63709e-11
2.36469e-11
1.54614e-11
2.31921e-11
2.36469e-11
2.95586e-11
4.27463e-11
7.41238e-11
1.84173e-10
5.13865e-10
1.42472e-09
3.92311e-09
1.06938e-08
2.88337e-08
7.68418e-08
2.02271e-07
5.25684e-07
1.34844e-06
3.41272e-06
8.51879e-06
2.09655e-05
5.08527e-05
0.000121514
0.00028593
0.000662237
0.00150897
0.00338098
0.00744497
0.0161025
0.0341878
0.0712051
0.145383
0.290771
0.569221
1.08976
2.03847
3.72204
6.62701
11.4936
19.3968
31.8193
50.6897
78.3546
117.455
170.696
240.526
328.789
436.423
563.279
708.11
868.724
1042.27
1225.63
1415.72
1609.7
1805.12
1999.9
2192.36
2381.19
2565.37
2744.11
2916.82
3083.09
3242.57
3395.05
3540.32
3678.45
3808.84
3932.91
4047.46
4158.24
4257.96
4351.85
4442.91
4518.49
4593.6
4664.13
4721.98
4774.34
4825.47
4870.12
4905
4933.97
4960.88
4984.43
5001.53
5011.31
5016.04
5018.11
5018.01
5014.33
5005.62
4991.52
4973.12
4951.91
4928.93
4904.29
4877.38
4847.32
4813.68
4776.46
4736.36
4694.25
4651.01
4607.17
4562.89
4517.91
4471.83
4424.11
4374.5
4322.87
4269.48
4214.88
4159.74
4104.94
4051.25
3999.38
3949.88
3902.95
3858.69
3816.81
3776.9
3738.15
3699.47
3659.53
3618.49
3577.53
3535.55
3491.7
3443.84
3391.08
3332.2
3265.74
3190.65
3105.57
3009.76
2902.54
2784.21
2655.35
2518.09
2374.14
2227.08
2080
1936.77
1800.14
1673.15
1557.6
1454.85
1365.28
1288.97
1225.25
1173.14
1131.17
1097.91
1072.15
1052.55
1037.94
1027.39
1019.92
1014.78
1011.41
1009.3
1007.8
1007.09
1005.84
1004.76
1001.6
995.379
982.311
956.063
902.459
808.695
657.422
446.549
224.602
75.4952
16.4912
2.65142
0.391495
0.0576372
0.00853824
0.0012694
0.000189006
2.81566e-05
4.19513e-06
6.25038e-07
9.31196e-08
1.38721e-08
2.06646e-09
3.07843e-10
4.58726e-11
6.79279e-12
1.03739e-12
1.77636e-13
-7.10543e-15
4.9738e-14
5.68434e-14
1.42109e-14
0
1.42109e-14
-7.10543e-15
-7.10543e-15
-2.13163e-14
-3.55271e-14
0
1.42109e-14
1.42109e-14
4.9738e-14
5.68434e-14
4.26326e-14
7.81597e-14
9.23706e-14
7.10543e-14
4.9738e-14
2.84217e-14
-1.42109e-14
2.13163e-14
4.9738e-14
7.10543e-15
2.13163e-14
1.42109e-14
2.13163e-14
4.9738e-14
5.68434e-14
3.55271e-14
4.26326e-14
4.26326e-14
-7.10543e-14
-1.35003e-13
-1.42109e-14
1.42109e-14
-1.42109e-14
-5.68434e-14
2.13163e-14
-2.84217e-14
-9.23706e-14
-1.35003e-13
-1.20792e-13
-1.27898e-13
-5.68434e-14
0
2.84217e-14
-7.10543e-15
7.10543e-14
8.52651e-14
5.68434e-14
2.13163e-14
2.13163e-14
0
2.13163e-14
1.42109e-14
2.84217e-14
2.13163e-14
-7.10543e-15
7.10543e-15
-2.13163e-14
-4.9738e-14
-1.27898e-13
-2.84217e-14
2.13163e-14
-3.55271e-14
3.55271e-14
3.55271e-14
3.55271e-14
3.55271e-14
4.9738e-14
5.68434e-14
5.68434e-14
-3.55271e-14
-1.20792e-13
-5.68434e-14
-7.81597e-14
-1.7053e-13
-1.7053e-13
-1.20792e-13
-1.13687e-13
-2.84217e-14
-9.9476e-14
-1.20792e-13
-5.68434e-14
-8.52651e-14
-4.9738e-14
-7.10543e-14
-1.35003e-13
-1.42109e-13
-1.91847e-13
-9.9476e-14
-1.49214e-13
-4.9738e-14
-2.84217e-14
-3.55271e-14
-8.52651e-14
-1.27898e-13
-1.13687e-13
-8.52651e-14
-6.39488e-14
-8.52651e-14
-4.9738e-14
-2.84217e-14
-8.52651e-14
-1.42109e-13
-1.42109e-13
-1.84741e-13
-2.34479e-13
-1.91847e-13
-1.84741e-13
-1.42109e-13
-8.52651e-14
-1.42109e-13
-1.56319e-13
-2.13163e-13
-1.35003e-13
-1.98952e-13
-1.56319e-13
0
7.81597e-14
-8.52651e-14
-5.68434e-14
-8.52651e-14
-1.63425e-13
-1.27898e-13
-7.81597e-14
-1.35003e-13
-9.23706e-14
-1.63425e-13
-1.27898e-13
-1.7053e-13
-2.20268e-13
-2.34479e-13
-1.49214e-13
-1.13687e-13
-2.13163e-14
-9.9476e-14
-8.52651e-14
-2.13163e-14
4.9738e-14
7.10543e-15
2.84217e-14
4.9738e-14
7.81597e-14
3.55271e-14
-7.10543e-15
1.27898e-13
1.49214e-13
1.56319e-13
2.20268e-13
1.84741e-13
4.9738e-14
7.10543e-14
-5.68434e-14
-1.63425e-13
-1.84741e-13
-1.77636e-13
-8.52651e-14
-8.52651e-14
-7.10543e-15
0
4.9738e-14
4.9738e-14
3.55271e-14
2.84217e-14
6.39488e-14
1.77636e-13
1.91847e-13
2.06057e-13
2.41585e-13
1.7053e-13
2.34479e-13
2.41585e-13
1.49214e-13
2.06057e-13
1.49214e-13
1.27898e-13
1.7053e-13
2.77112e-13
3.55271e-13
3.19744e-13
2.77112e-13
1.91847e-13
1.27898e-13
8.52651e-14
0
-5.68434e-14
-1.7053e-13
-1.77636e-13
-1.49214e-13
-9.23706e-14
-7.10543e-14
-8.52651e-14
-1.42109e-14
3.55271e-14
2.84217e-14
5.68434e-14
4.9738e-14
1.42109e-14
4.26326e-14
7.81597e-14
7.10543e-14
-2.13163e-14
2.84217e-14
-3.55271e-14
-7.81597e-14
0
9.9476e-14
2.13163e-14
-5.68434e-14
-4.26326e-14
-2.84217e-14
-6.39488e-14
-9.23706e-14
-1.7053e-13
-1.56319e-13
-3.12639e-13
-3.2685e-13
-3.62377e-13
-2.55795e-13
-3.48166e-13
-3.55271e-13
-3.48166e-13
-3.48166e-13
-2.55795e-13
-1.42109e-13
-1.77636e-13
-9.23706e-14
-7.81597e-14
-1.20792e-13
-9.23706e-14
-2.13163e-14
1.42109e-14
1.7053e-13
1.06581e-13
4.9738e-14
0
-4.26326e-14
0
-2.84217e-14
-7.10543e-15
-4.9738e-14
-4.26326e-14
-2.84217e-14
-7.10543e-15
4.9738e-14
1.42109e-14
-3.55271e-14
-6.39488e-14
-6.39488e-14
-1.27898e-13
-7.10543e-14
-7.10543e-14
-5.68434e-14
-9.23706e-14
-5.68434e-14
2.13163e-14
4.26326e-14
-2.13163e-14
3.55271e-14
8.52651e-14
-4.26326e-14
7.81597e-14
1.20792e-13
1.27898e-13
1.13687e-13
1.98952e-13
1.56319e-13
1.13687e-13
4.9738e-14
-4.9738e-14
0
1.42109e-14
5.68434e-14
1.13687e-13
1.77636e-13
1.77636e-13
2.27374e-13
2.77112e-13
2.84217e-13
2.13163e-13
2.4869e-13
3.05533e-13
3.90799e-13
3.33955e-13
2.4869e-13
2.34479e-13
2.41585e-13
1.13687e-13
1.06581e-13
1.06581e-13
7.10543e-15
-3.55271e-14
7.10543e-14
1.42109e-13
1.49214e-13
1.42109e-13
1.20792e-13
7.10543e-14
6.39488e-14
5.68434e-14
-2.13163e-14
-7.81597e-14
-4.26326e-14
4.9738e-14
-3.55271e-14
-1.20792e-13
-5.68434e-14
-7.10543e-15
-3.55271e-14
4.26326e-14
9.23706e-14
1.06581e-13
8.52651e-14
8.52651e-14
6.39488e-14
2.84217e-14
-2.84217e-14
-2.84217e-14
0
-6.39488e-14
0
2.13163e-14
8.52651e-14
4.26326e-14
4.26326e-14
3.55271e-14
6.39488e-14
6.39488e-14
9.23706e-14
2.13163e-14
3.55271e-14
0
-4.26326e-14
-6.39488e-14
0
-4.26326e-14
-4.9738e-14
0
-8.52651e-14
-1.42109e-14
-2.84217e-14
0
6.39488e-14
1.35003e-13
1.35003e-13
1.06581e-13
7.10543e-14
2.13163e-14
4.26326e-14
6.39488e-14
6.39488e-14
9.23706e-14
6.39488e-14
2.84217e-14
2.13163e-14
-6.39488e-14
-1.27898e-13
-8.52651e-14
-7.10543e-14
-9.9476e-14
-2.84217e-14
-5.68434e-14
-3.55271e-14
2.84217e-14
4.26326e-14
-5.68434e-14
-4.26326e-14
7.10543e-15
7.10543e-15
1.42109e-14
1.42109e-14
8.52651e-14
4.9738e-14
6.39488e-14
2.84217e-14
-6.39488e-14
-1.42109e-14
-2.84217e-14
-8.52651e-14
-1.49214e-13
-1.49214e-13
-1.35003e-13
-1.20792e-13
-1.56319e-13
-1.20792e-13
-9.23706e-14
-1.98952e-13
-2.06057e-13
-3.12639e-13
-2.41585e-13
)
;

boundaryField
{
    sides
    {
        type            calculated;
        value           nonuniform List<scalar> 2(-2.18279e-13 2.04891e-11);
    }
    empty
    {
        type            empty;
        value           nonuniform 0();
    }
}


// ************************************************************************* //
