/*--------------------------------*- C++ -*----------------------------------*\
  =========                 |
  \\      /  F ield         | OpenFOAM: The Open Source CFD Toolbox
   \\    /   O peration     | Website:  https://openfoam.org
    \\  /    A nd           | Version:  7
     \\/     M anipulation  |
\*---------------------------------------------------------------------------*/
FoamFile
{
    version     2.0;
    format      ascii;
    class       volVectorField;
    location    "0.001";
    object      U;
}
// * * * * * * * * * * * * * * * * * * * * * * * * * * * * * * * * * * * * * //

dimensions      [0 1 -1 0 0 0 0];

internalField   nonuniform List<vector> 
1000
(
(-5.13473e-13 0 0)
(-5.13473e-13 0 0)
(-6.06832e-13 0 0)
(-7.352e-13 0 0)
(-5.71822e-13 0 0)
(-6.06832e-13 0 0)
(-3.96775e-13 0 0)
(-3.38425e-13 0 0)
(-1.63378e-13 0 0)
(-2.91746e-13 0 0)
(-4.66794e-14 0 0)
(-2.45067e-13 0 0)
(-3.15086e-13 0 0)
(-1.40038e-13 0 0)
(-1.63378e-13 0 0)
(-1.16698e-14 0 0)
(-1.63378e-13 0 0)
(-9.33587e-14 0 0)
(-2.33397e-13 0 0)
(1.16698e-14 0 0)
(-8.16889e-14 0 0)
(-5.83492e-14 0 0)
(1.86717e-13 0 0)
(-9.33587e-14 0 0)
(3.50095e-14 0 0)
(-1.40038e-13 0 0)
(1.16698e-14 0 0)
(-3.50095e-14 0 0)
(-1.98387e-13 0 0)
(-1.86717e-13 0 0)
(-1.05029e-13 0 0)
(1.86717e-13 0 0)
(-8.16889e-14 0 0)
(-1.51708e-13 0 0)
(-1.28368e-13 0 0)
(-1.16698e-14 0 0)
(-1.51708e-13 0 0)
(-1.98387e-13 0 0)
(2.33397e-14 0 0)
(-2.33397e-13 0 0)
(-1.86717e-13 0 0)
(-4.78463e-13 0 0)
(-7.0019e-14 0 0)
(1.00974e-27 0 0)
(2.33397e-14 0 0)
(1.16698e-13 0 0)
(-9.33587e-14 0 0)
(-7.0019e-14 0 0)
(1.63378e-13 0 0)
(3.38425e-13 0 0)
(3.50095e-14 0 0)
(1.16698e-14 0 0)
(-2.56736e-13 0 0)
(1.63378e-13 0 0)
(2.91746e-13 0 0)
(1.98387e-13 0 0)
(8.16889e-14 0 0)
(1.28368e-13 0 0)
(1.86717e-13 0 0)
(-2.45067e-13 0 0)
(-1.16698e-13 0 0)
(-3.61765e-13 0 0)
(-2.45067e-13 0 0)
(-1.16698e-14 0 0)
(-2.21727e-13 0 0)
(1.75048e-13 0 0)
(1.16698e-14 0 0)
(1.63378e-13 0 0)
(1.05029e-13 0 0)
(5.83492e-14 0 0)
(2.80076e-13 0 0)
(1.86717e-13 0 0)
(1.63378e-13 0 0)
(-1.86717e-13 0 0)
(7.0019e-14 0 0)
(-1.40038e-13 0 0)
(8.16889e-14 0 0)
(8.16889e-14 0 0)
(-1.98387e-13 0 0)
(1.16698e-14 0 0)
(-1.40038e-13 0 0)
(1.98387e-13 0 0)
(-2.33397e-14 0 0)
(3.85105e-13 0 0)
(2.65057e-28 0 0)
(1.28368e-13 0 0)
(-7.0019e-14 0 0)
(-1.28368e-13 0 0)
(-7.0019e-14 0 0)
(-4.66794e-13 0 0)
(-1.98387e-13 0 0)
(-2.33397e-13 0 0)
(-1.98387e-13 0 0)
(-2.21727e-13 0 0)
(-1.05029e-13 0 0)
(9.33587e-14 0 0)
(-2.33397e-13 0 0)
(-2.45067e-13 0 0)
(-1.75048e-13 0 0)
(-2.33397e-13 0 0)
(-1.69132e-27 0 0)
(1.16698e-14 0 0)
(-4.22829e-28 0 0)
(3.50095e-14 0 0)
(5.83492e-14 0 0)
(4.66794e-14 0 0)
(1.28368e-13 0 0)
(1.63378e-13 0 0)
(2.33397e-13 0 0)
(7.0019e-14 0 0)
(8.16889e-14 0 0)
(-5.83492e-14 0 0)
(1.16698e-14 0 0)
(-1.86717e-13 0 0)
(-3.26756e-13 0 0)
(-1.51708e-13 0 0)
(-3.26756e-13 0 0)
(-3.73435e-13 0 0)
(-3.96775e-13 0 0)
(-2.33397e-13 0 0)
(-1.98387e-13 0 0)
(-2.45067e-13 0 0)
(-2.68406e-13 0 0)
(-3.73435e-13 0 0)
(-2.80076e-13 0 0)
(-3.03416e-13 0 0)
(-1.16698e-14 0 0)
(-1.05029e-13 0 0)
(8.16889e-14 0 0)
(1.16698e-14 0 0)
(4.66794e-14 0 0)
(8.16889e-14 0 0)
(2.56736e-13 0 0)
(-4.66794e-14 0 0)
(-4.66794e-14 0 0)
(2.33397e-13 0 0)
(1.05029e-13 0 0)
(3.50095e-13 0 0)
(2.33397e-13 0 0)
(2.56736e-13 0 0)
(-7.0019e-14 0 0)
(-5.83492e-14 0 0)
(1.40038e-13 0 0)
(-2.33397e-14 0 0)
(-1.16698e-13 0 0)
(-3.50095e-14 0 0)
(-1.16698e-13 0 0)
(-1.16698e-14 0 0)
(2.33397e-14 0 0)
(7.0019e-14 0 0)
(-1.75048e-13 0 0)
(-1.24324e-27 0 0)
(8.16889e-14 0 0)
(2.56736e-13 0 0)
(-4.66794e-14 0 0)
(1.05029e-13 0 0)
(-1.51708e-13 0 0)
(-5.83492e-14 0 0)
(-1.51708e-13 0 0)
(-4.66794e-14 0 0)
(-9.33587e-14 0 0)
(-1.51708e-13 0 0)
(-1.05029e-13 0 0)
(-1.40038e-13 0 0)
(-2.45067e-13 0 0)
(1.16698e-14 0 0)
(-3.50095e-14 0 0)
(3.15086e-13 0 0)
(1.63378e-13 0 0)
(3.26756e-13 0 0)
(3.03416e-13 0 0)
(2.33397e-13 0 0)
(7.0019e-14 0 0)
(2.56736e-13 0 0)
(9.33587e-14 0 0)
(8.16889e-14 0 0)
(1.05029e-13 0 0)
(-1.63378e-13 0 0)
(-1.63378e-13 0 0)
(-2.56736e-13 0 0)
(-3.85105e-13 0 0)
(-1.86717e-13 0 0)
(-1.75048e-13 0 0)
(-2.56736e-13 0 0)
(-1.05029e-13 0 0)
(-2.80076e-13 0 0)
(5.83492e-14 0 0)
(1.05029e-13 0 0)
(7.0019e-14 0 0)
(1.16698e-13 0 0)
(1.28368e-13 0 0)
(5.83492e-14 0 0)
(2.45067e-13 0 0)
(1.05029e-13 0 0)
(3.38425e-13 0 0)
(2.33397e-13 0 0)
(2.21727e-13 0 0)
(2.21727e-13 0 0)
(1.86717e-13 0 0)
(8.16889e-14 0 0)
(4.66794e-14 0 0)
(-1.40038e-13 0 0)
(2.68406e-13 0 0)
(1.51708e-13 0 0)
(1.40038e-13 0 0)
(3.96775e-13 0 0)
(3.15086e-13 0 0)
(1.40038e-13 0 0)
(2.33397e-14 0 0)
(1.63378e-13 0 0)
(-3.50095e-14 0 0)
(-1.86717e-13 0 0)
(-1.16698e-13 0 0)
(-1.98387e-13 0 0)
(-2.33397e-13 0 0)
(-3.03416e-13 0 0)
(-4.20114e-13 0 0)
(-2.10057e-13 0 0)
(-1.63378e-13 0 0)
(-2.68406e-13 0 0)
(-1.86717e-13 0 0)
(-1.40038e-13 0 0)
(-3.15086e-13 0 0)
(-2.33397e-13 0 0)
(-1.51708e-13 0 0)
(-7.0019e-14 0 0)
(1.51708e-13 0 0)
(5.83492e-14 0 0)
(0 0 0)
(5.83492e-14 0 0)
(-9.33587e-14 0 0)
(4.66794e-14 0 0)
(7.0019e-14 0 0)
(1.86717e-13 0 0)
(1.98387e-13 0 0)
(5.83492e-14 0 0)
(-2.33397e-14 0 0)
(2.56736e-13 0 0)
(2.33397e-14 0 0)
(3.61765e-13 0 0)
(2.10057e-13 0 0)
(2.91746e-13 0 0)
(1.05029e-13 0 0)
(1.16698e-13 0 0)
(2.45067e-13 0 0)
(1.59981e-27 0 0)
(1.16698e-13 0 0)
(5.83492e-14 0 0)
(7.0019e-14 0 0)
(1.16698e-14 0 0)
(1.40038e-13 0 0)
(-1.28368e-13 0 0)
(1.63378e-13 0 0)
(-1.28368e-13 0 0)
(-3.50095e-14 0 0)
(-1.16698e-13 0 0)
(-2.10057e-13 0 0)
(-1.86717e-13 0 0)
(-7.0019e-14 0 0)
(-1.05029e-13 0 0)
(-2.33397e-14 0 0)
(1.28368e-13 0 0)
(-2.10057e-13 0 0)
(9.33587e-14 0 0)
(-9.33587e-14 0 0)
(3.50095e-14 0 0)
(-3.50095e-14 0 0)
(8.16889e-14 0 0)
(-8.16889e-14 0 0)
(1.51708e-13 0 0)
(-2.33397e-14 0 0)
(-1.16698e-13 0 0)
(-1.05029e-13 0 0)
(-1.98387e-13 0 0)
(-1.28368e-13 0 0)
(-1.16698e-13 0 0)
(-5.83492e-14 0 0)
(2.68406e-13 0 0)
(1.16698e-13 0 0)
(2.33397e-14 0 0)
(-1.51708e-13 0 0)
(-4.66794e-14 0 0)
(1.28368e-13 0 0)
(-4.66794e-14 0 0)
(-1.05029e-13 0 0)
(3.50095e-14 0 0)
(-4.66794e-14 0 0)
(-9.33587e-14 0 0)
(-1.05029e-13 0 0)
(-2.33397e-14 0 0)
(-2.33397e-14 0 0)
(-8.16889e-14 0 0)
(3.50095e-14 0 0)
(2.91746e-13 0 0)
(2.21727e-13 0 0)
(2.21727e-13 0 0)
(1.16698e-13 0 0)
(-1.28368e-13 0 0)
(1.98387e-13 0 0)
(1.16698e-13 0 0)
(4.31784e-13 0 0)
(2.21727e-13 0 0)
(4.08444e-13 0 0)
(2.56736e-13 0 0)
(2.21727e-13 0 0)
(2.91746e-13 0 0)
(3.50095e-13 0 0)
(3.61765e-13 0 0)
(4.43454e-13 0 0)
(3.03416e-13 0 0)
(9.33587e-14 0 0)
(-5.83492e-14 0 0)
(-7.0019e-14 0 0)
(-9.33587e-14 0 0)
(-1.98387e-13 0 0)
(-9.33587e-14 0 0)
(-1.16698e-14 0 0)
(2.56736e-13 0 0)
(2.33397e-13 0 0)
(7.0019e-14 0 0)
(-8.16889e-14 0 0)
(-1.16698e-14 0 0)
(-2.33397e-14 0 0)
(1.98387e-13 0 0)
(3.50095e-14 0 0)
(2.33397e-14 0 0)
(7.0019e-14 0 0)
(8.16889e-14 0 0)
(2.10057e-13 0 0)
(1.92013e-27 0 0)
(-4.66794e-14 0 0)
(-1.86717e-13 0 0)
(-1.98387e-13 0 0)
(-2.56736e-13 0 0)
(-1.40038e-13 0 0)
(1.16698e-14 0 0)
(9.33587e-14 0 0)
(-1.16698e-13 0 0)
(-2.10057e-13 0 0)
(-2.33397e-13 0 0)
(1.63378e-13 0 0)
(-4.66794e-14 0 0)
(4.66794e-14 0 0)
(-8.16889e-14 0 0)
(-3.50095e-14 0 0)
(1.28368e-13 0 0)
(8.16889e-14 0 0)
(1.16698e-13 0 0)
(1.28368e-13 0 0)
(2.33397e-14 0 0)
(-1.05029e-13 0 0)
(-2.33397e-14 0 0)
(9.33587e-14 0 0)
(-4.66794e-14 0 0)
(-7.0019e-14 0 0)
(-1.63378e-13 0 0)
(-7.0019e-14 0 0)
(-3.03416e-13 0 0)
(-1.29058e-27 0 0)
(1.75048e-13 0 0)
(4.66794e-14 0 0)
(3.50095e-14 0 0)
(-1.63378e-13 0 0)
(5.83492e-14 0 0)
(-3.50095e-14 0 0)
(-3.50095e-14 0 0)
(-1.05029e-13 0 0)
(1.00974e-28 0 0)
(-9.33587e-14 0 0)
(2.10057e-13 0 0)
(7.0019e-14 0 0)
(-3.50095e-14 0 0)
(8.16889e-14 0 0)
(1.63378e-13 0 0)
(-1.98387e-13 0 0)
(1.86717e-13 0 0)
(1.16698e-14 0 0)
(4.66794e-14 0 0)
(-1.51708e-13 0 0)
(1.40038e-13 0 0)
(-3.50095e-14 0 0)
(1.16698e-13 0 0)
(-3.50095e-14 0 0)
(-1.86717e-13 0 0)
(4.66794e-14 0 0)
(-1.98793e-28 0 0)
(-1.28368e-13 0 0)
(5.83492e-14 0 0)
(-1.05029e-13 0 0)
(-8.16889e-14 0 0)
(1.05029e-13 0 0)
(9.33587e-14 0 0)
(1.86717e-13 0 0)
(2.21727e-13 0 0)
(4.66794e-13 0 0)
(1.40038e-13 0 0)
(1.75048e-13 0 0)
(6.30655e-28 0 0)
(1.16698e-13 0 0)
(2.33397e-14 0 0)
(-4.66794e-14 0 0)
(1.98387e-13 0 0)
(1.51708e-13 0 0)
(2.33397e-14 0 0)
(-5.83492e-14 0 0)
(-2.21727e-13 0 0)
(-5.83492e-14 0 0)
(-3.26756e-13 0 0)
(-2.68406e-13 0 0)
(2.33397e-14 0 0)
(-2.33397e-14 0 0)
(2.91746e-13 0 0)
(2.56736e-13 0 0)
(5.36813e-13 0 0)
(4.31784e-13 0 0)
(5.60152e-13 0 0)
(4.31784e-13 0 0)
(7.2353e-13 0 0)
(8.16889e-13 0 0)
(1.49374e-12 0 0)
(3.08084e-12 0 0)
(8.13388e-12 0 0)
(2.28262e-11 0 0)
(6.29121e-11 0 0)
(1.72305e-10 0 0)
(4.6663e-10 0 0)
(1.24926e-09 0 0)
(3.30491e-09 0 0)
(8.63329e-09 0 0)
(2.22636e-08 0 0)
(5.66537e-08 0 0)
(1.42215e-07 0 0)
(3.52031e-07 0 0)
(8.58964e-07 0 0)
(2.06516e-06 0 0)
(4.89028e-06 0 0)
(1.14005e-05 0 0)
(2.61531e-05 0 0)
(5.90086e-05 0 0)
(0.00013088 0 0)
(0.000285202 0 0)
(0.000610236 0 0)
(0.00128125 0 0)
(0.00263798 0 0)
(0.00532224 0 0)
(0.010514 0 0)
(0.0203207 0 0)
(0.0383903 0 0)
(0.0708301 0 0)
(0.127499 0 0)
(0.223693 0 0)
(0.382139 0 0)
(0.635032 0 0)
(1.02563 0 0)
(1.60875 0 0)
(2.44944 0 0)
(3.61931 0 0)
(5.19066 0 0)
(7.229 0 0)
(9.78563 0 0)
(12.8917 0 0)
(16.555 0 0)
(20.7604 0 0)
(25.4739 0 0)
(30.6488 0 0)
(36.2329 0 0)
(42.1735 0 0)
(48.4209 0 0)
(54.931 0 0)
(61.6657 0 0)
(68.5928 0 0)
(75.6859 0 0)
(82.9231 0 0)
(90.2862 0 0)
(97.7603 0 0)
(105.332 0 0)
(112.991 0 0)
(120.728 0 0)
(128.532 0 0)
(136.396 0 0)
(144.316 0 0)
(152.276 0 0)
(160.289 0 0)
(168.314 0 0)
(176.399 0 0)
(184.481 0 0)
(192.598 0 0)
(200.74 0 0)
(208.881 0 0)
(217.038 0 0)
(225.213 0 0)
(233.387 0 0)
(241.56 0 0)
(249.742 0 0)
(257.928 0 0)
(266.107 0 0)
(274.281 0 0)
(282.452 0 0)
(290.621 0 0)
(298.782 0 0)
(306.933 0 0)
(315.072 0 0)
(323.199 0 0)
(331.315 0 0)
(339.419 0 0)
(347.507 0 0)
(355.575 0 0)
(363.624 0 0)
(371.649 0 0)
(379.652 0 0)
(387.629 0 0)
(395.579 0 0)
(403.497 0 0)
(411.382 0 0)
(419.226 0 0)
(427.027 0 0)
(434.779 0 0)
(442.477 0 0)
(450.115 0 0)
(457.687 0 0)
(465.185 0 0)
(472.602 0 0)
(479.926 0 0)
(487.147 0 0)
(494.251 0 0)
(501.224 0 0)
(508.049 0 0)
(514.708 0 0)
(521.181 0 0)
(527.448 0 0)
(533.487 0 0)
(539.277 0 0)
(544.793 0 0)
(550.014 0 0)
(554.919 0 0)
(559.487 0 0)
(563.693 0 0)
(567.527 0 0)
(571.027 0 0)
(574.151 0 0)
(576.865 0 0)
(579.166 0 0)
(581.072 0 0)
(582.656 0 0)
(583.934 0 0)
(584.936 0 0)
(585.697 0 0)
(586.251 0 0)
(586.631 0 0)
(586.871 0 0)
(587.001 0 0)
(587.041 0 0)
(587.026 0 0)
(586.988 0 0)
(586.929 0 0)
(586.867 0 0)
(586.822 0 0)
(586.806 0 0)
(586.821 0 0)
(586.856 0 0)
(586.936 0 0)
(587.045 0 0)
(587.148 0 0)
(587.243 0 0)
(587.339 0 0)
(587.452 0 0)
(587.573 0 0)
(587.703 0 0)
(587.842 0 0)
(587.984 0 0)
(588.128 0 0)
(588.255 0 0)
(588.377 0 0)
(588.511 0 0)
(588.573 0 0)
(588.66 0 0)
(588.529 0 0)
(588.446 0 0)
(587.855 0 0)
(586.802 0 0)
(584.761 0 0)
(580.045 0 0)
(571.218 0 0)
(553.2 0 0)
(517.738 0 0)
(451.583 0 0)
(337.661 0 0)
(182.709 0 0)
(59.6641 0 0)
(13.0284 0 0)
(2.3335 0 0)
(0.36431 0 0)
(0.0544369 0 0)
(0.00809358 0 0)
(0.00120445 0 0)
(0.000179385 0 0)
(2.67255e-05 0 0)
(3.98197e-06 0 0)
(5.93277e-07 0 0)
(8.83869e-08 0 0)
(1.31671e-08 0 0)
(1.9614e-09 0 0)
(2.92082e-10 0 0)
(4.34702e-11 0 0)
(6.57888e-12 0 0)
(1.02111e-12 0 0)
(1.45873e-13 0 0)
(-2.91746e-14 0 0)
(1.60461e-13 0 0)
(7.29366e-14 0 0)
(-1.45873e-14 0 0)
(1.45873e-14 0 0)
(3.56565e-28 0 0)
(1.45873e-14 0 0)
(-4.3762e-14 0 0)
(-2.91746e-14 0 0)
(-1.02111e-13 0 0)
(1.02111e-13 0 0)
(-2.91746e-14 0 0)
(7.29366e-14 0 0)
(1.16699e-13 0 0)
(5.83493e-14 0 0)
(1.45873e-13 0 0)
(1.45873e-13 0 0)
(2.1881e-13 0 0)
(1.16699e-13 0 0)
(7.29366e-14 0 0)
(5.83493e-14 0 0)
(-1.02111e-13 0 0)
(1.45873e-13 0 0)
(4.3762e-14 0 0)
(4.3762e-14 0 0)
(4.89094e-28 0 0)
(8.75239e-14 0 0)
(-2.91746e-14 0 0)
(1.75048e-13 0 0)
(-1.45873e-14 0 0)
(2.1881e-13 0 0)
(-5.83493e-14 0 0)
(1.60461e-13 0 0)
(-3.50096e-13 0 0)
(-1.02111e-13 0 0)
(4.3762e-14 0 0)
(1.45873e-14 0 0)
(-8.75239e-14 0 0)
(-2.91746e-14 0 0)
(4.3762e-14 0 0)
(-1.02111e-13 0 0)
(-3.20921e-13 0 0)
(-2.1881e-13 0 0)
(-2.47984e-13 0 0)
(-2.1881e-13 0 0)
(1.45873e-14 0 0)
(1.45873e-14 0 0)
(4.3762e-14 0 0)
(-1.45873e-14 0 0)
(1.89635e-13 0 0)
(2.62572e-13 0 0)
(-7.29366e-14 0 0)
(1.45873e-13 0 0)
(-2.91746e-14 0 0)
(2.91746e-14 0 0)
(2.91746e-14 0 0)
(1.45873e-14 0 0)
(1.02111e-13 0 0)
(-7.29366e-14 0 0)
(8.75239e-14 0 0)
(-4.3762e-14 0 0)
(-4.3762e-14 0 0)
(-2.04222e-13 0 0)
(-1.75048e-13 0 0)
(3.50254e-28 0 0)
(2.91746e-14 0 0)
(-1.60461e-13 0 0)
(2.77159e-13 0 0)
(-1.31286e-13 0 0)
(2.47984e-13 0 0)
(-1.16699e-13 0 0)
(2.91746e-13 0 0)
(2.91746e-14 0 0)
(1.60461e-13 0 0)
(-3.64683e-13 0 0)
(1.45873e-14 0 0)
(-2.47984e-13 0 0)
(-1.75048e-13 0 0)
(-3.93858e-13 0 0)
(-3.35508e-13 0 0)
(-2.1881e-13 0 0)
(-1.60461e-13 0 0)
(-4.3762e-14 0 0)
(-3.06334e-13 0 0)
(-7.29366e-14 0 0)
(-1.75048e-13 0 0)
(-1.60461e-13 0 0)
(-4.3762e-14 0 0)
(-2.91746e-13 0 0)
(-2.33397e-13 0 0)
(-3.7927e-13 0 0)
(-2.47984e-13 0 0)
(-2.47984e-13 0 0)
(-1.60461e-13 0 0)
(-1.02111e-13 0 0)
(-8.18107e-28 0 0)
(-1.16699e-13 0 0)
(-2.33397e-13 0 0)
(-2.33397e-13 0 0)
(-1.89635e-13 0 0)
(-1.16699e-13 0 0)
(-1.45873e-13 0 0)
(-2.04222e-13 0 0)
(4.3762e-14 0 0)
(-1.75048e-13 0 0)
(-2.47984e-13 0 0)
(-3.20921e-13 0 0)
(-1.60461e-13 0 0)
(-5.25144e-13 0 0)
(-3.50096e-13 0 0)
(-3.64683e-13 0 0)
(-3.20921e-13 0 0)
(-2.04222e-13 0 0)
(-2.33397e-13 0 0)
(-2.1881e-13 0 0)
(-5.25144e-13 0 0)
(-1.75048e-13 0 0)
(-4.08445e-13 0 0)
(-2.77159e-13 0 0)
(-2.91746e-13 0 0)
(3.06334e-13 0 0)
(-1.02111e-13 0 0)
(-1.16699e-13 0 0)
(-1.45873e-13 0 0)
(-3.06334e-13 0 0)
(-2.91746e-13 0 0)
(-1.02111e-13 0 0)
(-2.91746e-13 0 0)
(-1.31286e-13 0 0)
(-2.91746e-13 0 0)
(-3.06334e-13 0 0)
(-3.20921e-13 0 0)
(-3.7927e-13 0 0)
(-5.9808e-13 0 0)
(-1.89635e-13 0 0)
(-4.3762e-13 0 0)
(4.3762e-14 0 0)
(-1.16699e-13 0 0)
(-2.33397e-13 0 0)
(-8.75239e-14 0 0)
(-1.45873e-14 0 0)
(1.45873e-13 0 0)
(-1.02111e-13 0 0)
(2.1881e-13 0 0)
(1.45873e-14 0 0)
(2.1881e-13 0 0)
(-5.83493e-14 0 0)
(1.31286e-13 0 0)
(2.04222e-13 0 0)
(3.93858e-13 0 0)
(3.7927e-13 0 0)
(5.39731e-13 0 0)
(1.02111e-13 0 0)
(2.1881e-13 0 0)
(-5.83493e-14 0 0)
(-1.60461e-13 0 0)
(-3.93858e-13 0 0)
(-3.06334e-13 0 0)
(-3.64683e-13 0 0)
(4.3762e-14 0 0)
(-3.06334e-13 0 0)
(1.89635e-13 0 0)
(-1.02111e-13 0 0)
(2.33397e-13 0 0)
(5.83493e-14 0 0)
(-2.91746e-14 0 0)
(8.75239e-14 0 0)
(2.04222e-13 0 0)
(4.95969e-13 0 0)
(3.35508e-13 0 0)
(4.3762e-13 0 0)
(3.7927e-13 0 0)
(3.50096e-13 0 0)
(5.10556e-13 0 0)
(3.64683e-13 0 0)
(2.47984e-13 0 0)
(4.23032e-13 0 0)
(2.33397e-13 0 0)
(2.91746e-13 0 0)
(4.3762e-13 0 0)
(6.56429e-13 0 0)
(7.73128e-13 0 0)
(4.52207e-13 0 0)
(5.83493e-13 0 0)
(2.91746e-13 0 0)
(2.04222e-13 0 0)
(1.31286e-13 0 0)
(-7.29366e-14 0 0)
(-2.62572e-13 0 0)
(-3.50096e-13 0 0)
(-3.50096e-13 0 0)
(-1.75048e-13 0 0)
(-1.60461e-13 0 0)
(-7.29366e-14 0 0)
(-1.60461e-13 0 0)
(1.16699e-13 0 0)
(2.91746e-14 0 0)
(7.29366e-14 0 0)
(2.04222e-13 0 0)
(-7.29366e-14 0 0)
(1.31286e-13 0 0)
(1.45873e-13 0 0)
(1.16699e-13 0 0)
(1.45873e-14 0 0)
(-2.91746e-14 0 0)
(5.83493e-14 0 0)
(-1.60461e-13 0 0)
(-4.3762e-14 0 0)
(7.29366e-14 0 0)
(2.62572e-13 0 0)
(-1.45873e-13 0 0)
(-8.75239e-14 0 0)
(1.45873e-14 0 0)
(-2.33397e-13 0 0)
(1.45873e-14 0 0)
(-3.7927e-13 0 0)
(-1.89635e-13 0 0)
(-5.25144e-13 0 0)
(-5.9808e-13 0 0)
(-8.89827e-13 0 0)
(-4.52207e-13 0 0)
(-8.02303e-13 0 0)
(-5.54318e-13 0 0)
(-7.87715e-13 0 0)
(-7.43953e-13 0 0)
(-6.71017e-13 0 0)
(-3.35508e-13 0 0)
(-3.50096e-13 0 0)
(-2.33397e-13 0 0)
(-2.1881e-13 0 0)
(-2.25299e-27 0 0)
(-4.08445e-13 0 0)
(-3.58143e-27 0 0)
(-1.16699e-13 0 0)
(2.62572e-13 0 0)
(2.91746e-13 0 0)
(1.45873e-13 0 0)
(7.29366e-14 0 0)
(-1.45873e-13 0 0)
(8.75239e-14 0 0)
(-1.60461e-13 0 0)
(8.75239e-14 0 0)
(-1.45873e-13 0 0)
(-3.23117e-27 0 0)
(-1.45873e-13 0 0)
(-9.65566e-28 0 0)
(1.45873e-14 0 0)
(1.16699e-13 0 0)
(-2.91746e-14 0 0)
(-1.31286e-13 0 0)
(-1.02111e-13 0 0)
(-1.89635e-13 0 0)
(-2.33397e-13 0 0)
(-1.16699e-13 0 0)
(-1.45873e-13 0 0)
(-1.60461e-13 0 0)
(-1.60461e-13 0 0)
(-1.45873e-14 0 0)
(5.83493e-14 0 0)
(5.83493e-14 0 0)
(-2.91746e-14 0 0)
(1.31286e-13 0 0)
(4.3762e-14 0 0)
(-7.29366e-14 0 0)
(2.91746e-13 0 0)
(1.31286e-13 0 0)
(3.06334e-13 0 0)
(2.62572e-13 0 0)
(4.66794e-13 0 0)
(2.47984e-13 0 0)
(2.47984e-13 0 0)
(-1.02111e-13 0 0)
(-1.45873e-14 0 0)
(-2.91746e-14 0 0)
(1.02111e-13 0 0)
(1.31286e-13 0 0)
(2.47984e-13 0 0)
(3.50096e-13 0 0)
(4.95969e-13 0 0)
(3.93858e-13 0 0)
(6.56429e-13 0 0)
(4.23032e-13 0 0)
(5.39731e-13 0 0)
(4.23032e-13 0 0)
(8.75239e-13 0 0)
(6.27255e-13 0 0)
(6.27255e-13 0 0)
(5.25144e-13 0 0)
(3.7927e-13 0 0)
(5.10556e-13 0 0)
(1.31286e-13 0 0)
(2.91746e-13 0 0)
(4.3762e-14 0 0)
(-8.75239e-14 0 0)
(2.91746e-14 0 0)
(2.04222e-13 0 0)
(3.64683e-13 0 0)
(1.45873e-13 0 0)
(3.64683e-13 0 0)
(2.33397e-13 0 0)
(8.75239e-14 0 0)
(1.75048e-13 0 0)
(1.45873e-14 0 0)
(-8.75239e-14 0 0)
(-2.04222e-13 0 0)
(8.75239e-14 0 0)
(4.3762e-14 0 0)
(-2.04222e-13 0 0)
(-1.75048e-13 0 0)
(-2.91746e-14 0 0)
(-1.45873e-14 0 0)
(-5.83493e-14 0 0)
(2.1881e-13 0 0)
(2.04222e-13 0 0)
(2.33397e-13 0 0)
(1.89635e-13 0 0)
(7.29366e-14 0 0)
(1.31286e-13 0 0)
(-4.3762e-14 0 0)
(-2.91746e-14 0 0)
(-4.3762e-14 0 0)
(-5.83493e-14 0 0)
(-8.75239e-14 0 0)
(1.45873e-14 0 0)
(1.02111e-13 0 0)
(1.89635e-13 0 0)
(4.3762e-14 0 0)
(1.31286e-13 0 0)
(5.83493e-14 0 0)
(1.31286e-13 0 0)
(1.45873e-13 0 0)
(1.45873e-13 0 0)
(-4.3762e-14 0 0)
(1.16699e-13 0 0)
(-1.45873e-14 0 0)
(-1.75048e-13 0 0)
(-1.45873e-13 0 0)
(4.3762e-14 0 0)
(-1.31286e-13 0 0)
(-4.3762e-14 0 0)
(-1.45873e-14 0 0)
(-1.60461e-13 0 0)
(-2.91746e-14 0 0)
(-4.3762e-14 0 0)
(5.83493e-14 0 0)
(1.60461e-13 0 0)
(4.08445e-13 0 0)
(7.29366e-14 0 0)
(3.20921e-13 0 0)
(-2.91746e-14 0 0)
(1.02111e-13 0 0)
(1.45873e-13 0 0)
(5.83493e-14 0 0)
(2.33397e-13 0 0)
(7.29366e-14 0 0)
(1.31286e-13 0 0)
(4.3762e-14 0 0)
(1.29058e-27 0 0)
(-2.04222e-13 0 0)
(-2.04222e-13 0 0)
(-1.89635e-13 0 0)
(-2.33397e-13 0 0)
(-5.83493e-14 0 0)
(-8.75239e-14 0 0)
(-1.45873e-13 0 0)
(2.91746e-14 0 0)
(1.45873e-14 0 0)
(1.16699e-13 0 0)
(-2.33397e-13 0 0)
(-8.33037e-28 0 0)
(5.11182e-28 0 0)
(8.75239e-14 0 0)
(-5.83493e-14 0 0)
(1.45873e-13 0 0)
(8.75239e-14 0 0)
(1.75048e-13 0 0)
(1.02111e-13 0 0)
(-2.91746e-14 0 0)
(-1.31286e-13 0 0)
(5.83493e-14 0 0)
(-1.60461e-13 0 0)
(-1.75048e-13 0 0)
(-3.20921e-13 0 0)
(-3.20921e-13 0 0)
(-1.89635e-13 0 0)
(-2.77159e-13 0 0)
(-2.91746e-13 0 0)
(-1.16699e-13 0 0)
(-3.35508e-13 0 0)
(-4.3762e-13 0 0)
(-5.10556e-13 0 0)
(-6.56429e-13 0 0)
(-4.08445e-13 0 0)
)
;

boundaryField
{
    sides
    {
        type            zeroGradient;
    }
    empty
    {
        type            empty;
    }
}


// ************************************************************************* //
