/*--------------------------------*- C++ -*----------------------------------*\
  =========                 |
  \\      /  F ield         | OpenFOAM: The Open Source CFD Toolbox
   \\    /   O peration     | Website:  https://openfoam.org
    \\  /    A nd           | Version:  7
     \\/     M anipulation  |
\*---------------------------------------------------------------------------*/
FoamFile
{
    version     2.0;
    format      ascii;
    class       volScalarField;
    location    "0.001";
    object      mag(U);
}
// * * * * * * * * * * * * * * * * * * * * * * * * * * * * * * * * * * * * * //

dimensions      [0 1 -1 0 0 0 0];

internalField   nonuniform List<scalar> 
1000
(
2.77159e-13
2.77159e-13
1.89635e-13
1.6046e-13
1.02111e-13
1.89635e-13
1.45873e-14
8.75238e-14
1.31286e-13
1.6046e-13
1.89635e-13
1.45873e-13
8.75238e-14
3.35508e-13
5.83492e-14
2.91746e-13
2.33397e-13
3.93857e-13
2.1881e-13
1.89635e-13
1.75048e-13
3.06333e-13
1.45873e-13
1.31286e-13
4.37619e-14
1.89635e-13
1.45873e-13
2.62571e-13
1.75048e-13
7.29365e-14
2.91746e-13
1.89635e-13
2.91746e-14
2.33397e-13
2.33397e-13
3.93857e-13
1.75048e-13
1.02111e-13
1.6046e-13
8.75238e-14
1.16698e-13
2.91746e-13
2.62571e-13
1.31286e-13
1.6046e-13
7.29365e-14
4.37619e-14
1.31286e-13
1.02111e-13
2.1881e-13
1.02111e-13
5.83492e-14
1.31286e-13
3.20921e-13
1.6046e-13
1.45873e-13
1.45873e-14
1.45873e-14
2.1881e-13
4.37619e-14
1.45873e-13
1.45873e-13
4.37619e-14
2.77159e-13
1.89635e-13
2.47984e-13
1.89635e-13
2.77159e-13
3.20921e-13
4.37619e-14
1.75048e-13
5.52203e-28
4.85938e-28
1.45873e-13
1.75048e-13
1.75048e-13
8.75238e-14
1.45873e-14
1.31286e-13
1.45873e-14
1.6046e-13
2.91746e-14
2.91746e-14
1.45873e-14
5.83492e-14
5.83492e-14
1.02111e-13
3.35508e-13
2.47984e-13
3.7927e-13
3.50095e-13
1.6046e-13
1.02111e-13
2.47984e-13
2.62571e-13
2.33397e-13
2.77159e-13
7.29365e-14
1.46767e-28
2.77159e-13
3.06333e-13
3.20921e-13
2.47984e-13
5.3973e-13
1.89635e-13
2.77159e-13
1.02111e-13
1.6046e-13
2.1881e-13
2.77159e-13
7.29365e-14
7.29365e-14
4.37619e-14
1.45873e-13
2.77159e-13
2.04222e-13
2.47984e-13
1.16698e-13
1.31286e-13
7.29365e-14
2.1881e-13
2.1881e-13
1.6046e-13
1.45873e-14
1.45873e-13
1.45873e-13
2.1457e-28
1.75048e-13
1.45873e-13
2.62571e-13
2.91746e-14
1.89635e-13
4.37619e-14
1.89635e-13
2.47984e-13
2.04222e-13
7.29365e-14
1.02111e-13
7.29365e-14
1.02111e-13
7.29365e-14
8.75238e-14
3.06333e-13
1.89635e-13
2.47984e-13
2.91746e-13
3.06333e-13
2.91746e-13
1.16698e-13
3.20921e-13
1.16698e-13
2.1881e-13
1.45873e-14
1.45873e-14
1.16698e-13
1.75048e-13
7.29365e-14
4.37619e-14
4.37619e-14
1.45873e-13
5.83492e-14
1.45873e-13
7.29365e-14
4.37619e-14
2.62571e-13
7.29365e-14
4.37619e-14
1.31286e-13
1.45873e-14
1.45873e-14
5.83492e-14
1.45873e-13
2.91746e-14
2.91746e-13
5.83492e-14
2.33397e-13
1.02111e-13
4.37619e-14
2.65057e-28
8.75238e-14
1.45873e-14
4.37619e-14
1.02111e-13
1.16698e-13
3.20921e-13
5.83492e-14
2.91746e-14
1.45873e-13
2.91746e-14
8.75238e-14
7.29365e-14
1.16698e-13
2.91746e-14
2.91746e-13
1.02111e-13
1.3884e-28
1.6046e-13
1.6046e-13
5.83492e-14
2.1881e-13
3.50095e-13
5.68905e-13
3.35508e-13
5.10556e-13
2.1881e-13
1.16698e-13
1.16698e-13
5.83492e-14
7.29365e-14
2.91746e-14
4.37619e-14
4.37619e-14
1.02111e-13
1.75048e-13
1.02111e-13
1.45873e-13
4.37619e-14
1.45873e-13
2.04222e-13
2.62571e-13
1.45873e-14
1.16698e-13
2.04222e-13
1.89635e-13
3.64683e-13
2.33397e-13
2.62571e-13
2.62571e-13
2.77159e-13
2.09521e-27
1.02111e-13
1.45873e-13
1.89635e-13
1.45873e-14
1.02111e-13
4.37619e-14
7.29365e-14
1.02111e-13
2.04222e-13
2.62571e-13
2.62571e-13
2.1881e-13
1.45873e-13
1.16698e-13
2.91746e-14
2.91746e-13
1.31286e-13
1.31286e-13
2.91746e-14
1.45873e-14
4.79627e-28
1.45873e-14
5.83492e-14
1.02111e-13
2.33397e-13
7.29365e-14
2.47984e-13
1.02111e-13
2.1881e-13
2.04222e-13
1.31286e-13
5.25143e-13
4.08444e-13
4.52206e-13
3.7927e-13
5.3973e-13
5.25143e-13
6.41841e-13
5.54317e-13
4.81381e-13
3.50095e-13
4.08444e-13
3.49069e-27
7.29365e-14
1.31286e-13
1.02111e-13
2.33397e-13
1.16698e-13
5.83492e-14
3.35508e-13
3.64683e-13
4.66794e-13
5.10556e-13
4.52206e-13
5.54317e-13
3.50095e-13
4.95968e-13
2.1881e-13
4.37619e-13
2.1881e-13
4.37619e-13
2.47984e-13
2.77159e-13
5.83492e-14
1.75048e-13
8.75238e-14
8.75238e-14
4.37619e-14
1.45873e-14
2.91746e-14
2.91746e-14
2.33397e-13
1.75048e-13
2.1881e-13
4.23032e-13
3.64683e-13
3.20921e-13
2.04222e-13
3.93857e-13
1.45873e-13
5.83492e-14
4.37619e-14
2.91746e-14
2.91746e-14
4.37619e-14
5.83492e-14
3.50095e-13
2.62571e-13
4.52206e-13
3.35508e-13
1.02111e-13
1.75048e-13
1.45873e-13
1.02111e-13
3.7927e-13
5.3973e-13
4.23032e-13
2.33397e-13
3.50095e-13
2.77159e-13
2.47984e-13
1.45873e-14
1.75048e-13
8.75238e-14
4.37619e-14
1.16698e-13
7.29365e-14
1.89327e-28
1.6046e-13
1.75048e-13
1.45873e-14
1.89635e-13
8.75238e-14
7.29365e-14
1.45873e-14
1.45873e-14
1.75048e-13
1.16698e-13
2.33397e-13
1.31286e-13
7.29365e-14
7.29365e-14
1.75048e-13
3.50095e-13
3.20921e-13
3.50095e-13
1.45873e-13
2.62571e-13
4.68899e-27
3.93857e-13
1.75048e-13
2.47984e-13
1.45873e-13
5.83492e-14
5.83492e-14
1.45873e-14
2.91746e-13
1.6046e-13
4.37619e-13
4.81381e-13
3.35508e-13
2.47984e-13
1.45873e-13
1.02111e-13
4.37619e-14
7.29365e-14
1.45873e-13
4.37619e-14
7.29365e-14
1.75048e-13
4.37619e-14
2.91746e-14
1.16698e-13
8.75238e-14
4.37619e-14
1.70394e-28
1.02111e-13
4.37619e-14
1.45873e-13
5.83492e-14
1.6046e-13
1.16698e-13
2.04222e-13
1.02111e-13
1.6046e-13
1.31286e-13
3.06333e-13
7.29365e-14
8.75238e-14
1.6046e-13
5.83492e-14
1.31286e-13
1.16698e-13
1.45873e-14
1.16698e-13
1.31286e-13
5.83492e-14
1.02111e-13
1.75048e-13
5.83492e-14
1.45873e-13
8.75238e-14
2.91746e-14
1.45873e-14
2.62571e-13
8.75238e-14
8.75238e-14
2.47984e-13
2.91746e-13
1.06487e-12
2.757e-12
7.99384e-12
2.23623e-11
6.26962e-11
1.72086e-10
4.66779e-10
1.24945e-09
3.30458e-09
8.63024e-09
2.22487e-08
5.6598e-08
1.42029e-07
3.51457e-07
8.57283e-07
2.06044e-06
4.87748e-06
1.13669e-05
2.60673e-05
5.87951e-05
0.000130362
0.000283979
0.000607419
0.00127492
0.00262408
0.00529249
0.010452
0.0201946
0.0381409
0.0703503
0.126602
0.222065
0.379276
0.630151
1.01758
1.5959
2.42961
3.58973
5.14795
7.16925
9.70449
12.7845
16.4168
20.5863
25.2586
30.387
35.9187
41.8007
47.9826
54.4195
61.0724
67.9084
74.8996
82.023
89.2593
96.5916
104.006
111.488
119.028
126.614
134.234
141.881
149.539
157.212
164.863
172.524
180.135
187.725
195.271
202.737
210.138
217.448
224.632
231.675
238.558
245.238
251.671
257.818
263.631
269.051
274.013
278.459
282.335
285.602
288.238
290.249
291.68
292.605
293.139
293.379
293.435
293.413
293.324
293.187
293.071
292.998
292.963
292.952
292.952
292.966
292.983
293.002
293.047
293.124
293.255
293.256
293.068
292.919
292.854
292.848
292.884
292.933
292.98
293.017
293.041
293.052
293.053
293.049
293.042
293.03
293.012
292.997
292.983
292.962
292.939
292.888
292.82
292.686
292.552
292.19
291.811
290.675
288.255
282.684
269.465
240.379
185.441
112.335
50.1309
17.1131
4.93767
1.29853
0.328253
0.0819632
0.0204006
0.00507365
0.00126151
0.000313606
7.79463e-05
1.93687e-05
4.81141e-06
1.19475e-06
2.9654e-07
7.35616e-08
1.82362e-08
4.51742e-09
1.11813e-09
2.76619e-10
6.83416e-11
1.68046e-11
4.05528e-12
1.22533e-12
3.50096e-13
2.1881e-13
3.93858e-13
1.16699e-13
1.60461e-13
3.93858e-13
2.1881e-13
3.20921e-13
4.81382e-13
4.52207e-13
2.33397e-13
5.9808e-13
6.27255e-13
5.83493e-13
6.85604e-13
4.95969e-13
6.12667e-13
4.52207e-13
2.62572e-13
2.33397e-13
4.3762e-14
1.60461e-13
8.75239e-14
4.3762e-14
1.45873e-14
4.3762e-14
4.3762e-14
1.45873e-13
4.3762e-14
1.45873e-14
1.45873e-14
3.56565e-28
1.45873e-14
4.3762e-14
2.91746e-14
1.02111e-13
1.02111e-13
2.91746e-14
7.29366e-14
1.16699e-13
5.83493e-14
1.45873e-13
1.45873e-13
2.1881e-13
1.16699e-13
7.29366e-14
5.83493e-14
1.02111e-13
1.45873e-13
4.3762e-14
4.3762e-14
4.89094e-28
8.75239e-14
2.91746e-14
1.75048e-13
1.45873e-14
2.1881e-13
5.83493e-14
1.60461e-13
3.50096e-13
1.02111e-13
4.3762e-14
1.45873e-14
8.75239e-14
2.91746e-14
4.3762e-14
1.02111e-13
3.20921e-13
2.1881e-13
2.47984e-13
2.1881e-13
1.45873e-14
1.45873e-14
4.3762e-14
1.45873e-14
1.89635e-13
2.62572e-13
7.29366e-14
1.45873e-13
2.91746e-14
2.91746e-14
2.91746e-14
1.45873e-14
1.02111e-13
7.29366e-14
8.75239e-14
4.3762e-14
4.3762e-14
2.04222e-13
1.75048e-13
3.50254e-28
2.91746e-14
1.60461e-13
2.77159e-13
1.31286e-13
2.47984e-13
1.16699e-13
2.91746e-13
2.91746e-14
1.60461e-13
3.64683e-13
1.45873e-14
2.47984e-13
1.75048e-13
3.93858e-13
3.35508e-13
2.1881e-13
1.60461e-13
4.3762e-14
3.06334e-13
7.29366e-14
1.75048e-13
1.60461e-13
4.3762e-14
2.91746e-13
2.33397e-13
3.7927e-13
2.47984e-13
2.47984e-13
1.60461e-13
1.02111e-13
8.18107e-28
1.16699e-13
2.33397e-13
2.33397e-13
1.89635e-13
1.16699e-13
1.45873e-13
2.04222e-13
4.3762e-14
1.75048e-13
2.47984e-13
3.20921e-13
1.60461e-13
5.25144e-13
3.50096e-13
3.64683e-13
3.20921e-13
2.04222e-13
2.33397e-13
2.1881e-13
5.25144e-13
1.75048e-13
4.08445e-13
2.77159e-13
2.91746e-13
3.06334e-13
1.02111e-13
1.16699e-13
1.45873e-13
3.06334e-13
2.91746e-13
1.02111e-13
2.91746e-13
1.31286e-13
2.91746e-13
3.06334e-13
3.20921e-13
3.7927e-13
5.9808e-13
1.89635e-13
4.3762e-13
4.3762e-14
1.16699e-13
2.33397e-13
8.75239e-14
1.45873e-14
1.45873e-13
1.02111e-13
2.1881e-13
1.45873e-14
2.1881e-13
5.83493e-14
1.31286e-13
2.04222e-13
3.93858e-13
3.7927e-13
5.39731e-13
1.02111e-13
2.1881e-13
5.83493e-14
1.60461e-13
3.93858e-13
3.06334e-13
3.64683e-13
4.3762e-14
3.06334e-13
1.89635e-13
1.02111e-13
2.33397e-13
5.83493e-14
2.91746e-14
8.75239e-14
2.04222e-13
4.95969e-13
3.35508e-13
4.3762e-13
3.7927e-13
3.50096e-13
5.10556e-13
3.64683e-13
2.47984e-13
4.23032e-13
2.33397e-13
2.91746e-13
4.3762e-13
6.56429e-13
7.73128e-13
4.52207e-13
5.83493e-13
2.91746e-13
2.04222e-13
1.31286e-13
7.29366e-14
2.62572e-13
3.50096e-13
3.50096e-13
1.75048e-13
1.60461e-13
7.29366e-14
1.60461e-13
1.16699e-13
2.91746e-14
7.29366e-14
2.04222e-13
7.29366e-14
1.31286e-13
1.45873e-13
1.16699e-13
1.45873e-14
2.91746e-14
5.83493e-14
1.60461e-13
4.3762e-14
7.29366e-14
2.62572e-13
1.45873e-13
8.75239e-14
1.45873e-14
2.33397e-13
1.45873e-14
3.7927e-13
1.89635e-13
5.25144e-13
5.9808e-13
8.89827e-13
4.52207e-13
8.02303e-13
5.54318e-13
7.87715e-13
7.43953e-13
6.71017e-13
3.35508e-13
3.50096e-13
2.33397e-13
2.1881e-13
2.25299e-27
4.08445e-13
3.58143e-27
1.16699e-13
2.62572e-13
2.91746e-13
1.45873e-13
7.29366e-14
1.45873e-13
8.75239e-14
1.60461e-13
8.75239e-14
1.45873e-13
3.23117e-27
1.45873e-13
9.65566e-28
1.45873e-14
1.16699e-13
2.91746e-14
1.31286e-13
1.02111e-13
1.89635e-13
2.33397e-13
1.16699e-13
1.45873e-13
1.60461e-13
1.60461e-13
1.45873e-14
5.83493e-14
5.83493e-14
2.91746e-14
1.31286e-13
4.3762e-14
7.29366e-14
2.91746e-13
1.31286e-13
3.06334e-13
2.62572e-13
4.66794e-13
2.47984e-13
2.47984e-13
1.02111e-13
1.45873e-14
2.91746e-14
1.02111e-13
1.31286e-13
2.47984e-13
3.50096e-13
4.95969e-13
3.93858e-13
6.56429e-13
4.23032e-13
5.39731e-13
4.23032e-13
8.75239e-13
6.27255e-13
6.27255e-13
5.25144e-13
3.7927e-13
5.10556e-13
1.31286e-13
2.91746e-13
4.3762e-14
8.75239e-14
2.91746e-14
2.04222e-13
3.64683e-13
1.45873e-13
3.64683e-13
2.33397e-13
8.75239e-14
1.75048e-13
1.45873e-14
8.75239e-14
2.04222e-13
8.75239e-14
4.3762e-14
2.04222e-13
1.75048e-13
2.91746e-14
1.45873e-14
5.83493e-14
2.1881e-13
2.04222e-13
2.33397e-13
1.89635e-13
7.29366e-14
1.31286e-13
4.3762e-14
2.91746e-14
4.3762e-14
5.83493e-14
8.75239e-14
1.45873e-14
1.02111e-13
1.89635e-13
4.3762e-14
1.31286e-13
5.83493e-14
1.31286e-13
1.45873e-13
1.45873e-13
4.3762e-14
1.16699e-13
1.45873e-14
1.75048e-13
1.45873e-13
4.3762e-14
1.31286e-13
4.3762e-14
1.45873e-14
1.60461e-13
2.91746e-14
4.3762e-14
5.83493e-14
1.60461e-13
4.08445e-13
7.29366e-14
3.20921e-13
2.91746e-14
1.02111e-13
1.45873e-13
5.83493e-14
2.33397e-13
7.29366e-14
1.31286e-13
4.3762e-14
1.29058e-27
2.04222e-13
2.04222e-13
1.89635e-13
2.33397e-13
5.83493e-14
8.75239e-14
1.45873e-13
2.91746e-14
1.45873e-14
1.16699e-13
2.33397e-13
8.33037e-28
5.11182e-28
8.75239e-14
5.83493e-14
1.45873e-13
8.75239e-14
1.75048e-13
1.02111e-13
2.91746e-14
1.31286e-13
5.83493e-14
1.60461e-13
1.75048e-13
3.20921e-13
3.20921e-13
1.89635e-13
2.77159e-13
2.91746e-13
1.16699e-13
3.35508e-13
4.3762e-13
5.10556e-13
6.56429e-13
4.08445e-13
)
;

boundaryField
{
    sides
    {
        type            calculated;
        value           nonuniform List<scalar> 2(4.08445e-13 2.77159e-13);
    }
    empty
    {
        type            empty;
    }
}


// ************************************************************************* //
