-4.995 	348.432 	1.75047e-12 	100000
-4.994 	348.432 	1.88161e-12 	100000
-4.993 	348.432 	1.85301e-12 	100000
-4.992 	348.432 	1.95352e-12 	100000
-4.991 	348.432 	1.99972e-12 	100000
-4.99 	348.432 	1.93183e-12 	100000
-4.98901 	348.432 	1.81856e-12 	100000
-4.98801 	348.432 	1.71965e-12 	100000
-4.98701 	348.432 	1.88853e-12 	100000
-4.98601 	348.432 	1.9327e-12 	100000
-4.98501 	348.432 	1.98308e-12 	100000
-4.98401 	348.432 	2.16347e-12 	100000
-4.98301 	348.432 	2.24057e-12 	100000
-4.98201 	348.432 	2.25899e-12 	100000
-4.98101 	348.432 	2.28457e-12 	100000
-4.98001 	348.432 	2.39469e-12 	100000
-4.97901 	348.432 	2.65987e-12 	100000
-4.97802 	348.432 	2.7212e-12 	100000
-4.97702 	348.432 	2.76922e-12 	100000
-4.97602 	348.432 	2.67546e-12 	100000
-4.97502 	348.432 	2.36787e-12 	100000
-4.97402 	348.432 	2.19677e-12 	100000
-4.97302 	348.432 	2.03283e-12 	100000
-4.97202 	348.432 	1.93131e-12 	100000
-4.97102 	348.432 	1.81576e-12 	100000
-4.97002 	348.432 	1.60657e-12 	100000
-4.96902 	348.432 	1.52608e-12 	100000
-4.96802 	348.432 	1.52954e-12 	100000
-4.96703 	348.432 	1.54773e-12 	100000
-4.96603 	348.432 	1.48251e-12 	100000
-4.96503 	348.432 	1.56833e-12 	100000
-4.96403 	348.432 	1.69294e-12 	100000
-4.96303 	348.432 	1.77377e-12 	100000
-4.96203 	348.432 	1.8406e-12 	100000
-4.96103 	348.432 	1.85586e-12 	100000
-4.96003 	348.432 	1.89818e-12 	100000
-4.95903 	348.432 	1.81942e-12 	100000
-4.95803 	348.432 	1.8808e-12 	100000
-4.95703 	348.432 	2.02664e-12 	100000
-4.95604 	348.432 	1.96762e-12 	100000
-4.95504 	348.432 	1.95621e-12 	100000
-4.95404 	348.432 	1.9544e-12 	100000
-4.95304 	348.432 	1.78516e-12 	100000
-4.95204 	348.432 	1.74709e-12 	100000
-4.95104 	348.432 	1.70693e-12 	100000
-4.95004 	348.432 	1.77887e-12 	100000
-4.94904 	348.432 	1.84339e-12 	100000
-4.94804 	348.432 	1.73095e-12 	100000
-4.94704 	348.432 	1.84755e-12 	100000
-4.94604 	348.432 	1.83114e-12 	100000
-4.94505 	348.432 	1.71598e-12 	100000
-4.94405 	348.432 	1.75174e-12 	100000
-4.94305 	348.432 	1.8763e-12 	100000
-4.94205 	348.432 	2.05227e-12 	100000
-4.94105 	348.432 	2.25395e-12 	100000
-4.94005 	348.432 	2.26826e-12 	100000
-4.93905 	348.432 	2.12907e-12 	100000
-4.93805 	348.432 	2.13535e-12 	100000
-4.93705 	348.432 	2.0359e-12 	100000
-4.93605 	348.432 	1.90506e-12 	100000
-4.93505 	348.432 	1.78849e-12 	100000
-4.93405 	348.432 	1.50578e-12 	100000
-4.93306 	348.432 	1.41018e-12 	100000
-4.93206 	348.432 	1.40805e-12 	100000
-4.93106 	348.432 	1.41913e-12 	100000
-4.93006 	348.432 	1.24426e-12 	100000
-4.92906 	348.432 	1.18135e-12 	100000
-4.92806 	348.432 	1.06714e-12 	100000
-4.92706 	348.432 	9.63943e-13 	100000
-4.92606 	348.432 	7.68643e-13 	100000
-4.92506 	348.432 	7.47747e-13 	100000
-4.92406 	348.432 	6.02576e-13 	100000
-4.92306 	348.432 	5.70119e-13 	100000
-4.92207 	348.432 	5.78325e-13 	100000
-4.92107 	348.432 	6.60315e-13 	100000
-4.92007 	348.432 	6.84034e-13 	100000
-4.91907 	348.432 	6.51512e-13 	100000
-4.91807 	348.432 	5.9223e-13 	100000
-4.91707 	348.432 	4.80757e-13 	100000
-4.91607 	348.432 	4.02352e-13 	100000
-4.91507 	348.432 	4.17143e-13 	100000
-4.91407 	348.432 	2.63943e-13 	100000
-4.91307 	348.432 	3.28352e-13 	100000
-4.91207 	348.432 	1.3682e-13 	100000
-4.91108 	348.432 	2.13045e-13 	100000
-4.91008 	348.432 	1.21163e-13 	100000
-4.90908 	348.432 	1.55333e-13 	100000
-4.90808 	348.432 	2.11076e-13 	100000
-4.90708 	348.432 	1.54322e-13 	100000
-4.90608 	348.432 	1.21373e-13 	100000
-4.90508 	348.432 	1.97539e-13 	100000
-4.90408 	348.432 	2.15921e-13 	100000
-4.90308 	348.432 	2.17831e-13 	100000
-4.90208 	348.432 	3.17422e-13 	100000
-4.90108 	348.432 	7.54049e-14 	100000
-4.90009 	348.432 	1.91368e-13 	100000
-4.89909 	348.432 	3.9737e-13 	100000
-4.89809 	348.432 	4.89252e-13 	100000
-4.89709 	348.432 	5.11409e-13 	100000
-4.89609 	348.432 	5.22326e-13 	100000
-4.89509 	348.432 	6.6168e-13 	100000
-4.89409 	348.432 	6.57091e-13 	100000
-4.89309 	348.432 	6.94236e-13 	100000
-4.89209 	348.432 	6.55897e-13 	100000
-4.89109 	348.432 	5.77098e-13 	100000
-4.89009 	348.432 	6.02038e-13 	100000
-4.8891 	348.432 	6.97072e-13 	100000
-4.8881 	348.432 	7.12237e-13 	100000
-4.8871 	348.432 	7.73127e-13 	100000
-4.8861 	348.432 	7.43814e-13 	100000
-4.8851 	348.432 	6.53395e-13 	100000
-4.8841 	348.432 	6.24346e-13 	100000
-4.8831 	348.432 	5.8661e-13 	100000
-4.8821 	348.432 	3.73709e-13 	100000
-4.8811 	348.432 	2.53972e-13 	100000
-4.8801 	348.432 	1.55189e-13 	100000
-4.8791 	348.432 	4.6808e-14 	100000
-4.87811 	348.432 	2.91746e-14 	100000
-4.87711 	348.432 	6.36404e-14 	100000
-4.87611 	348.432 	1.28161e-13 	100000
-4.87511 	348.432 	1.23001e-13 	100000
-4.87411 	348.432 	1.38868e-13 	100000
-4.87311 	348.432 	2.13118e-13 	100000
-4.87211 	348.432 	1.64471e-13 	100000
-4.87111 	348.432 	2.32419e-13 	100000
-4.87011 	348.432 	3.07613e-13 	100000
-4.86911 	348.432 	2.20536e-13 	100000
-4.86811 	348.432 	3.69061e-13 	100000
-4.86712 	348.432 	2.67042e-13 	100000
-4.86612 	348.432 	1.25824e-13 	100000
-4.86512 	348.432 	5.58677e-14 	100000
-4.86412 	348.432 	1.29152e-13 	100000
-4.86312 	348.432 	1.68837e-13 	100000
-4.86212 	348.432 	2.3278e-13 	100000
-4.86112 	348.432 	1.27255e-13 	100000
-4.86012 	348.432 	6.74154e-14 	100000
-4.85912 	348.432 	8.58892e-14 	100000
-4.85812 	348.432 	1.75245e-13 	100000
-4.85712 	348.432 	1.65758e-13 	100000
-4.85613 	348.432 	1.11204e-13 	100000
-4.85513 	348.432 	1.66152e-13 	100000
-4.85413 	348.432 	1.1081e-13 	100000
-4.85313 	348.432 	2.64272e-13 	100000
-4.85213 	348.432 	2.10505e-13 	100000
-4.85113 	348.432 	2.02607e-13 	100000
-4.85013 	348.432 	2.77507e-13 	100000
-4.84913 	348.432 	9.90717e-14 	100000
-4.84813 	348.432 	2.13446e-13 	100000
-4.84713 	348.432 	1.72119e-13 	100000
-4.84613 	348.432 	1.27373e-13 	100000
-4.84514 	348.432 	1.35225e-13 	100000
-4.84414 	348.432 	1.37942e-13 	100000
-4.84314 	348.432 	1.22069e-13 	100000
-4.84214 	348.432 	1.24301e-13 	100000
-4.84114 	348.432 	2.60116e-13 	100000
-4.84014 	348.432 	2.41032e-13 	100000
-4.83914 	348.432 	2.48634e-13 	100000
-4.83814 	348.432 	2.03428e-13 	100000
-4.83714 	348.432 	2.85457e-13 	100000
-4.83614 	348.432 	2.21954e-13 	100000
-4.83514 	348.432 	1.38698e-13 	100000
-4.83414 	348.432 	9.36556e-14 	100000
-4.83315 	348.432 	8.9953e-14 	100000
-4.83215 	348.432 	6.6122e-14 	100000
-4.83115 	348.432 	1.75881e-13 	100000
-4.83015 	348.432 	1.32441e-13 	100000
-4.82915 	348.432 	4.60269e-14 	100000
-4.82815 	348.432 	1.31286e-13 	100000
-4.82715 	348.432 	1.36374e-13 	100000
-4.82615 	348.432 	1.9662e-13 	100000
-4.82515 	348.432 	2.05699e-13 	100000
-4.82415 	348.432 	1.59876e-13 	100000
-4.82315 	348.432 	3.23882e-13 	100000
-4.82216 	348.432 	3.19254e-13 	100000
-4.82116 	348.432 	3.65293e-13 	100000
-4.82016 	348.432 	1.72454e-13 	100000
-4.81916 	348.432 	2.70732e-13 	100000
-4.81816 	348.432 	2.75084e-13 	100000
-4.81716 	348.432 	3.96273e-13 	100000
-4.81616 	348.432 	3.38666e-13 	100000
-4.81516 	348.432 	5.86591e-13 	100000
-4.81416 	348.432 	4.92857e-13 	100000
-4.81316 	348.432 	7.23838e-13 	100000
-4.81216 	348.432 	7.88993e-13 	100000
-4.81117 	348.432 	1.03998e-12 	100000
-4.81017 	348.432 	8.75329e-13 	100000
-4.80917 	348.432 	1.24002e-12 	100000
-4.80817 	348.432 	1.24433e-12 	100000
-4.80717 	348.432 	1.35236e-12 	100000
-4.80617 	348.432 	1.3309e-12 	100000
-4.80517 	348.432 	1.51822e-12 	100000
-4.80417 	348.432 	1.46646e-12 	100000
-4.80317 	348.432 	1.73085e-12 	100000
-4.80217 	348.432 	1.89327e-12 	100000
-4.80117 	348.432 	2.12639e-12 	100000
-4.80018 	348.432 	2.14046e-12 	100000
-4.79918 	348.432 	2.47384e-12 	100000
-4.79818 	348.432 	2.65634e-12 	100000
-4.79718 	348.432 	2.81268e-12 	100000
-4.79618 	348.432 	2.7964e-12 	100000
-4.79518 	348.432 	3.00615e-12 	100000
-4.79418 	348.432 	3.02576e-12 	100000
-4.79318 	348.432 	3.23639e-12 	100000
-4.79218 	348.432 	3.30276e-12 	100000
-4.79118 	348.432 	3.25297e-12 	100000
-4.79018 	348.432 	3.29899e-12 	100000
-4.78919 	348.432 	3.36672e-12 	100000
-4.78819 	348.432 	3.41112e-12 	100000
-4.78719 	348.432 	3.52453e-12 	100000
-4.78619 	348.432 	3.32388e-12 	100000
-4.78519 	348.432 	3.3814e-12 	100000
-4.78419 	348.432 	3.02409e-12 	100000
-4.78319 	348.432 	2.89886e-12 	100000
-4.78219 	348.432 	2.61003e-12 	100000
-4.78119 	348.432 	2.57304e-12 	100000
-4.78019 	348.432 	2.4349e-12 	100000
-4.77919 	348.432 	2.39839e-12 	100000
-4.7782 	348.432 	2.25978e-12 	100000
-4.7772 	348.432 	2.29021e-12 	100000
-4.7762 	348.432 	2.32555e-12 	100000
-4.7752 	348.432 	2.42893e-12 	100000
-4.7742 	348.432 	2.52815e-12 	100000
-4.7732 	348.432 	2.61403e-12 	100000
-4.7722 	348.432 	2.6008e-12 	100000
-4.7712 	348.432 	2.6436e-12 	100000
-4.7702 	348.432 	2.62304e-12 	100000
-4.7692 	348.432 	2.98718e-12 	100000
-4.7682 	348.432 	3.10482e-12 	100000
-4.76721 	348.432 	3.25988e-12 	100000
-4.76621 	348.432 	3.47422e-12 	100000
-4.76521 	348.432 	3.63485e-12 	100000
-4.76421 	348.432 	3.31652e-12 	100000
-4.76321 	348.432 	3.79287e-12 	100000
-4.76221 	348.432 	3.61246e-12 	100000
-4.76121 	348.432 	3.74012e-12 	100000
-4.76021 	348.432 	3.67208e-12 	100000
-4.75921 	348.432 	3.64206e-12 	100000
-4.75821 	348.432 	3.50961e-12 	100000
-4.75721 	348.432 	3.56551e-12 	100000
-4.75622 	348.432 	3.16527e-12 	100000
-4.75522 	348.432 	3.16633e-12 	100000
-4.75422 	348.432 	2.73469e-12 	100000
-4.75322 	348.432 	2.55913e-12 	100000
-4.75222 	348.432 	2.52999e-12 	100000
-4.75122 	348.432 	2.48039e-12 	100000
-4.75022 	348.432 	2.36613e-12 	100000
-4.74922 	348.432 	2.2976e-12 	100000
-4.74822 	348.432 	2.42472e-12 	100000
-4.74722 	348.432 	2.48883e-12 	100000
-4.74622 	348.432 	2.37169e-12 	100000
-4.74523 	348.432 	2.23477e-12 	100000
-4.74423 	348.432 	2.40334e-12 	100000
-4.74323 	348.432 	2.64962e-12 	100000
-4.74223 	348.432 	2.82445e-12 	100000
-4.74123 	348.432 	3.09397e-12 	100000
-4.74023 	348.432 	3.05113e-12 	100000
-4.73923 	348.432 	3.10874e-12 	100000
-4.73823 	348.432 	3.17133e-12 	100000
-4.73723 	348.432 	3.55643e-12 	100000
-4.73623 	348.432 	3.67023e-12 	100000
-4.73523 	348.432 	3.90257e-12 	100000
-4.73423 	348.432 	4.03998e-12 	100000
-4.73324 	348.432 	4.26141e-12 	100000
-4.73224 	348.432 	4.18204e-12 	100000
-4.73124 	348.432 	4.56098e-12 	100000
-4.73024 	348.432 	4.3299e-12 	100000
-4.72924 	348.432 	5.00293e-12 	100000
-4.72824 	348.432 	4.9011e-12 	100000
-4.72724 	348.432 	5.39576e-12 	100000
-4.72624 	348.432 	5.42777e-12 	100000
-4.72524 	348.432 	5.69834e-12 	100000
-4.72424 	348.432 	5.30283e-12 	100000
-4.72324 	348.432 	5.74649e-12 	100000
-4.72225 	348.432 	5.64578e-12 	100000
-4.72125 	348.432 	5.68846e-12 	100000
-4.72025 	348.432 	5.75296e-12 	100000
-4.71925 	348.432 	6.07767e-12 	100000
-4.71825 	348.432 	5.47063e-12 	100000
-4.71725 	348.432 	5.79855e-12 	100000
-4.71625 	348.432 	5.46298e-12 	100000
-4.71525 	348.432 	5.40851e-12 	100000
-4.71425 	348.432 	5.34582e-12 	100000
-4.71325 	348.432 	5.30842e-12 	100000
-4.71225 	348.432 	4.90766e-12 	100000
-4.71126 	348.432 	4.95485e-12 	100000
-4.71026 	348.432 	4.64903e-12 	100000
-4.70926 	348.432 	4.54936e-12 	100000
-4.70826 	348.432 	4.17319e-12 	100000
-4.70726 	348.432 	4.53663e-12 	100000
-4.70626 	348.432 	4.09953e-12 	100000
-4.70526 	348.432 	4.51547e-12 	100000
-4.70426 	348.432 	4.30255e-12 	100000
-4.70326 	348.432 	4.38667e-12 	100000
-4.70226 	348.432 	3.95308e-12 	100000
-4.70126 	348.432 	4.31174e-12 	100000
-4.70027 	348.432 	3.65054e-12 	100000
-4.69927 	348.432 	4.01279e-12 	100000
-4.69827 	348.432 	3.54103e-12 	100000
-4.69727 	348.432 	3.72363e-12 	100000
-4.69627 	348.432 	3.32032e-12 	100000
-4.69527 	348.432 	3.46755e-12 	100000
-4.69427 	348.432 	3.25933e-12 	100000
-4.69327 	348.432 	3.30487e-12 	100000
-4.69227 	348.432 	2.9347e-12 	100000
-4.69127 	348.432 	2.95382e-12 	100000
-4.69027 	348.432 	2.52918e-12 	100000
-4.68928 	348.432 	2.53158e-12 	100000
-4.68828 	348.432 	1.96775e-12 	100000
-4.68728 	348.432 	1.90581e-12 	100000
-4.68628 	348.432 	1.54462e-12 	100000
-4.68528 	348.432 	1.50621e-12 	100000
-4.68428 	348.432 	1.31027e-12 	100000
-4.68328 	348.432 	1.53826e-12 	100000
-4.68228 	348.432 	1.15455e-12 	100000
-4.68128 	348.432 	1.32365e-12 	100000
-4.68028 	348.432 	1.26924e-12 	100000
-4.67928 	348.432 	1.5915e-12 	100000
-4.67829 	348.432 	1.3819e-12 	100000
-4.67729 	348.432 	1.85491e-12 	100000
-4.67629 	348.432 	1.58727e-12 	100000
-4.67529 	348.432 	1.86812e-12 	100000
-4.67429 	348.432 	1.59551e-12 	100000
-4.67329 	348.432 	1.74286e-12 	100000
-4.67229 	348.432 	1.74197e-12 	100000
-4.67129 	348.432 	2.23368e-12 	100000
-4.67029 	348.432 	2.16001e-12 	100000
-4.66929 	348.432 	2.37807e-12 	100000
-4.66829 	348.432 	2.70559e-12 	100000
-4.6673 	348.432 	2.59405e-12 	100000
-4.6663 	348.432 	3.06462e-12 	100000
-4.6653 	348.432 	2.79889e-12 	100000
-4.6643 	348.432 	3.09266e-12 	100000
-4.6633 	348.432 	3.13325e-12 	100000
-4.6623 	348.432 	3.05749e-12 	100000
-4.6613 	348.432 	3.15049e-12 	100000
-4.6603 	348.432 	3.50184e-12 	100000
-4.6593 	348.432 	3.08604e-12 	100000
-4.6583 	348.432 	3.35985e-12 	100000
-4.6573 	348.432 	3.62622e-12 	100000
-4.65631 	348.432 	3.70121e-12 	100000
-4.65531 	348.432 	3.8628e-12 	100000
-4.65431 	348.432 	3.85386e-12 	100000
-4.65331 	348.432 	3.86563e-12 	100000
-4.65231 	348.432 	3.95771e-12 	100000
-4.65131 	348.432 	4.39701e-12 	100000
-4.65031 	348.432 	4.58748e-12 	100000
-4.64931 	348.432 	4.55891e-12 	100000
-4.64831 	348.432 	4.87583e-12 	100000
-4.64731 	348.432 	5.06162e-12 	100000
-4.64631 	348.432 	5.21347e-12 	100000
-4.64532 	348.432 	5.09308e-12 	100000
-4.64432 	348.432 	5.23075e-12 	100000
-4.64332 	348.432 	5.0012e-12 	100000
-4.64232 	348.432 	5.25675e-12 	100000
-4.64132 	348.432 	5.33616e-12 	100000
-4.64032 	348.432 	5.5922e-12 	100000
-4.63932 	348.432 	5.68683e-12 	100000
-4.63832 	348.432 	6.01518e-12 	100000
-4.63732 	348.432 	6.10397e-12 	100000
-4.63632 	348.432 	6.41672e-12 	100000
-4.63532 	348.432 	6.60511e-12 	100000
-4.63432 	348.432 	7.17293e-12 	100000
-4.63333 	348.432 	7.12828e-12 	100000
-4.63233 	348.432 	7.57492e-12 	100000
-4.63133 	348.432 	7.27752e-12 	100000
-4.63033 	348.432 	7.70541e-12 	100000
-4.62933 	348.432 	7.52412e-12 	100000
-4.62833 	348.432 	7.96767e-12 	100000
-4.62733 	348.432 	8.19406e-12 	100000
-4.62633 	348.432 	8.50908e-12 	100000
-4.62533 	348.432 	8.45346e-12 	100000
-4.62433 	348.432 	8.86634e-12 	100000
-4.62333 	348.432 	9.22465e-12 	100000
-4.62234 	348.432 	8.98431e-12 	100000
-4.62134 	348.432 	9.55352e-12 	100000
-4.62034 	348.432 	9.78244e-12 	100000
-4.61934 	348.432 	9.41957e-12 	100000
-4.61834 	348.432 	9.33507e-12 	100000
-4.61734 	348.432 	9.75545e-12 	100000
-4.61634 	348.432 	9.52592e-12 	100000
-4.61534 	348.432 	9.35743e-12 	100000
-4.61434 	348.432 	9.91111e-12 	100000
-4.61334 	348.432 	9.0345e-12 	100000
-4.61234 	348.432 	9.57e-12 	100000
-4.61135 	348.432 	9.28858e-12 	100000
-4.61035 	348.432 	8.99372e-12 	100000
-4.60935 	348.432 	8.83842e-12 	100000
-4.60835 	348.432 	8.95604e-12 	100000
-4.60735 	348.432 	8.31117e-12 	100000
-4.60635 	348.432 	8.35125e-12 	100000
-4.60535 	348.432 	8.23159e-12 	100000
-4.60435 	348.432 	8.25425e-12 	100000
-4.60335 	348.432 	8.16454e-12 	100000
-4.60235 	348.432 	7.75722e-12 	100000
-4.60135 	348.432 	7.95143e-12 	100000
-4.60036 	348.432 	7.71473e-12 	100000
-4.59936 	348.432 	7.73098e-12 	100000
-4.59836 	348.432 	7.42487e-12 	100000
-4.59736 	348.432 	7.57791e-12 	100000
-4.59636 	348.432 	6.97808e-12 	100000
-4.59536 	348.432 	7.33596e-12 	100000
-4.59436 	348.432 	7.10518e-12 	100000
-4.59336 	348.432 	6.78904e-12 	100000
-4.59236 	348.432 	6.38608e-12 	100000
-4.59136 	348.432 	5.90189e-12 	100000
-4.59036 	348.432 	5.80678e-12 	100000
-4.58937 	348.432 	5.44695e-12 	100000
-4.58837 	348.432 	5.45947e-12 	100000
-4.58737 	348.432 	5.301e-12 	100000
-4.58637 	348.432 	5.2697e-12 	100000
-4.58537 	348.432 	4.85584e-12 	100000
-4.58437 	348.432 	5.13283e-12 	100000
-4.58337 	348.432 	5.14463e-12 	100000
-4.58237 	348.432 	5.28546e-12 	100000
-4.58137 	348.432 	5.16101e-12 	100000
-4.58037 	348.432 	5.41892e-12 	100000
-4.57937 	348.432 	5.36126e-12 	100000
-4.57838 	348.432 	6.02091e-12 	100000
-4.57738 	348.432 	6.03871e-12 	100000
-4.57638 	348.432 	6.35265e-12 	100000
-4.57538 	348.432 	6.43407e-12 	100000
-4.57438 	348.432 	6.65358e-12 	100000
-4.57338 	348.432 	6.67341e-12 	100000
-4.57238 	348.432 	6.73171e-12 	100000
-4.57138 	348.432 	6.79e-12 	100000
-4.57038 	348.432 	6.86372e-12 	100000
-4.56938 	348.432 	7.03788e-12 	100000
-4.56838 	348.432 	7.08774e-12 	100000
-4.56739 	348.432 	7.11837e-12 	100000
-4.56639 	348.432 	7.42255e-12 	100000
-4.56539 	348.432 	7.19178e-12 	100000
-4.56439 	348.432 	7.22651e-12 	100000
-4.56339 	348.432 	6.62103e-12 	100000
-4.56239 	348.432 	6.87933e-12 	100000
-4.56139 	348.432 	6.26569e-12 	100000
-4.56039 	348.432 	6.42386e-12 	100000
-4.55939 	348.432 	6.20681e-12 	100000
-4.55839 	348.432 	5.99966e-12 	100000
-4.55739 	348.432 	5.8359e-12 	100000
-4.5564 	348.432 	6.17136e-12 	100000
-4.5554 	348.432 	5.83305e-12 	100000
-4.5544 	348.432 	6.03073e-12 	100000
-4.5534 	348.432 	5.71853e-12 	100000
-4.5524 	348.432 	5.84212e-12 	100000
-4.5514 	348.432 	5.7795e-12 	100000
-4.5504 	348.432 	5.78254e-12 	100000
-4.5494 	348.432 	5.59248e-12 	100000
-4.5484 	348.432 	5.79509e-12 	100000
-4.5474 	348.432 	5.96762e-12 	100000
-4.5464 	348.432 	6.00876e-12 	100000
-4.54541 	348.432 	6.26007e-12 	100000
-4.54441 	348.432 	6.12616e-12 	100000
-4.54341 	348.432 	6.00117e-12 	100000
-4.54241 	348.432 	6.2144e-12 	100000
-4.54141 	348.432 	6.35606e-12 	100000
-4.54041 	348.432 	6.30838e-12 	100000
-4.53941 	348.432 	6.23009e-12 	100000
-4.53841 	348.432 	6.20327e-12 	100000
-4.53741 	348.432 	5.83469e-12 	100000
-4.53641 	348.432 	6.26306e-12 	100000
-4.53541 	348.432 	6.01499e-12 	100000
-4.53441 	348.432 	6.03606e-12 	100000
-4.53342 	348.432 	5.68782e-12 	100000
-4.53242 	348.432 	5.64774e-12 	100000
-4.53142 	348.432 	5.34273e-12 	100000
-4.53042 	348.432 	5.2068e-12 	100000
-4.52942 	348.432 	5.02674e-12 	100000
-4.52842 	348.432 	4.95968e-12 	100000
-4.52742 	348.432 	4.9861e-12 	100000
-4.52642 	348.432 	5.33153e-12 	100000
-4.52542 	348.432 	5.75075e-12 	100000
-4.52442 	348.432 	5.63053e-12 	100000
-4.52342 	348.432 	5.82439e-12 	100000
-4.52243 	348.432 	6.05156e-12 	100000
-4.52143 	348.432 	6.03204e-12 	100000
-4.52043 	348.432 	6.14887e-12 	100000
-4.51943 	348.432 	6.433e-12 	100000
-4.51843 	348.432 	6.43918e-12 	100000
-4.51743 	348.432 	6.53273e-12 	100000
-4.51643 	348.432 	6.71767e-12 	100000
-4.51543 	348.432 	7.04028e-12 	100000
-4.51443 	348.432 	7.36463e-12 	100000
-4.51343 	348.432 	7.35382e-12 	100000
-4.51243 	348.432 	7.59301e-12 	100000
-4.51144 	348.432 	7.73025e-12 	100000
-4.51044 	348.432 	8.13138e-12 	100000
-4.50944 	348.432 	8.0139e-12 	100000
-4.50844 	348.432 	8.10135e-12 	100000
-4.50744 	348.432 	8.17816e-12 	100000
-4.50644 	348.432 	8.08373e-12 	100000
-4.50544 	348.432 	7.90893e-12 	100000
-4.50444 	348.432 	8.16485e-12 	100000
-4.50344 	348.432 	7.86922e-12 	100000
-4.50244 	348.432 	7.96694e-12 	100000
-4.50144 	348.432 	7.73945e-12 	100000
-4.50045 	348.432 	7.37958e-12 	100000
-4.49945 	348.432 	7.33403e-12 	100000
-4.49845 	348.432 	7.00958e-12 	100000
-4.49745 	348.432 	6.86709e-12 	100000
-4.49645 	348.432 	6.53437e-12 	100000
-4.49545 	348.432 	6.52125e-12 	100000
-4.49445 	348.432 	6.53153e-12 	100000
-4.49345 	348.432 	6.44672e-12 	100000
-4.49245 	348.432 	6.16675e-12 	100000
-4.49145 	348.432 	6.6634e-12 	100000
-4.49045 	348.432 	6.32094e-12 	100000
-4.48946 	348.432 	6.73645e-12 	100000
-4.48846 	348.432 	6.98796e-12 	100000
-4.48746 	348.432 	7.01313e-12 	100000
-4.48646 	348.432 	7.27425e-12 	100000
-4.48546 	348.432 	7.51997e-12 	100000
-4.48446 	348.432 	8.0452e-12 	100000
-4.48346 	348.432 	8.23809e-12 	100000
-4.48246 	348.432 	8.51277e-12 	100000
-4.48146 	348.432 	8.72267e-12 	100000
-4.48046 	348.432 	8.72723e-12 	100000
-4.47946 	348.432 	9.2171e-12 	100000
-4.47847 	348.432 	9.16739e-12 	100000
-4.47747 	348.432 	9.35883e-12 	100000
-4.47647 	348.432 	9.59413e-12 	100000
-4.47547 	348.432 	9.47462e-12 	100000
-4.47447 	348.432 	9.68968e-12 	100000
-4.47347 	348.432 	9.36981e-12 	100000
-4.47247 	348.432 	9.98078e-12 	100000
-4.47147 	348.432 	9.61374e-12 	100000
-4.47047 	348.432 	1.01518e-11 	100000
-4.46947 	348.432 	1.06225e-11 	100000
-4.46847 	348.432 	1.01995e-11 	100000
-4.46748 	348.432 	1.03193e-11 	100000
-4.46648 	348.432 	1.05581e-11 	100000
-4.46548 	348.432 	1.04319e-11 	100000
-4.46448 	348.432 	1.05258e-11 	100000
-4.46348 	348.432 	1.08862e-11 	100000
-4.46248 	348.432 	1.04054e-11 	100000
-4.46148 	348.432 	1.06392e-11 	100000
-4.46048 	348.432 	1.08916e-11 	100000
-4.45948 	348.432 	1.06073e-11 	100000
-4.45848 	348.432 	9.93248e-12 	100000
-4.45748 	348.432 	1.06871e-11 	100000
-4.45649 	348.432 	9.44925e-12 	100000
-4.45549 	348.432 	1.01949e-11 	100000
-4.45449 	348.432 	1.00768e-11 	100000
-4.45349 	348.432 	9.84288e-12 	100000
-4.45249 	348.432 	9.55665e-12 	100000
-4.45149 	348.432 	9.72399e-12 	100000
-4.45049 	348.432 	9.17941e-12 	100000
-4.44949 	348.432 	9.59071e-12 	100000
-4.44849 	348.432 	8.69682e-12 	100000
-4.44749 	348.432 	9.05694e-12 	100000
-4.44649 	348.432 	8.79495e-12 	100000
-4.4455 	348.432 	8.59228e-12 	100000
-4.4445 	348.432 	8.66433e-12 	100000
-4.4435 	348.432 	8.53311e-12 	100000
-4.4425 	348.432 	8.3878e-12 	100000
-4.4415 	348.432 	8.43114e-12 	100000
-4.4405 	348.432 	8.19794e-12 	100000
-4.4395 	348.432 	7.92102e-12 	100000
-4.4385 	348.432 	7.7461e-12 	100000
-4.4375 	348.432 	8.08061e-12 	100000
-4.4365 	348.432 	7.74692e-12 	100000
-4.4355 	348.432 	7.2519e-12 	100000
-4.4345 	348.432 	6.66929e-12 	100000
-4.43351 	348.432 	7.30448e-12 	100000
-4.43251 	348.432 	6.29402e-12 	100000
-4.43151 	348.432 	6.82273e-12 	100000
-4.43051 	348.432 	6.11819e-12 	100000
-4.42951 	348.432 	6.6756e-12 	100000
-4.42851 	348.432 	6.03134e-12 	100000
-4.42751 	348.432 	6.74571e-12 	100000
-4.42651 	348.432 	6.46572e-12 	100000
-4.42551 	348.432 	6.53416e-12 	100000
-4.42451 	348.432 	6.30497e-12 	100000
-4.42351 	348.432 	6.64661e-12 	100000
-4.42252 	348.432 	6.33594e-12 	100000
-4.42152 	348.432 	6.83294e-12 	100000
-4.42052 	348.432 	6.71246e-12 	100000
-4.41952 	348.432 	6.66721e-12 	100000
-4.41852 	348.432 	6.72362e-12 	100000
-4.41752 	348.432 	6.78191e-12 	100000
-4.41652 	348.432 	7.06867e-12 	100000
-4.41552 	348.432 	7.10338e-12 	100000
-4.41452 	348.432 	7.40332e-12 	100000
-4.41352 	348.432 	7.26796e-12 	100000
-4.41252 	348.432 	7.43519e-12 	100000
-4.41153 	348.432 	7.53901e-12 	100000
-4.41053 	348.432 	7.95344e-12 	100000
-4.40953 	348.432 	7.80862e-12 	100000
-4.40853 	348.432 	7.91759e-12 	100000
-4.40753 	348.432 	8.07667e-12 	100000
-4.40653 	348.432 	8.22284e-12 	100000
-4.40553 	348.432 	8.19897e-12 	100000
-4.40453 	348.432 	8.45224e-12 	100000
-4.40353 	348.432 	8.00918e-12 	100000
-4.40253 	348.432 	8.79725e-12 	100000
-4.40153 	348.432 	8.23388e-12 	100000
-4.40054 	348.432 	8.83167e-12 	100000
-4.39954 	348.432 	8.08144e-12 	100000
-4.39854 	348.432 	8.19261e-12 	100000
-4.39754 	348.432 	8.11389e-12 	100000
-4.39654 	348.432 	8.40488e-12 	100000
-4.39554 	348.432 	8.24883e-12 	100000
-4.39454 	348.432 	8.6895e-12 	100000
-4.39354 	348.432 	8.44306e-12 	100000
-4.39254 	348.432 	8.62695e-12 	100000
-4.39154 	348.432 	8.67753e-12 	100000
-4.39054 	348.432 	8.79094e-12 	100000
-4.38955 	348.432 	8.7126e-12 	100000
-4.38855 	348.432 	8.61124e-12 	100000
-4.38755 	348.432 	8.37024e-12 	100000
-4.38655 	348.432 	8.37241e-12 	100000
-4.38555 	348.432 	8.22052e-12 	100000
-4.38455 	348.432 	8.28195e-12 	100000
-4.38355 	348.432 	8.65941e-12 	100000
-4.38255 	348.432 	8.2783e-12 	100000
-4.38155 	348.432 	8.5328e-12 	100000
-4.38055 	348.432 	8.52054e-12 	100000
-4.37955 	348.432 	8.39485e-12 	100000
-4.37856 	348.432 	8.75975e-12 	100000
-4.37756 	348.432 	8.69895e-12 	100000
-4.37656 	348.432 	9.03787e-12 	100000
-4.37556 	348.432 	8.72894e-12 	100000
-4.37456 	348.432 	8.5988e-12 	100000
-4.37356 	348.432 	8.6742e-12 	100000
-4.37256 	348.432 	8.43282e-12 	100000
-4.37156 	348.432 	8.00623e-12 	100000
-4.37056 	348.432 	7.54166e-12 	100000
-4.36956 	348.432 	7.53978e-12 	100000
-4.36856 	348.432 	7.35055e-12 	100000
-4.36757 	348.432 	7.16015e-12 	100000
-4.36657 	348.432 	7.284e-12 	100000
-4.36557 	348.432 	7.5114e-12 	100000
-4.36457 	348.432 	7.13277e-12 	100000
-4.36357 	348.432 	7.64733e-12 	100000
-4.36257 	348.432 	7.59252e-12 	100000
-4.36157 	348.432 	7.65318e-12 	100000
-4.36057 	348.432 	7.87503e-12 	100000
-4.35957 	348.432 	7.64819e-12 	100000
-4.35857 	348.432 	7.91302e-12 	100000
-4.35757 	348.432 	8.04352e-12 	100000
-4.35658 	348.432 	8.0387e-12 	100000
-4.35558 	348.432 	8.30716e-12 	100000
-4.35458 	348.432 	8.00619e-12 	100000
-4.35358 	348.432 	8.04651e-12 	100000
-4.35258 	348.432 	8.32096e-12 	100000
-4.35158 	348.432 	8.30366e-12 	100000
-4.35058 	348.432 	8.555e-12 	100000
-4.34958 	348.432 	8.51034e-12 	100000
-4.34858 	348.432 	8.43747e-12 	100000
-4.34758 	348.432 	8.59194e-12 	100000
-4.34658 	348.432 	8.57979e-12 	100000
-4.34559 	348.432 	8.99108e-12 	100000
-4.34459 	348.432 	8.8162e-12 	100000
-4.34359 	348.432 	9.12914e-12 	100000
-4.34259 	348.432 	9.08098e-12 	100000
-4.34159 	348.432 	9.29929e-12 	100000
-4.34059 	348.432 	9.28144e-12 	100000
-4.33959 	348.432 	9.22445e-12 	100000
-4.33859 	348.432 	9.23243e-12 	100000
-4.33759 	348.432 	9.247e-12 	100000
-4.33659 	348.432 	8.86473e-12 	100000
-4.33559 	348.432 	9.01033e-12 	100000
-4.33459 	348.432 	8.87111e-12 	100000
-4.3336 	348.432 	9.17103e-12 	100000
-4.3326 	348.432 	8.54579e-12 	100000
-4.3316 	348.432 	8.97541e-12 	100000
-4.3306 	348.432 	8.7008e-12 	100000
-4.3296 	348.432 	9.11149e-12 	100000
-4.3286 	348.432 	9.12145e-12 	100000
-4.3276 	348.432 	8.89419e-12 	100000
-4.3266 	348.432 	9.00005e-12 	100000
-4.3256 	348.432 	8.85794e-12 	100000
-4.3246 	348.432 	9.0229e-12 	100000
-4.3236 	348.432 	9.03107e-12 	100000
-4.32261 	348.432 	9.39478e-12 	100000
-4.32161 	348.432 	9.5292e-12 	100000
-4.32061 	348.432 	9.60518e-12 	100000
-4.31961 	348.432 	9.31391e-12 	100000
-4.31861 	348.432 	9.69327e-12 	100000
-4.31761 	348.432 	9.71836e-12 	100000
-4.31661 	348.432 	1.00004e-11 	100000
-4.31561 	348.432 	1.0347e-11 	100000
-4.31461 	348.432 	9.89446e-12 	100000
-4.31361 	348.432 	1.00128e-11 	100000
-4.31261 	348.432 	1.03072e-11 	100000
-4.31162 	348.432 	1.01747e-11 	100000
-4.31062 	348.432 	1.01914e-11 	100000
-4.30962 	348.432 	9.95191e-12 	100000
-4.30862 	348.432 	9.9708e-12 	100000
-4.30762 	348.432 	9.56659e-12 	100000
-4.30662 	348.432 	9.71627e-12 	100000
-4.30562 	348.432 	9.38532e-12 	100000
-4.30462 	348.432 	9.43834e-12 	100000
-4.30362 	348.432 	9.24785e-12 	100000
-4.30262 	348.432 	9.37256e-12 	100000
-4.30162 	348.432 	9.02393e-12 	100000
-4.30063 	348.432 	9.59622e-12 	100000
-4.29963 	348.432 	9.15078e-12 	100000
-4.29863 	348.432 	9.62066e-12 	100000
-4.29763 	348.432 	8.97573e-12 	100000
-4.29663 	348.432 	9.7837e-12 	100000
-4.29563 	348.432 	9.34832e-12 	100000
-4.29463 	348.432 	9.92216e-12 	100000
-4.29363 	348.432 	9.211e-12 	100000
-4.29263 	348.432 	9.75837e-12 	100000
-4.29163 	348.432 	9.43134e-12 	100000
-4.29063 	348.432 	9.84477e-12 	100000
-4.28964 	348.432 	9.62931e-12 	100000
-4.28864 	348.432 	1.00374e-11 	100000
-4.28764 	348.432 	9.81954e-12 	100000
-4.28664 	348.432 	1.01004e-11 	100000
-4.28564 	348.432 	9.86391e-12 	100000
-4.28464 	348.432 	1.01309e-11 	100000
-4.28364 	348.432 	1.01569e-11 	100000
-4.28264 	348.432 	1.02404e-11 	100000
-4.28164 	348.432 	1.05551e-11 	100000
-4.28064 	348.432 	1.07049e-11 	100000
-4.27964 	348.432 	1.09713e-11 	100000
-4.27865 	348.432 	1.10882e-11 	100000
-4.27765 	348.432 	1.13998e-11 	100000
-4.27665 	348.432 	1.1451e-11 	100000
-4.27565 	348.432 	1.13268e-11 	100000
-4.27465 	348.432 	1.21121e-11 	100000
-4.27365 	348.432 	1.15961e-11 	100000
-4.27265 	348.432 	1.17527e-11 	100000
-4.27165 	348.432 	1.15536e-11 	100000
-4.27065 	348.432 	1.13486e-11 	100000
-4.26965 	348.432 	1.069e-11 	100000
-4.26865 	348.432 	1.06745e-11 	100000
-4.26766 	348.432 	1.03844e-11 	100000
-4.26666 	348.432 	1.04878e-11 	100000
-4.26566 	348.432 	1.00256e-11 	100000
-4.26466 	348.432 	9.92166e-12 	100000
-4.26366 	348.432 	9.67397e-12 	100000
-4.26266 	348.432 	9.89727e-12 	100000
-4.26166 	348.432 	9.82611e-12 	100000
-4.26066 	348.432 	1.03286e-11 	100000
-4.25966 	348.432 	1.02956e-11 	100000
-4.25866 	348.432 	1.07577e-11 	100000
-4.25766 	348.432 	1.07189e-11 	100000
-4.25667 	348.432 	1.11674e-11 	100000
-4.25567 	348.432 	1.04342e-11 	100000
-4.25467 	348.432 	1.09499e-11 	100000
-4.25367 	348.432 	1.04673e-11 	100000
-4.25267 	348.432 	1.0694e-11 	100000
-4.25167 	348.432 	1.04868e-11 	100000
-4.25067 	348.432 	1.09381e-11 	100000
-4.24967 	348.432 	1.06558e-11 	100000
-4.24867 	348.432 	1.11674e-11 	100000
-4.24767 	348.432 	1.05067e-11 	100000
-4.24667 	348.432 	1.09206e-11 	100000
-4.24568 	348.432 	1.09944e-11 	100000
-4.24468 	348.432 	1.08761e-11 	100000
-4.24368 	348.432 	1.08649e-11 	100000
-4.24268 	348.432 	1.11434e-11 	100000
-4.24168 	348.432 	1.09754e-11 	100000
-4.24068 	348.432 	1.06626e-11 	100000
-4.23968 	348.432 	1.05571e-11 	100000
-4.23868 	348.432 	1.02123e-11 	100000
-4.23768 	348.432 	1.05676e-11 	100000
-4.23668 	348.432 	1.04607e-11 	100000
-4.23568 	348.432 	1.04034e-11 	100000
-4.23468 	348.432 	1.00678e-11 	100000
-4.23369 	348.432 	1.03011e-11 	100000
-4.23269 	348.432 	9.60049e-12 	100000
-4.23169 	348.432 	9.70779e-12 	100000
-4.23069 	348.432 	9.30003e-12 	100000
-4.22969 	348.432 	9.47376e-12 	100000
-4.22869 	348.432 	9.12673e-12 	100000
-4.22769 	348.432 	9.1947e-12 	100000
-4.22669 	348.432 	8.82132e-12 	100000
-4.22569 	348.432 	8.94685e-12 	100000
-4.22469 	348.432 	8.57708e-12 	100000
-4.22369 	348.432 	8.5222e-12 	100000