/*--------------------------------*- C++ -*----------------------------------*\
  =========                 |
  \\      /  F ield         | OpenFOAM: The Open Source CFD Toolbox
   \\    /   O peration     | Website:  https://openfoam.org
    \\  /    A nd           | Version:  7
     \\/     M anipulation  |
\*---------------------------------------------------------------------------*/
FoamFile
{
    version     2.0;
    format      ascii;
    class       volScalarField;
    location    "9.6";
    object      p;
}
// * * * * * * * * * * * * * * * * * * * * * * * * * * * * * * * * * * * * * //

dimensions      [1 -1 -2 0 0 0 0];

internalField   nonuniform List<scalar> 
19968
(
1
1
1
1
1
1
1
1
1
1
1
1
1
1
1
1
1
1
1
1
1
1
1
1
1
1
1
1
1
1
1
1
1
1
1
1
1
1
1
1
1
1
1
1
1
1
1
1
1.55715
8.05339
10.4131
10.4576
10.5216
10.5829
10.6419
10.6957
10.7471
10.7997
10.8553
10.9118
10.9662
11.0178
11.0691
11.1219
11.174
11.2234
11.2698
11.3127
11.3523
11.3902
11.4279
11.4661
11.5048
11.5442
11.5839
11.6233
11.6618
11.6989
11.7342
11.7672
11.7969
11.8228
11.8452
11.8653
11.8848
11.9049
11.9258
11.9466
11.966
11.9832
11.998
12.0111
12.0229
12.033
12.0411
12.0468
1
1
1
1
1
1
1
1
1
1
1
1
1
1
1
1
1
1
1
1
1
1
1
1
1
1
1
1
1
1
1
1
1
1
1
1
1
1
1
1
1
1
1
1
1
1
1
1
1.5279
7.99046
10.4054
10.4554
10.5214
10.5819
10.6402
10.6935
10.7446
10.7965
10.8516
10.9077
10.9619
11.0139
11.0651
11.1177
11.1695
11.2192
11.2659
11.309
11.3488
11.3868
11.4244
11.4625
11.5011
11.5403
11.5799
11.6192
11.6576
11.6947
11.7301
11.763
11.7926
11.8183
11.8405
11.8605
11.8799
11.8998
11.9205
11.9411
11.9602
11.9771
11.9918
12.0046
12.0162
12.0261
12.0338
12.0393
1
1
1
1
1
1
1
1
1
1
1
1
1
1
1
1
1
1
1
1
1
1
1
1
1
1
1
1
1
1
1
1
1
1
1
1
1
1
1
1
1
1
1
1
1
1
1
1
1.46085
7.84936
10.4018
10.4446
10.5132
10.5736
10.6324
10.686
10.737
10.7884
10.8429
10.8986
10.9527
11.005
11.0559
11.1083
11.1598
11.21
11.2573
11.3011
11.3414
11.3796
11.4173
11.4552
11.4936
11.5325
11.5718
11.611
11.6494
11.6866
11.722
11.7548
11.7841
11.8097
11.8318
11.8518
11.8711
11.8909
11.9114
11.9318
11.9508
11.9676
11.9823
11.9951
12.0064
12.016
12.0233
12.0286
1
1
1
1
1
1
1
1
1
1
1
1
1
1
1
1
1
1
1
1
1
1
1
1
1
1
1
1
1
1
1
1
1
1
1
1
1
1
1
1
1
1
1
1
1
1
1
1
1.36385
7.61416
10.3959
10.4335
10.5024
10.5637
10.6234
10.6775
10.7284
10.7791
10.8327
10.8877
10.9413
10.9937
11.0439
11.0957
11.1467
11.1972
11.245
11.2894
11.3304
11.3691
11.407
11.4449
11.483
11.5214
11.5603
11.5992
11.6376
11.6749
11.7102
11.7427
11.7716
11.7966
11.8183
11.8379
11.8568
11.8761
11.896
11.9158
11.9344
11.9512
11.9659
11.9789
11.9903
11.9997
12.0069
12.0121
1
1
1
1
1
1
1
1
1
1
1
1
1
1
1
1
1
1
1
1
1
1
1
1
1
1
1
1
1
1
1
1
1
1
1
1
1
1
1
1
1
1
1
1
1
1
1
1
1.23977
7.28807
10.3958
10.424
10.4915
10.5521
10.612
10.6666
10.7177
10.768
10.8208
10.8749
10.928
10.9801
11.0294
11.0802
11.1303
11.1808
11.2289
11.2739
11.3156
11.3551
11.3936
11.4318
11.4697
11.5077
11.5459
11.5844
11.6228
11.6603
11.6958
11.7281
11.7567
11.7815
11.8029
11.8222
11.8407
11.8593
11.8782
11.897
11.9146
11.9304
11.9441
11.956
11.9662
11.9746
11.9809
11.9855
1
1
1
1
1
1
1
1
1
1
1
1
1
1
1
1
1
1
1
1
1
1
1
1
1
1
1
1
1
1
1
1
1
1
1
1
1
1
1
1
1
1
1
1
1
1
1
1
1.03693
6.77751
10.3911
10.4195
10.4819
10.5443
10.6059
10.6619
10.7132
10.7629
10.8141
10.8664
10.9181
10.9691
11.017
11.0659
11.1139
11.1628
11.2099
11.2543
11.2956
11.3352
11.3738
11.4118
11.4492
11.4862
11.523
11.5601
11.5975
11.6345
11.6697
11.7018
11.73
11.7544
11.7756
11.7946
11.8129
11.8312
11.8499
11.8687
11.8865
11.9024
11.9162
11.9279
11.9376
11.9455
11.9512
11.9557
1
1
1
1
1
1
1
1
1
1
1
1
1
1
1
1
1
1
1
1
1
1
1
1
1
1
1
1
1
1
1
1
1
1
1
1
1
1
1
1
1
1
1
1
1
1
1
1
1.00036
6.0556
10.2967
10.3781
10.4366
10.5028
10.5662
10.6241
10.6769
10.7279
10.7795
10.8316
10.8831
10.9335
10.9804
11.0282
11.0749
11.1232
11.1701
11.2144
11.2559
11.2962
11.3359
11.3749
11.4131
11.45
11.486
11.5219
11.5582
11.5947
11.6298
11.6622
11.6907
11.7152
11.7364
11.7555
11.7736
11.7918
11.8105
11.8293
11.8472
11.8632
11.8768
11.8879
11.8969
11.9042
11.9094
11.9136
1
1
1
1
1
1
1
1
1
1
1
1
1
1
1
1
1
1
1
1
1
1
1
1
1
1
1
1
1
1
1
1
1
1
1
1
1
1
1
1
1
1
1
1
1
1
1
1
1
5.11
10.1457
10.3464
10.4031
10.4747
10.5401
10.6002
10.6539
10.7047
10.7555
10.8065
10.8569
10.9059
10.9511
10.9972
11.0423
11.089
11.1349
11.1782
11.2187
11.2583
11.2978
11.3371
11.3754
11.412
11.4469
11.4809
11.5152
11.5501
11.5845
11.6167
11.6454
11.67
11.6911
11.7098
11.7274
11.7451
11.7634
11.7818
11.7995
11.815
11.828
11.8384
11.8466
11.8532
11.8577
11.8616
1
1
1
1
1
1
1
1
1
1
1
1
1
1
1
1
1
1
1
1
1
1
1
1
1
1
1
1
1
1
1
1
1
1
1
1
1
1
1
1
1
1
1
1
1
1
1
1
1
4.018
9.85367
10.3165
10.3706
10.4435
10.5088
10.5699
10.6244
10.6751
10.7251
10.7749
10.8243
10.8716
10.9153
10.9597
11.0037
11.0486
11.0927
11.134
11.1721
11.2094
11.2471
11.2852
11.323
11.3593
11.3931
11.4251
11.4569
11.4894
11.5223
11.554
11.5827
11.6075
11.6285
11.6467
11.6638
11.681
11.699
11.7173
11.7349
11.7502
11.7629
11.7729
11.7807
11.7871
11.7913
11.7951
1
1
1
1
1
1
1
1
1
1
1
1
1
1
1
1
1
1
1
1
1
1
1
1
1
1
1
1
1
1
1
1
1
1
1
1
1
1
1
1
1
1
1
1
1
1
1
1
1
2.87401
9.31653
10.2987
10.3641
10.4317
10.4927
10.55
10.6025
10.6511
10.6985
10.7455
10.7921
10.8366
10.8782
10.9209
10.9642
11.008
11.0505
11.0895
11.1246
11.1584
11.193
11.2284
11.2642
11.2987
11.3305
11.3593
11.3872
11.4158
11.4456
11.4757
11.5039
11.5287
11.5496
11.5678
11.5847
11.6017
11.6193
11.637
11.6535
11.6677
11.6791
11.688
11.6947
11.7004
11.7039
11.7074
1
1
1
1
1
1
1
1
1
1
1
1
1
1
1
1
1
1
1
1
1
1
1
1
1
1
1
1
1
1
1
1
1
1
1
1
1
1
1
1
1
1
1
1
1
1
1
1
1
1.84285
8.39007
10.3262
10.3288
10.3962
10.4519
10.508
10.5604
10.6089
10.6557
10.7023
10.7483
10.7921
10.8331
10.8742
10.9168
10.9601
11.0021
11.04
11.0732
11.1039
11.1352
11.1678
11.2016
11.2345
11.2644
11.2904
11.3141
11.3377
11.3626
11.3884
11.4132
11.4348
11.4529
11.4681
11.4822
11.4965
11.5117
11.5274
11.5428
11.5565
11.568
11.5771
11.5839
11.5895
11.5926
11.5962
1
1
1
1
1
1
1
1
1
1
1
1
1
1
1
1
1
1
1
1
1
1
1
1
1
1
1
1
1
1
1
1
1
1
1
1
1
1
1
1
1
1
1
1
1
1
1
1
1
1.03278
6.72311
10.3576
10.3783
10.4069
10.4478
10.4919
10.5373
10.5821
10.6255
10.6683
10.7095
10.7477
10.7834
10.8189
10.8573
10.8979
10.9375
10.9727
11.003
11.0297
11.0566
11.0849
11.115
11.1454
11.1735
11.1977
11.2187
11.2385
11.2589
11.2803
11.3014
11.3204
11.3363
11.3498
11.3621
11.3744
11.387
11.3999
11.412
11.4221
11.4293
11.433
11.434
11.4344
11.4339
11.4351
1
1
1
1
1
1
1
1
1
1
1
1
1
1
1
1
1
1
1
1
1
1
1
1
1
1
1
1
1
1
1
1
1
1
1
1
1
1
1
1
1
1
1
1
1
1
1
1
1
1.00006
4.643
9.92046
10.1917
10.2593
10.3283
10.3832
10.4336
10.4798
10.5235
10.5661
10.6069
10.6448
10.6804
10.7155
10.7526
10.792
10.8312
10.8659
10.8957
10.9218
10.9465
10.9722
10.9991
11.0272
11.0539
11.0771
11.0965
11.1134
11.1296
11.1459
11.1617
11.1756
11.1864
11.1941
11.1996
11.2035
11.2067
11.2102
11.2149
11.2207
11.2261
11.2302
11.2315
11.2315
11.2294
11.2294
1
1
1
1
1
1
1
1
1
1
1
1
1
1
1
1
1
1
1
1
1
1
1
1
1
1
1
1
1
1
1
1
1
1
1
1
1
1
1
1
1
1
1
1
1
1
1
1
1
1
2.42492
8.80869
10.1274
10.1826
10.2689
10.3278
10.3782
10.4224
10.4631
10.5026
10.5408
10.5764
10.6095
10.6418
10.675
10.7102
10.746
10.7779
10.8042
10.827
10.8469
10.8665
10.8863
10.9076
10.9288
10.9475
10.9627
10.9748
10.9851
10.994
11.0019
11.008
11.0115
11.0123
11.0097
11.0047
10.9992
10.9953
10.9935
10.9929
10.9899
10.9814
10.9626
10.9359
10.9056
10.8797
1
1
1
1
1
1
1
1
1
1
1
1
1
1
1
1
1
1
1
1
1
1
1
1
1
1
1
1
1
1
1
1
1
1
1
1
1
1
1
1
1
1
1
1
1
1
1
1
1
1
1.06181
6.45302
10.206
10.2255
10.2415
10.278
10.3148
10.3516
10.3862
10.4203
10.4537
10.4853
10.5141
10.5414
10.5693
10.5988
10.6294
10.6576
10.68
10.6991
10.7159
10.7305
10.7436
10.7562
10.7693
10.7814
10.791
10.7979
10.8022
10.8032
10.802
10.7984
10.7912
10.7797
10.7623
10.7392
10.7118
10.6816
10.6484
10.6118
10.5713
10.5273
10.4858
10.4441
10.4181
10.4021
1
1
1
1
1
1
1
1
1
1
1
1
1
1
1
1
1
1
1
1
1
1
1
1
1
1
1
1
1
1
1
1
1
1
1
1
1
1
1
1
1
1
1
1
1
1
1
1
1
1
1.00009
3.34426
9.24378
10.0426
10.0802
10.1423
10.1929
10.2384
10.277
10.3123
10.3456
10.3764
10.4036
10.4281
10.4522
10.4765
10.5003
10.5224
10.5401
10.5546
10.5692
10.5816
10.5897
10.5935
10.5958
10.597
10.5975
10.5952
10.5896
10.5806
10.5676
10.5504
10.5277
10.4982
10.4603
10.4141
10.3611
10.303
10.2409
10.176
10.1087
10.0396
9.95435
9.86971
9.75071
9.83418
1
1
1
1
1
1
1
1
1
1
1
1
1
1
1
1
1
1
1
1
1
1
1
1
1
1
1
1
1
1
1
1
1
1
1
1
1
1
1
1
1
1
1
1
1
1
1
1
1
1
1
1.23395
7.25298
10.113
10.0827
10.1039
10.1426
10.1809
10.2143
10.2425
10.2678
10.2912
10.3126
10.3315
10.3491
10.3662
10.3817
10.3958
10.4074
10.4161
10.4259
10.4357
10.4405
10.438
10.4317
10.4226
10.4122
10.3994
10.3833
10.3628
10.3371
10.3054
10.2662
10.2173
10.1569
10.0841
9.99813
9.89831
9.77909
9.63525
9.44777
9.20001
8.82608
8.27091
7.34199
5.44187
1
1
1
1
1
1
1
1
1
1
1
1
1
1
1
1
1
1
1
1
1
1
1
1
1
1
1
1
1
1
1
1
1
1
1
1
1
1
1
1
1
1
1
1
1
1
1
1
1
1
1
1.002
4.61083
9.67244
9.91733
9.96086
10.0123
10.0554
10.0947
10.1277
10.1559
10.1817
10.2046
10.2239
10.24
10.2543
10.2672
10.278
10.2863
10.2909
10.2935
10.2977
10.2987
10.292
10.281
10.266
10.2474
10.2252
10.1989
10.1673
10.1295
10.0846
10.0305
9.9646
9.88319
9.78531
9.66638
9.52679
9.35382
9.14437
8.86606
8.50983
7.99834
7.32968
6.11696
4.51168
1
1
1
1
1
1
1
1
1
1
1
1
1
1
1
1
1
1
1
1
1
1
1
1
1
1
1
1
1
1
1
1
1
1
1
1
1
1
1
1
1
1
1
1
1
1
1
1
1
1
1
0.999996
1.91735
8.20371
9.9187
9.9139
9.95625
9.98994
10.0234
10.0528
10.0772
10.0997
10.12
10.1363
10.1488
10.1574
10.164
10.1705
10.1754
10.1768
10.1735
10.1694
10.1626
10.1492
10.1307
10.1078
10.0803
10.0486
10.0119
9.96857
9.91709
9.85761
9.78756
9.70519
9.60383
9.48282
9.33389
9.15858
8.9438
8.68495
8.35758
7.93736
7.40682
6.64581
5.65475
4.54492
1
1
1
1
1
1
1
1
1
1
1
1
1
1
1
1
1
1
1
1
1
1
1
1
1
1
1
1
1
1
1
1
1
1
1
1
1
1
1
1
1
1
1
1
1
1
1
1
1
1
1
0.999999
1.03017
5.35806
9.76669
9.85231
9.88551
9.91229
9.94142
9.96831
9.98967
10.0092
10.0277
10.0437
10.0533
10.0563
10.0546
10.0528
10.0518
10.0502
10.0451
10.0367
10.0237
10.0032
9.97558
9.94313
9.90661
9.86674
9.82129
9.76831
9.70421
9.6302
9.54356
9.44459
9.3265
9.18766
9.0192
8.81908
8.57868
8.29035
7.94176
7.51014
6.98337
6.32379
5.5474
4.73591
1
1
1
1
1
1
1
1
1
1
1
1
1
1
1
1
1
1
1
1
1
1
1
1
1
1
1
1
1
1
1
1
1
1
1
1
1
1
1
1
1
1
1
1
1
1
1
1
1
1
1
1
1
2.20333
8.43947
9.79473
9.80871
9.8406
9.86538
9.88883
9.90641
9.92166
9.93589
9.94957
9.95652
9.9581
9.95246
9.94189
9.93134
9.92392
9.91734
9.9075
9.89078
9.86332
9.82621
9.78298
9.73626
9.68797
9.63465
9.57415
9.50045
9.41389
9.31186
9.19608
9.06328
8.91112
8.73295
8.52242
8.27259
7.97522
7.63117
7.21161
6.73111
6.18066
5.57398
4.92995
1
1
1
1
1
1
1
1
1
1
1
1
1
1
1
1
1
1
1
1
1
1
1
1
1
1
1
1
1
1
1
1
1
1
1
1
1
1
1
1
1
1
1
1
1
1
1
1
1
1
1
1
0.999999
1.04739
5.50113
9.67139
9.74694
9.77022
9.78895
9.80943
9.82405
9.83419
9.84251
9.85167
9.8557
9.85777
9.85331
9.83725
9.81756
9.80199
9.79006
9.7766
9.7564
9.72394
9.68005
9.62842
9.57149
9.51332
9.45146
9.38423
9.30491
9.21101
9.09864
8.96893
8.82222
8.65844
8.47468
8.2639
8.02001
7.72984
7.40734
7.01379
6.59165
6.13034
5.64129
5.11125
1
1
1
1
1
1
1
1
1
1
1
1
1
1
1
1
1
1
1
1
1
1
1
1
1
1
1
1
1
1
1
1
1
1
1
1
1
1
1
1
1
1
1
1
1
1
1
1
1
1
1
1
1
1.00004
2.07989
8.26158
9.67841
9.69136
9.7116
9.72658
9.73448
9.73576
9.73487
9.73609
9.73378
9.73326
9.73279
9.72062
9.70099
9.68269
9.66532
9.64553
9.61932
9.58127
9.53195
9.4751
9.41114
9.34473
9.27502
9.2006
9.11692
9.01982
8.90419
8.76839
8.61283
8.44078
8.25273
8.04447
7.81244
7.5388
7.24083
6.88849
6.52499
6.12968
5.70929
5.25444
1
1
1
1
1
1
1
1
1
1
1
1
1
1
1
1
1
1
1
1
1
1
1
1
1
1
1
1
1
1
1
1
1
1
1
1
1
1
1
1
1
1
1
1
1
1
1
1
1
1
1
1
1
1
1.036
4.95518
9.37383
9.59916
9.61921
9.64276
9.65593
9.66006
9.65674
9.65034
9.63987
9.63185
9.62636
9.614
9.59382
9.57224
9.54851
9.52144
9.48785
9.44501
9.39155
9.33137
9.26293
9.18982
9.11216
9.02917
8.93916
8.83896
8.72399
8.58947
8.43262
8.25771
8.06782
7.86079
7.63794
7.38469
7.10863
6.8051
6.49048
6.13741
5.77352
5.38925
1
1
1
1
1
1
1
1
1
1
1
1
1
1
1
1
1
1
1
1
1
1
1
1
1
1
1
1
1
1
1
1
1
1
1
1
1
1
1
1
1
1
1
1
1
1
1
1
1
1
1
1
1
1
1.00003
1.55299
7.61428
9.62237
9.58876
9.5802
9.57642
9.57324
9.56615
9.5531
9.53565
9.52133
9.51051
9.49812
9.47934
9.45561
9.42614
9.393
9.35292
9.30562
9.2497
9.18804
9.11754
9.04156
8.95947
8.87004
8.77305
8.66818
8.55412
8.42506
8.27512
8.10553
7.92137
7.71592
7.5002
7.2622
7.00754
6.74661
6.46057
6.14475
5.83766
5.50591
1
1
1
1
1
1
1
1
1
1
1
1
1
1
1
1
1
1
1
1
1
1
1
1
1
1
1
1
1
1
1
1
1
1
1
1
1
1
1
1
1
1
1
1
1
1
1
1
1
1
1
1
1
1
1
1.00907
3.92579
8.96244
9.40852
9.44081
9.46828
9.47024
9.47063
9.45815
9.43695
9.41481
9.39638
9.37936
9.35967
9.33505
9.30348
9.26905
9.22489
9.17285
9.11553
9.05364
8.98188
8.90485
8.82087
8.72819
8.62549
8.51489
8.39782
8.27143
8.13075
7.97032
7.79789
7.59928
7.39312
7.17
6.9372
6.69807
6.43091
6.15822
5.89453
5.59593
1
1
1
1
1
1
1
1
1
1
1
1
1
1
1
1
1
1
1
1
1
1
1
1
1
1
1
1
1
1
1
1
1
1
1
1
1
1
1
1
1
1
1
1
1
1
1
1
1
1
1
1
1
1
1
1
1.22747
6.27075
9.33474
9.3805
9.38882
9.38078
9.38287
9.37479
9.35387
9.32658
9.30029
9.27517
9.25068
9.22314
9.18897
9.15413
9.10774
9.05192
8.9932
8.93009
8.85649
8.77738
8.69161
8.59774
8.49377
8.3796
8.25971
8.1328
7.99891
7.8464
7.68617
7.50129
7.30923
7.10482
6.88661
6.65907
6.41775
6.18053
5.93317
5.66096
1
1
1
1
1
1
1
1
1
1
1
1
1
1
1
1
1
1
1
1
1
1
1
1
1
1
1
1
1
1
1
1
1
1
1
1
1
1
1
1
1
1
1
1
1
1
1
1
1
1
1
1
1
1
1
1
1.00158
2.18297
8.00227
9.31276
9.25196
9.26446
9.27014
9.27038
9.25754
9.23379
9.20555
9.17469
9.1442
9.11251
9.07511
9.03896
8.99307
8.93551
8.87434
8.80967
8.73488
8.65453
8.56718
8.4735
8.3721
8.2576
8.14213
8.01155
7.87844
7.73169
7.58031
7.41074
7.23576
7.04944
6.84401
6.63496
6.42076
6.19862
5.96236
5.72544
1
1
1
1
1
1
1
1
1
1
1
1
1
1
1
1
1
1
1
1
1
1
1
1
1
1
1
1
1
1
1
1
1
1
1
1
1
1
1
1
1
1
1
1
1
1
1
1
1
1
1
1
1
1
1
1
1
1.03978
4.17522
8.88409
9.15403
9.16636
9.18392
9.18162
9.16961
9.14702
9.11907
9.0863
9.05201
9.01576
8.97431
8.93347
8.88898
8.82967
8.76666
8.6999
8.62465
8.54322
8.45489
8.36186
8.26394
8.15212
8.03548
7.90858
7.77645
7.63495
7.48921
7.33072
7.16998
6.99689
6.80745
6.61961
6.42277
6.20912
5.99951
5.79285
1
1
1
1
1
1
1
1
1
1
1
1
1
1
1
1
1
1
1
1
1
1
1
1
1
1
1
1
1
1
1
1
1
1
1
1
1
1
1
1
1
1
1
1
1
1
1
1
1
1
1
1
1
1
1
1
1
1.00008
1.25823
5.72076
9.01806
9.16218
9.13286
9.12448
9.10687
9.07784
9.04475
9.00944
8.9715
8.93085
8.88449
8.83831
8.7924
8.73273
8.66824
8.5999
8.52479
8.44218
8.35282
8.26065
8.16305
8.05406
7.93933
7.81699
7.68848
7.55263
7.41242
7.26376
7.11227
6.94977
6.7765
6.60402
6.41955
6.22514
6.04497
5.85845
1
1
1
1
1
1
1
1
1
1
1
1
1
1
1
1
1
1
1
1
1
1
1
1
1
1
1
1
1
1
1
1
1
1
1
1
1
1
1
1
1
1
1
1
1
1
1
1
1
1
1
1
1
1
1
1
1
1
1.0021
1.62069
7.27734
9.16503
9.09547
9.0627
9.02218
8.98578
8.95103
8.91606
8.88086
8.84066
8.79232
8.74424
8.69519
8.63567
8.57042
8.50168
8.42976
8.34892
8.26178
8.17137
8.07374
7.96697
7.85472
7.73738
7.61448
7.48535
7.35274
7.21546
7.07
6.91719
6.75633
6.59463
6.42516
6.25426
6.09767
5.92694
1
1
1
1
1
1
1
1
1
1
1
1
1
1
1
1
1
1
1
1
1
1
1
1
1
1
1
1
1
1
1
1
1
1
1
1
1
1
1
1
1
1
1
1
1
1
1
1
1
1
1
1
1
1
1
1
1
1
1
1.01107
3.06113
8.31878
8.95445
8.89247
8.86597
8.84503
8.82648
8.80301
8.77467
8.74064
8.69612
8.6512
8.60046
8.54201
8.4786
8.40949
8.3379
8.26035
8.17671
8.08773
7.99243
7.88894
7.77999
7.66738
7.55042
7.42828
7.30503
7.17891
7.03971
6.89719
6.75098
6.60216
6.45086
6.3036
6.16561
6.01195
1
1
1
1
1
1
1
1
1
1
1
1
1
1
1
1
1
1
1
1
1
1
1
1
1
1
1
1
1
1
1
1
1
1
1
1
1
1
1
1
1
1
1
1
1
1
1
1
1
1
1
1
1
1
1
1
1
1
1
1.00001
1.11077
4.37649
8.60534
8.79237
8.76738
8.76854
8.75709
8.73656
8.70907
8.67512
8.6318
8.58482
8.5296
8.46736
8.40123
8.33154
8.25666
8.18044
8.09854
8.0128
7.91984
7.82103
7.71692
7.60993
7.50052
7.38769
7.27371
7.15545
7.02458
6.89767
6.77118
6.64028
6.51116
6.38499
6.2646
6.12956
1
1
1
1
1
1
1
1
1
1
1
1
1
1
1
1
1
1
1
1
1
1
1
1
1
1
1
1
1
1
1
1
1
1
1
1
1
1
1
1
1
1
1
1
1
1
1
1
1
1
1
1
1
1
1
1
1
1
1
1
1.00052
1.29644
5.20963
8.59272
8.71735
8.71522
8.70425
8.67922
8.6495
8.61284
8.56865
8.51809
8.4604
8.39721
8.32949
8.25887
8.18372
8.10339
8.02303
7.94093
7.85223
7.75911
7.66318
7.56456
7.46277
7.35957
7.25536
7.14771
7.03577
6.93413
6.82903
6.71847
6.61397
6.50701
6.39956
6.27804
1
1
1
1
1
1
1
1
1
1
1
1
1
1
1
1
1
1
1
1
1
1
1
1
1
1
1
1
1
1
1
1
1
1
1
1
1
1
1
1
1
1
1
1
1
1
1
1
1
1
1
1
1
1
1
1
1
1
1
1
1
1.00286
1.49556
5.88849
8.58886
8.69012
8.65843
8.62704
8.59189
8.55063
8.50562
8.4555
8.39871
8.3356
8.2675
8.19532
8.11964
8.03951
7.95845
7.87872
7.79549
7.7089
7.62016
7.53004
7.43898
7.35134
7.26583
7.18287
7.09865
7.02038
6.93444
6.84176
6.75399
6.65553
6.55183
6.4371
1
1
1
1
1
1
1
1
1
1
1
1
1
1
1
1
1
1
1
1
1
1
1
1
1
1
1
1
1
1
1
1
1
1
1
1
1
1
1
1
1
1
1
1
1
1
1
1
1
1
1
1
1
1
1
1
1
1
1
1
1
1
1.00734
1.72534
6.46321
8.56606
8.61011
8.5777
8.53486
8.49076
8.44239
8.39038
8.33321
8.27167
8.20488
8.13331
8.05785
7.98014
7.90202
7.82511
7.74716
7.66833
7.59145
7.51929
7.45286
7.39485
7.33704
7.27741
7.21494
7.15018
7.07023
6.98466
6.90152
6.80203
6.69839
6.58928
1
1
1
1
1
1
1
1
1
1
1
1
1
1
1
1
1
1
1
1
1
1
1
1
1
1
1
1
1
1
1
1
1
1
1
1
1
1
1
1
1
1
1
1
1
1
1
1
1
1
1
1
1
1
1
1
1
1
1
1
1
1
1.00001
1.01487
1.98677
6.89849
8.53671
8.54068
8.49961
8.44589
8.39309
8.33582
8.27367
8.21042
8.14386
8.07325
8.00079
7.92733
7.85598
7.78422
7.71662
7.65693
7.60737
7.56616
7.53245
7.50095
7.4592
7.41433
7.35869
7.29232
7.21053
7.12599
7.0412
6.93946
6.83932
6.7375
1
1
1
1
1
1
1
1
1
1
1
1
1
1
1
1
1
1
1
1
1
1
1
1
1
1
1
1
1
1
1
1
1
1
1
1
1
1
1
1
1
1
1
1
1
1
1
1
1
1
1
1
1
1
1
1
1
1
1
1
1
1
1
1.00004
1.02662
2.24591
7.28891
8.49891
8.45314
8.40195
8.33737
8.27578
8.21218
8.14716
8.08017
8.01178
7.9438
7.87764
7.8155
7.76241
7.72562
7.70366
7.69239
7.67988
7.66981
7.65245
7.6125
7.56812
7.50639
7.43005
7.34641
7.26111
7.1731
7.07284
6.98024
6.88575
1
1
1
1
1
1
1
1
1
1
1
1
1
1
1
1
1
1
1
1
1
1
1
1
1
1
1
1
1
1
1
1
1
1
1
1
1
1
1
1
1
1
1
1
1
1
1
1
1
1
1
1
1
1
1
1
1
1
1
1
1
1
1
1
1.00008
1.04179
2.65087
7.5269
8.38256
8.32557
8.28027
8.2174
8.15184
8.08671
8.02
7.95564
7.89349
7.84246
7.81227
7.80403
7.81574
7.83413
7.85275
7.85872
7.85382
7.82381
7.77016
7.71659
7.64438
7.56018
7.48002
7.39535
7.30649
7.21214
7.12683
7.03706
1
1
1
1
1
1
1
1
1
1
1
1
1
1
1
1
1
1
1
1
1
1
1
1
1
1
1
1
1
1
1
1
1
1
1
1
1
1
1
1
1
1
1
1
1
1
1
1
1
1
1
1
1
1
1
1
1
1
1
1
1
1
1
1
1
1.00015
1.07212
2.93925
7.57228
8.26522
8.21038
8.15277
8.09542
8.03266
7.97062
7.91436
7.88198
7.86929
7.89223
7.94733
8.00156
8.04499
8.06813
8.06491
8.03585
7.98183
7.91453
7.85199
7.77081
7.68486
7.6119
7.52932
7.44349
7.35749
7.27677
7.18999
1
1
1
1
1
1
1
1
1
1
1
1
1
1
1
1
1
1
1
1
1
1
1
1
1
1
1
1
1
1
1
1
1
1
1
1
1
1
1
1
1
1
1
1
1
1
1
1
1
1
1
1
1
1
1
1
1
1
1
1
1
1
1
1
1
1
1.00034
1.10044
3.0323
7.49444
8.15403
8.10157
8.04783
7.98518
7.93832
7.91346
7.92717
8.00056
8.09146
8.18855
8.25246
8.28414
8.28138
8.24762
8.19213
8.12093
8.05285
7.98612
7.90065
7.81854
7.75149
7.66966
7.58593
7.5049
7.42583
7.34128
1
1
1
1
1
1
1
1
1
1
1
1
1
1
1
1
1
1
1
1
1
1
1
1
1
1
1
1
1
1
1
1
1
1
1
1
1
1
1
1
1
1
1
1
1
1
1
1
1
1
1
1
1
1
1
1
1
1
1
1
1
1
1
1
1
1
1
1.00058
1.11265
2.96923
7.36225
8.06683
8.01477
7.96492
7.94963
8.00011
8.11062
8.26494
8.39329
8.48051
8.51761
8.50665
8.46491
8.40685
8.33057
8.2522
8.18612
8.11694
8.03186
7.9584
7.89668
7.81641
7.73402
7.65535
7.57695
7.49358
1
1
1
1
1
1
1
1
1
1
1
1
1
1
1
1
1
1
1
1
1
1
1
1
1
1
1
1
1
1
1
1
1
1
1
1
1
1
1
1
1
1
1
1
1
1
1
1
1
1
1
1
1
1
1
1
1
1
1
1
1
1
1
1
1
1
1
1
1.00071
1.10756
2.88397
7.17722
7.96307
7.97097
8.06206
8.25986
8.46965
8.6295
8.714
8.74541
8.72283
8.67172
8.61573
8.54707
8.46682
8.39508
8.33404
8.26249
8.17542
8.10299
8.0407
7.96034
7.87905
7.80355
7.72744
7.646
1
1
1
1
1
1
1
1
1
1
1
1
1
1
1
1
1
1
1
1
1
1
1
1
1
1
1
1
1
1
1
1
1
1
1
1
1
1
1
1
1
1
1
1
1
1
1
1
1
1
1
1
1
1
1
1
1
1
1
1
1
1
1
1
1
1
1
1
1
1.00067
1.0987
2.74164
6.90062
8.10584
8.47456
8.71777
8.89936
8.9706
8.98503
8.93968
8.86686
8.80121
8.74111
8.66714
8.59057
8.53398
8.48086
8.40693
8.32115
8.25579
8.1959
8.11449
8.03
7.95401
7.87747
7.79643
1
1
1
1
1
1
1
1
1
1
1
1
1
1
1
1
1
1
1
1
1
1
1
1
1
1
1
1
1
1
1
1
1
1
1
1
1
1
1
1
1
1
1
1
1
1
1
1
1
1
1
1
1
1
1
1
1
1
1
1
1
1
1
1
1
1
1
1
1
1
1.00059
1.08424
2.51598
7.48638
9.03442
9.1585
9.19705
9.18705
9.15186
9.08311
9.0056
8.94496
8.88494
8.8055
8.72992
8.67825
8.62403
8.54168
8.45713
8.40134
8.34474
8.25955
8.17284
8.10396
8.03334
7.95436
1
1
1
1
1
1
1
1
1
1
1
1
1
1
1
1
1
1
1
1
1
1
1
1
1
1
1
1
1
1
1
1
1
1
1
1
1
1
1
1
1
1
1
1
1
1
1
1
1
1
1
1
1
1
1
1
1
1
1
1
1
1
1
1
1
1
1
1
1
1
1
1.00051
1.06324
3.92933
9.15482
9.51422
9.45372
9.37651
9.29425
9.20297
9.12292
9.06691
9.00974
8.93582
8.87251
8.82792
8.7746
8.69188
8.61314
8.55795
8.4945
8.39853
8.30838
8.2494
8.18622
8.10516
1
1
1
1
1
1
1
1
1
1
1
1
1
1
1
1
1
1
1
1
1
1
1
1
1
1
1
1
1
1
1
1
1
1
1
1
1
1
1
1
1
1
1
1
1
1
1
1
1
1
1
1
1
1
1
1
1
1
1
1
1
1
1
1
1
1
1
1
1
1
1
1
1.00024
1.21542
7.03895
9.86935
9.57145
9.45782
9.3753
9.30874
9.25476
9.20495
9.14347
9.07317
9.01275
8.96418
8.90263
8.82061
8.75395
8.70426
8.64044
8.54636
8.4635
8.40954
8.34363
8.25406
1
1
1
1
1
1
1
1
1
1
1
1
1
1
1
1
1
1
1
1
1
1
1
1
1
1
1
1
1
1
1
1
1
1
1
1
1
1
1
1
1
1
1
1
1
1
1
1
1
1
1
1
1
1
1
1
1
1
1
1
1
1
1
1
1
1
1
1
1
1
1
1
1
1.00132
3.26657
8.8539
9.52111
9.49701
9.47732
9.43843
9.38921
9.33133
9.27538
9.22117
9.16574
9.1075
9.03763
8.96342
8.90089
8.84868
8.77805
8.68311
8.60696
8.55412
8.48639
8.40383
1
1
1
1
1
1
1
1
1
1
1
1
1
1
1
1
1
1
1
1
1
1
1
1
1
1
1
1
1
1
1
1
1
1
1
1
1
1
1
1
1
1
1
1
1
1
1
1
1
1
1
1
1
1
1
1
1
1
1
1
1
1
1
1
1
1
1
1
1
1
1
1
1
1
1.13746
6.55405
9.73195
9.70872
9.64275
9.58367
9.52721
9.47282
9.41857
9.35948
9.29548
9.22831
9.16233
9.10246
9.04272
8.98176
8.9058
8.82111
8.75261
8.69704
8.62478
8.54421
1
1
1
1
1
1
1
1
1
1
1
1
1
1
1
1
1
1
1
1
1
1
1
1
1
1
1
1
1
1
1
1
1
1
1
1
1
1
1
1
1
1
1
1
1
1
1
1
1
1
1
1
1
1
1
1
1
1
1
1
1
1
1
1
1
1
1
1
1
1
1
1
1
1
1.00053
3.08065
8.80931
9.69404
9.66838
9.62393
9.58311
9.54133
9.49624
9.44599
9.39073
9.33386
9.27508
9.21377
9.15027
9.08567
9.01862
8.95522
8.89776
8.83516
8.76079
8.68653
1
1
1
1
1
1
1
1
1
1
1
1
1
1
1
1
1
1
1
1
1
1
1
1
1
1
1
1
1
1
1
1
1
1
1
1
1
1
1
1
1
1
1
1
1
1
1
1
1
1
1
1
1
1
1
1
1
1
1
1
1
1
1
1
1
1
1
1
1
1
1
1
1
1
1
1.12842
6.72613
9.81218
9.81029
9.73713
9.6881
9.63696
9.58531
9.53483
9.48347
9.43174
9.37881
9.32414
9.26917
9.21086
9.14999
9.08745
9.02336
8.95335
8.88333
8.81944
1
1
1
1
1
1
1
1
1
1
1
1
1
1
1
1
1
1
1
1
1
1
1
1
1
1
1
1
1
1
1
1
1
1
1
1
1
1
1
1
1
1
1
1
1
1
1
1
1
1
1
1
1
1
1
1
1
1
1
1
1
1
1
1
1
1
1
1
1
1
1
1
1
1
1
1.00044
3.52687
9.14577
9.80837
9.75854
9.71973
9.67827
9.63588
9.59265
9.54764
9.50122
9.45331
9.40361
9.35261
9.29986
9.24383
9.18528
9.12376
9.06077
8.99843
8.93577
1
1
1
1
1
1
1
1
1
1
1
1
1
1
1
1
1
1
1
1
1
1
1
1
1
1
1
1
1
1
1
1
1
1
1
1
1
1
1
1
1
1
1
1
1
1
1
1
1
1
1
1
1
1
1
1
1
1
1
1
1
1
1
1
1
1
1
1
1
1
1
1
1
1
1
1
1.30778
7.56038
9.98971
9.86451
9.79703
9.74961
9.70739
9.6664
9.62479
9.58181
9.53662
9.48865
9.43597
9.38018
9.32475
9.26835
9.20999
9.15189
9.09331
9.03363
1
1
1
1
1
1
1
1
1
1
1
1
1
1
1
1
1
1
1
1
1
1
1
1
1
1
1
1
1
1
1
1
1
1
1
1
1
1
1
1
1
1
1
1
1
1
1
1
1
1
1
1
1
1
1
1
1
1
1
1
1
1
1
1
1
1
1
1
1
1
1
1
1
1
1
1
1.00277
4.93278
9.66835
9.87312
9.83804
9.80675
9.76654
9.72464
9.68007
9.63323
9.58457
9.53441
9.4833
9.43184
9.38018
9.32839
9.27633
9.22406
9.17102
9.11642
1
1
1
1
1
1
1
1
1
1
1
1
1
1
1
1
1
1
1
1
1
1
1
1
1
1
1
1
1
1
1
1
1
1
1
1
1
1
1
1
1
1
1
1
1
1
1
1
1
1
1
1
1
1
1
1
1
1
1
1
1
1
1
1
1
1
1
1
1
1
1
1
1
1
1
1
0.999998
2.38844
8.69089
10.033
9.9453
9.89516
9.84418
9.79518
9.74559
9.69641
9.64775
9.59951
9.55143
9.50438
9.45679
9.40849
9.36015
9.31081
9.26026
9.20801
1
1
1
1
1
1
1
1
1
1
1
1
1
1
1
1
1
1
1
1
1
1
1
1
1
1
1
1
1
1
1
1
1
1
1
1
1
1
1
1
1
1
1
1
1
1
1
1
1
1
1
1
1
1
1
1
1
1
1
1
1
1
1
1
1
1
1
1
1
1
1
1
1
1
1
1
1
1.07046
6.72779
10.0429
10.0275
9.94691
9.89649
9.84489
9.79492
9.74657
9.69936
9.65254
9.60548
9.55861
9.5108
9.46214
9.41331
9.36316
9.31228
9.25998
1
1
1
1
1
1
1
1
1
1
1
1
1
1
1
1
1
1
1
1
1
1
1
1
1
1
1
1
1
1
1
1
1
1
1
1
1
1
1
1
1
1
1
1
1
1
1
1
1
1
1
1
1
1
1
1
1
1
1
1
1
1
1
1
1
1
1
1
1
1
1
1
1
1
1
1
1
1.0001
4.33414
9.59822
9.97796
9.93225
9.90339
9.86381
9.82438
9.7836
9.74178
9.69883
9.65462
9.60933
9.56273
9.51502
9.46669
9.41696
9.3666
9.3154
1
1
1
1
1
1
1
1
1
1
1
1
1
1
1
1
1
1
1
1
1
1
1
1
1
1
1
1
1
1
1
1
1
1
1
1
1
1
1
1
1
1
1
1
1
1
1
1
1
1
1
1
1
1
1
1
1
1
1
1
1
1
1
1
1
1
1
1
1
1
1
1
1
1
1
1
1
1
2.25776
8.61209
10.1528
10.0613
10.0097
9.95942
9.91437
9.86855
9.82202
9.77473
9.72681
9.67813
9.62886
9.57908
9.52876
9.47765
9.42615
9.37424
1
1
1
1
1
1
1
1
1
1
1
1
1
1
1
1
1
1
1
1
1
1
1
1
1
1
1
1
1
1
1
1
1
1
1
1
1
1
1
1
1
1
1
1
1
1
1
1
1
1
1
1
1
1
1
1
1
1
1
1
1
1
1
1
1
1
1
1
1
1
1
1
1
1
1
1
1
1
1.06571
6.93592
10.1877
10.1123
10.0426
9.99249
9.94791
9.90372
9.85857
9.81235
9.76534
9.71759
9.66923
9.62041
9.57091
9.52076
9.47014
9.41909
1
1
1
1
1
1
1
1
1
1
1
1
1
1
1
1
1
1
1
1
1
1
1
1
1
1
1
1
1
1
1
1
1
1
1
1
1
1
1
1
1
1
1
1
1
1
1
1
1
1
1
1
1
1
1
1
1
1
1
1
1
1
1
1
1
1
1
1
1
1
1
1
1
1
1
1
1
1
1.00009
4.99946
9.88988
10.09
10.0598
10.0288
9.98806
9.94432
9.89877
9.85243
9.80545
9.75801
9.71
9.66159
9.61252
9.56282
9.51267
9.46197
1
1
1
1
1
1
1
1
1
1
1
1
1
1
1
1
1
1
1
1
1
1
1
1
1
1
1
1
1
1
1
1
1
1
1
1
1
1
1
1
1
1
1
1
1
1
1
1
1
1
1
1
1
1
1
1
1
1
1
1
1
1
1
1
1
1
1
1
1
1
1
1
1
1
1
1
1
1
1
3.13057
9.22724
10.1538
10.0904
10.0558
10.0122
9.96776
9.92245
9.8768
9.83072
9.78459
9.73782
9.69093
9.64351
9.59558
9.5473
9.49822
1
1
1
1
1
1
1
1
1
1
1
1
1
1
1
1
1
1
1
1
1
1
1
1
1
1
1
1
1
1
1
1
1
1
1
1
1
1
1
1
1
1
1
1
1
1
1
1
1
1
1
1
1
1
1
1
1
1
1
1
1
1
1
1
1
1
1
1
1
1
1
1
1
1
1
1
1
1
1
1.75497
8.24798
10.2778
10.1771
10.1246
10.0716
10.0221
9.97403
9.92689
9.88035
9.83421
9.78772
9.74116
9.6942
9.64663
9.59866
9.54978
1
1
1
1
1
1
1
1
1
1
1
1
1
1
1
1
1
1
1
1
1
1
1
1
1
1
1
1
1
1
1
1
1
1
1
1
1
1
1
1
1
1
1
1
1
1
1
1
1
1
1
1
1
1
1
1
1
1
1
1
1
1
1
1
1
1
1
1
1
1
1
1
1
1
1
1
1
1
1
1.02747
6.83008
10.2853
10.2134
10.1461
10.0917
10.0431
9.99687
9.95181
9.90704
9.86235
9.81718
9.77165
9.72568
9.67909
9.63209
9.58416
1
1
1
1
1
1
1
1
1
1
1
1
1
1
1
1
1
1
1
1
1
1
1
1
1
1
1
1
1
1
1
1
1
1
1
1
1
1
1
1
1
1
1
1
1
1
1
1
1
1
1
1
1
1
1
1
1
1
1
1
1
1
1
1
1
1
1
1
1
1
1
1
1
1
1
1
1
1
1
1.00002
5.281
10.0255
10.1662
10.1269
10.0973
10.0594
10.0193
9.97739
9.93377
9.88958
9.84482
9.79959
9.75388
9.70773
9.66126
9.61414
1
1
1
1
1
1
1
1
1
1
1
1
1
1
1
1
1
1
1
1
1
1
1
1
1
1
1
1
1
1
1
1
1
1
1
1
1
1
1
1
1
1
1
1
1
1
1
1
1
1
1
1
1
1
1
1
1
1
1
1
1
1
1
1
1
1
1
1
1
1
1
1
1
1
1
1
1
1
1
1
3.85731
9.61647
10.1941
10.145
10.1213
10.0857
10.0486
10.0084
9.96545
9.9213
9.87647
9.83104
9.78514
9.73893
9.69248
9.64561
1
1
1
1
1
1
1
1
1
1
1
1
1
1
1
1
1
1
1
1
1
1
1
1
1
1
1
1
1
1
1
1
1
1
1
1
1
1
1
1
1
1
1
1
1
1
1
1
1
1
1
1
1
1
1
1
1
1
1
1
1
1
1
1
1
1
1
1
1
1
1
1
1
1
1
1
1
1
1
1
2.63215
9.02841
10.2569
10.1863
10.1527
10.1095
10.067
10.0235
9.97951
9.93506
9.89042
9.84569
9.80073
9.75533
9.70969
9.66401
1
1
1
1
1
1
1
1
1
1
1
1
1
1
1
1
1
1
1
1
1
1
1
1
1
1
1
1
1
1
1
1
1
1
1
1
1
1
1
1
1
1
1
1
1
1
1
1
1
1
1
1
1
1
1
1
1
1
1
1
1
1
1
1
1
1
1
1
1
1
1
1
1
1
1
1
1
1
1
1
1.70534
8.21446
10.3253
10.2383
10.1903
10.1419
10.0965
10.0524
10.0094
9.9664
9.92333
9.8799
9.83605
9.79155
9.74667
9.70138
1
1
1
1
1
1
1
1
1
1
1
1
1
1
1
1
1
1
1
1
1
1
1
1
1
1
1
1
1
1
1
1
1
1
1
1
1
1
1
1
1
1
1
1
1
1
1
1
1
1
1
1
1
1
1
1
1
1
1
1
1
1
1
1
1
1
1
1
1
1
1
1
1
1
1
1
1
1
1
1
1.17911
7.2667
10.3604
10.2724
10.208
10.1552
10.1082
10.0648
10.0228
9.9807
9.93825
9.89573
9.85291
9.80918
9.7651
9.72058
1
1
1
1
1
1
1
1
1
1
1
1
1
1
1
1
1
1
1
1
1
1
1
1
1
1
1
1
1
1
1
1
1
1
1
1
1
1
1
1
1
1
1
1
1
1
1
1
1
1
1
1
1
1
1
1
1
1
1
1
1
1
1
1
1
1
1
1
1
1
1
1
1
1
1
1
1
1
1
1
1.00241
6.27101
10.2391
10.2594
10.2019
10.164
10.1233
10.0827
10.0415
9.99958
9.95691
9.91433
9.87147
9.82775
9.7837
9.73928
1
1
1
1
1
1
1
1
1
1
1
1
1
1
1
1
1
1
1
1
1
1
1
1
1
1
1
1
1
1
1
1
1
1
1
1
1
1
1
1
1
1
1
1
1
1
1
1
1
1
1
1
1
1
1
1
1
1
1
1
1
1
1
1
1
1
1
1
1
1
1
1
1
1
1
1
1
1
1
1
1
5.29494
10.0793
10.2528
10.201
10.1717
10.134
10.0955
10.0553
10.0146
9.97274
9.93107
9.88867
9.84546
9.80162
9.75748
1
1
1
1
1
1
1
1
1
1
1
1
1
1
1
1
1
1
1
1
1
1
1
1
1
1
1
1
1
1
1
1
1
1
1
1
1
1
1
1
1
1
1
1
1
1
1
1
1
1
1
1
1
1
1
1
1
1
1
1
1
1
1
1
1
1
1
1
1
1
1
1
1
1
1
1
1
1
1
1
1
4.38107
9.88092
10.2789
10.2215
10.1931
10.1554
10.1175
10.0775
10.037
9.99515
9.95331
9.91028
9.86691
9.82271
9.77815
1
1
1
1
1
1
1
1
1
1
1
1
1
1
1
1
1
1
1
1
1
1
1
1
1
1
1
1
1
1
1
1
1
1
1
1
1
1
1
1
1
1
1
1
1
1
1
1
1
1
1
1
1
1
1
1
1
1
1
1
1
1
1
1
1
1
1
1
1
1
1
1
1
1
1
1
1
1
1
1
1
3.60577
9.6199
10.3078
10.2358
10.2037
10.1653
10.1279
10.0887
10.0491
10.0079
9.96666
9.92408
9.88137
9.83763
9.79343
1
1
1
1
1
1
1
1
1
1
1
1
1
1
1
1
1
1
1
1
1
1
1
1
1
1
1
1
1
1
1
1
1
1
1
1
1
1
1
1
1
1
1
1
1
1
1
1
1
1
1
1
1
1
1
1
1
1
1
1
1
1
1
1
1
1
1
1
1
1
1
1
1
1
1
1
1
1
1
1
1
2.94711
9.37057
10.3319
10.2524
10.2176
10.1774
10.1386
10.0985
10.0584
10.0172
9.97591
9.93361
9.89131
9.84811
9.80448
1
1
1
1
1
1
1
1
1
1
1
1
1
1
1
1
1
1
1
1
1
1
1
1
1
1
1
1
1
1
1
1
1
1
1
1
1
1
1
1
1
1
1
1
1
1
1
1
1
1
1
1
1
1
1
1
1
1
1
1
1
1
1
1
1
1
1
1
1
1
1
1
1
1
1
1
1
1
1
1
1
2.43688
9.07163
10.3496
10.267
10.2302
10.1891
10.1493
10.109
10.0685
10.0276
9.98619
9.94424
9.90202
9.85905
9.81558
1
1
1
1
1
1
1
1
1
1
1
1
1
1
1
1
1
1
1
1
1
1
1
1
1
1
1
1
1
1
1
1
1
1
1
1
1
1
1
1
1
1
1
1
1
1
1
1
1
1
1
1
1
1
1
1
1
1
1
1
1
1
1
1
1
1
1
1
1
1
1
1
1
1
1
1
1
1
1
1
1
2.07398
8.75785
10.3611
10.278
10.24
10.1986
10.1584
10.1181
10.0773
10.0367
9.99511
9.95349
9.91119
9.86835
9.82503
1
1
1
1
1
1
1
1
1
1
1
1
1
1
1
1
1
1
1
1
1
1
1
1
1
1
1
1
1
1
1
1
1
1
1
1
1
1
1
1
1
1
1
1
1
1
1
1
1
1
1
1
1
1
1
1
1
1
1
1
1
1
1
1
1
1
1
1
1
1
1
1
1
1
1
1
1
1
1
1
1
1.82512
8.46321
10.3606
10.2834
10.246
10.2051
10.1653
10.1253
10.0844
10.0441
10.0025
9.9612
9.91882
9.87616
9.83309
1
1
1
1
1
1
1
1
1
1
1
1
1
1
1
1
1
1
1
1
1
1
1
1
1
1
1
1
1
1
1
1
1
1
1
1
1
1
1
1
1
1
1
1
1
1
1
1
1
1
1
1
1
1
1
1
1
1
1
1
1
1
1
1
1
1
1
1
1
1
1
1
1
1
1
1
1
1
1
1
1
1.65449
8.20818
10.3539
10.2854
10.249
10.209
10.1699
10.1303
10.0897
10.0497
10.0084
9.96727
9.9249
9.88251
9.83981
1
1
1
1
1
1
1
1
1
1
1
1
1
1
1
1
1
1
1
1
1
1
1
1
1
1
1
1
1
1
1
1
1
1
1
1
1
1
1
1
1
1
1
1
1
1
1
1
1
1
1
1
1
1
1
1
1
1
1
1
1
1
1
1
1
1
1
1
1
1
1
1
1
1
1
1
1
1
1
1
1
1.53964
8.0086
10.3481
10.286
10.2499
10.2106
10.1721
10.133
10.0928
10.0529
10.0122
9.97132
9.92905
9.8869
9.84453
1
1
1
1
1
1
1