/*--------------------------------*- C++ -*----------------------------------*\
  =========                 |
  \\      /  F ield         | OpenFOAM: The Open Source CFD Toolbox
   \\    /   O peration     | Website:  https://openfoam.org
    \\  /    A nd           | Version:  7
     \\/     M anipulation  |
\*---------------------------------------------------------------------------*/
FoamFile
{
    version     2.0;
    format      ascii;
    class       volScalarField;
    location    "9.6";
    object      T;
}
// * * * * * * * * * * * * * * * * * * * * * * * * * * * * * * * * * * * * * //

dimensions      [0 0 0 1 0 0 0];

internalField   nonuniform List<scalar> 
19968
(
1
1
1
1
1
1
1
1
1
1
1
1
1
1
1
1
1
1
1
1
1
1
1
1
1
1
1
1
1
1
1
1
1
1
1
1
1
1
1
1
1
1
1
1
1
1
1
1
1.27299
2.45625
2.68608
2.69242
2.69857
2.70372
2.70826
2.71194
2.715
2.71784
2.72084
2.7242
2.728
2.73226
2.73686
2.74142
2.74533
2.7484
2.75091
2.75327
2.75585
2.75878
2.76189
2.76485
2.76751
2.76999
2.77249
2.77515
2.77788
2.78055
2.78298
2.78513
2.78702
2.7887
2.79021
2.79162
2.79299
2.79438
2.7958
2.79719
2.79847
2.79959
2.80056
2.80142
2.80221
2.80289
2.80343
2.80381
1
1
1
1
1
1
1
1
1
1
1
1
1
1
1
1
1
1
1
1
1
1
1
1
1
1
1
1
1
1
1
1
1
1
1
1
1
1
1
1
1
1
1
1
1
1
1
1
1.26121
2.45051
2.68589
2.69233
2.69852
2.70359
2.70805
2.71167
2.71469
2.7175
2.72052
2.72392
2.72776
2.73204
2.73661
2.74111
2.74497
2.74805
2.75058
2.75298
2.7556
2.75855
2.76165
2.7646
2.76725
2.76972
2.77221
2.77486
2.7776
2.78026
2.78269
2.78484
2.78672
2.78839
2.7899
2.7913
2.79267
2.79405
2.79545
2.79682
2.79808
2.79918
2.80014
2.80099
2.80175
2.80242
2.80294
2.80331
1
1
1
1
1
1
1
1
1
1
1
1
1
1
1
1
1
1
1
1
1
1
1
1
1
1
1
1
1
1
1
1
1
1
1
1
1
1
1
1
1
1
1
1
1
1
1
1
1.23238
2.43511
2.68594
2.69148
2.6978
2.7028
2.70721
2.71076
2.71374
2.71661
2.7198
2.72339
2.72734
2.73164
2.73607
2.74042
2.74416
2.74724
2.74984
2.75236
2.75508
2.75809
2.7612
2.76411
2.76672
2.76916
2.77165
2.77429
2.77704
2.77971
2.78214
2.78428
2.78615
2.78781
2.78932
2.79072
2.79208
2.79345
2.79484
2.79619
2.79744
2.79854
2.7995
2.80034
2.8011
2.80174
2.80223
2.80258
1
1
1
1
1
1
1
1
1
1
1
1
1
1
1
1
1
1
1
1
1
1
1
1
1
1
1
1
1
1
1
1
1
1
1
1
1
1
1
1
1
1
1
1
1
1
1
1
1.18886
2.40916
2.68609
2.69052
2.69667
2.70168
2.70607
2.70957
2.71257
2.71559
2.71908
2.72295
2.72702
2.73124
2.73542
2.73949
2.74305
2.74613
2.74884
2.75152
2.75439
2.75749
2.76059
2.76346
2.76602
2.76842
2.77088
2.77351
2.77626
2.77893
2.78136
2.78349
2.78533
2.78696
2.78844
2.78981
2.79113
2.79246
2.79381
2.79512
2.79635
2.79744
2.7984
2.79925
2.80001
2.80065
2.80113
2.80147
1
1
1
1
1
1
1
1
1
1
1
1
1
1
1
1
1
1
1
1
1
1
1
1
1
1
1
1
1
1
1
1
1
1
1
1
1
1
1
1
1
1
1
1
1
1
1
1
1.12897
2.37091
2.6869
2.68988
2.69554
2.70032
2.70466
2.70826
2.71148
2.71481
2.71859
2.72268
2.7268
2.73087
2.73471
2.73843
2.74175
2.74482
2.74768
2.75057
2.75361
2.75677
2.75987
2.76269
2.7652
2.76755
2.76997
2.77257
2.77531
2.77799
2.78043
2.78256
2.7844
2.78601
2.78746
2.7888
2.79009
2.79137
2.79264
2.79388
2.79503
2.79605
2.79694
2.79771
2.79839
2.79895
2.79938
2.79969
1
1
1
1
1
1
1
1
1
1
1
1
1
1
1
1
1
1
1
1
1
1
1
1
1
1
1
1
1
1
1
1
1
1
1
1
1
1
1
1
1
1
1
1
1
1
1
1
1.02039
2.30716
2.68781
2.69004
2.69464
2.69911
2.70345
2.70743
2.71117
2.71493
2.71889
2.72303
2.7271
2.73097
2.73435
2.73754
2.74048
2.74346
2.74645
2.74951
2.75265
2.75579
2.75878
2.76149
2.76391
2.76619
2.76852
2.77103
2.77368
2.77631
2.77874
2.78086
2.78269
2.78427
2.78569
2.78701
2.78827
2.78952
2.79078
2.79201
2.79316
2.79419
2.79507
2.79583
2.79647
2.797
2.79738
2.79768
1
1
1
1
1
1
1
1
1
1
1
1
1
1
1
1
1
1
1
1
1
1
1
1
1
1
1
1
1
1
1
1
1
1
1
1
1
1
1
1
1
1
1
1
1
1
1
1
1.00017
2.21985
2.68326
2.68762
2.69112
2.69539
2.69972
2.70397
2.70817
2.71239
2.71669
2.72101
2.72513
2.72885
2.73188
2.73471
2.73744
2.74045
2.74366
2.74697
2.75023
2.75339
2.75634
2.75903
2.76148
2.76379
2.7661
2.76853
2.77109
2.77367
2.7761
2.77826
2.78012
2.78173
2.78314
2.78444
2.78568
2.78692
2.78817
2.7894
2.79055
2.79157
2.79243
2.79315
2.79373
2.79422
2.79456
2.79485
1
1
1
1
1
1
1
1
1
1
1
1
1
1
1
1
1
1
1
1
1
1
1
1
1
1
1
1
1
1
1
1
1
1
1
1
1
1
1
1
1
1
1
1
1
1
1
1
1
2.09117
2.67125
2.68484
2.68798
2.69248
2.69682
2.70107
2.70525
2.70952
2.71397
2.71838
2.72251
2.72612
2.72902
2.73176
2.73447
2.73754
2.74089
2.7443
2.74758
2.75068
2.75358
2.75627
2.7588
2.76117
2.76347
2.7658
2.76821
2.77067
2.77307
2.77526
2.77716
2.77878
2.78018
2.78143
2.78262
2.78381
2.78503
2.78624
2.78738
2.78836
2.78917
2.78982
2.79034
2.79078
2.79108
2.79134
1
1
1
1
1
1
1
1
1
1
1
1
1
1
1
1
1
1
1
1
1
1
1
1
1
1
1
1
1
1
1
1
1
1
1
1
1
1
1
1
1
1
1
1
1
1
1
1
1
1.91172
2.6389
2.6792
2.68292
2.68793
2.69238
2.69666
2.70077
2.70498
2.70942
2.71392
2.71819
2.72191
2.72494
2.7278
2.73065
2.73379
2.73716
2.74053
2.74368
2.74665
2.74948
2.7522
2.75483
2.75733
2.75966
2.7619
2.76416
2.76647
2.76881
2.77102
2.77299
2.77464
2.77602
2.77722
2.77836
2.77952
2.78072
2.78193
2.78306
2.78402
2.7848
2.78541
2.7859
2.78631
2.78658
2.78684
1
1
1
1
1
1
1
1
1
1
1
1
1
1
1
1
1
1
1
1
1
1
1
1
1
1
1
1
1
1
1
1
1
1
1
1
1
1
1
1
1
1
1
1
1
1
1
1
1
1.67576
2.57982
2.67182
2.67816
2.68357
2.68803
2.69212
2.696
2.6999
2.70411
2.70856
2.71296
2.7169
2.72021
2.72331
2.72638
2.7296
2.73292
2.73613
2.7391
2.74189
2.74464
2.74736
2.75006
2.75262
2.75495
2.75705
2.75909
2.76119
2.7634
2.7656
2.7676
2.7693
2.77069
2.77188
2.77301
2.77416
2.77535
2.77652
2.77759
2.77846
2.77914
2.77967
2.78008
2.78044
2.78067
2.7809
1
1
1
1
1
1
1
1
1
1
1
1
1
1
1
1
1
1
1
1
1
1
1
1
1
1
1
1
1
1
1
1
1
1
1
1
1
1
1
1
1
1
1
1
1
1
1
1
1
1.37383
2.47749
2.67001
2.67287
2.67919
2.68334
2.68724
2.6909
2.69457
2.69853
2.70285
2.70726
2.71134
2.71487
2.71812
2.72133
2.7246
2.72788
2.73098
2.73379
2.73644
2.73912
2.74186
2.74464
2.74729
2.74964
2.75165
2.75349
2.75536
2.75734
2.75936
2.76123
2.76279
2.76402
2.76503
2.76598
2.76697
2.76801
2.76907
2.77007
2.77091
2.77159
2.77212
2.77253
2.7729
2.77312
2.77338
1
1
1
1
1
1
1
1
1
1
1
1
1
1
1
1
1
1
1
1
1
1
1
1
1
1
1
1
1
1
1
1
1
1
1
1
1
1
1
1
1
1
1
1
1
1
1
1
1
1.01529
2.29728
2.67915
2.6792
2.68041
2.68288
2.68577
2.68889
2.69215
2.69559
2.69923
2.70289
2.70631
2.70938
2.71226
2.71524
2.71835
2.72144
2.72429
2.72688
2.7293
2.7318
2.73443
2.73715
2.73982
2.7422
2.74421
2.74598
2.74772
2.74953
2.7514
2.75315
2.75463
2.7558
2.75675
2.75763
2.75852
2.75944
2.76033
2.76111
2.76171
2.76209
2.76224
2.76224
2.76225
2.76222
2.76231
1
1
1
1
1
1
1
1
1
1
1
1
1
1
1
1
1
1
1
1
1
1
1
1
1
1
1
1
1
1
1
1
1
1
1
1
1
1
1
1
1
1
1
1
1
1
1
1
1
1.00003
2.02071
2.64717
2.6615
2.66568
2.67104
2.67556
2.67969
2.68347
2.68706
2.69056
2.69393
2.69706
2.69997
2.7028
2.70571
2.70878
2.71186
2.71468
2.71723
2.71965
2.72206
2.7246
2.72722
2.72985
2.73226
2.73434
2.73614
2.73783
2.73952
2.7412
2.74275
2.74403
2.74496
2.74562
2.74611
2.74651
2.74681
2.74708
2.74739
2.74773
2.74802
2.7482
2.74817
2.74801
2.74768
2.74755
1
1
1
1
1
1
1
1
1
1
1
1
1
1
1
1
1
1
1
1
1
1
1
1
1
1
1
1
1
1
1
1
1
1
1
1
1
1
1
1
1
1
1
1
1
1
1
1
1
1
1.55187
2.51905
2.64555
2.65269
2.66123
2.66707
2.67208
2.67644
2.68027
2.68375
2.68697
2.68992
2.69267
2.69535
2.69806
2.70092
2.70382
2.70649
2.70882
2.71101
2.71308
2.71517
2.71728
2.71945
2.72154
2.7234
2.72504
2.72655
2.72799
2.72933
2.73047
2.73135
2.73197
2.7323
2.73232
2.73219
2.73199
2.73185
2.73177
2.73173
2.73149
2.73081
2.72917
2.72652
2.7233
2.72069
1
1
1
1
1
1
1
1
1
1
1
1
1
1
1
1
1
1
1
1
1
1
1
1
1
1
1
1
1
1
1
1
1
1
1
1
1
1
1
1
1
1
1
1
1
1
1
1
1
1
1.02881
2.25898
2.65527
2.65378
2.65502
2.65913
2.6638
2.66813
2.67163
2.67464
2.67747
2.68023
2.68288
2.68546
2.68804
2.69065
2.69331
2.6958
2.69794
2.69991
2.70178
2.7035
2.70507
2.70656
2.70807
2.70951
2.71085
2.71214
2.71332
2.71415
2.71477
2.71508
2.71507
2.71476
2.71394
2.71264
2.71099
2.70905
2.7068
2.70421
2.70127
2.69797
2.69459
2.69065
2.68751
2.68556
1
1
1
1
1
1
1
1
1
1
1
1
1
1
1
1
1
1
1
1
1
1
1
1
1
1
1
1
1
1
1
1
1
1
1
1
1
1
1
1
1
1
1
1
1
1
1
1
1
1
1.00005
1.77237
2.55914
2.6302
2.63693
2.64446
2.65052
2.65548
2.65914
2.66212
2.66495
2.66783
2.67074
2.67358
2.6763
2.67886
2.68124
2.68345
2.68541
2.68721
2.68905
2.6907
2.69189
2.69266
2.69336
2.69404
2.69479
2.69546
2.6959
2.69603
2.6959
2.69544
2.6945
2.69298
2.6908
2.68796
2.68456
2.68069
2.6764
2.6717
2.66658
2.66121
2.6557
2.65311
2.64989
2.6639
1
1
1
1
1
1
1
1
1
1
1
1
1
1
1
1
1
1
1
1
1
1
1
1
1
1
1
1
1
1
1
1
1
1
1
1
1
1
1
1
1
1
1
1
1
1
1
1
1
1
1
1.11139
2.33333
2.6315
2.63098
2.63416
2.63941
2.64444
2.64847
2.65153
2.65417
2.6568
2.6596
2.66246
2.66516
2.66756
2.6696
2.67145
2.67316
2.67476
2.67654
2.67821
2.67912
2.67931
2.67945
2.67945
2.67939
2.67922
2.67887
2.67822
2.67724
2.67579
2.67368
2.67079
2.66699
2.66224
2.65644
2.64948
2.64085
2.63001
2.6153
2.59534
2.56552
2.52311
2.45913
2.33071
1
1
1
1
1
1
1
1
1
1
1
1
1
1
1
1
1
1
1
1
1
1
1
1
1
1
1
1
1
1
1
1
1
1
1
1
1
1
1
1
1
1
1
1
1
1
1
1
1
1
1
1.00103
2.00326
2.59904
2.61188
2.61693
2.62299
2.62853
2.63341
2.63727
2.64047
2.64356
2.64678
2.65003
2.65303
2.65562
2.65779
2.65964
2.66135
2.66294
2.66448
2.66601
2.66675
2.66673
2.66662
2.66621
2.66553
2.66465
2.66355
2.66212
2.66025
2.65778
2.65453
2.65033
2.64493
2.63825
2.62989
2.61979
2.60683
2.59054
2.56804
2.53815
2.49419
2.43592
2.32564
2.16322
1
1
1
1
1
1
1
1
1
1
1
1
1
1
1
1
1
1
1
1
1
1
1
1
1
1
1
1
1
1
1
1
1
1
1
1
1
1
1
1
1
1
1
1
1
1
1
1
1
1
1
0.999999
1.37885
2.422
2.5973
2.60543
2.61304
2.61804
2.62203
2.62525
2.62805
2.63101
2.63431
2.63776
2.64101
2.64366
2.64574
2.64758
2.64932
2.65093
2.65234
2.65361
2.65417
2.65395
2.65343
2.65251
2.65119
2.64964
2.64782
2.64555
2.64263
2.63899
2.63444
2.62889
2.62186
2.61327
2.60241
2.58928
2.57267
2.55191
2.52464
2.48807
2.43994
2.3667
2.26317
2.13541
1
1
1
1
1
1
1
1
1
1
1
1
1
1
1
1
1
1
1
1
1
1
1
1
1
1
1
1
1
1
1
1
1
1
1
1
1
1
1
1
1
1
1
1
1
1
1
1
1
1
1
1
1.01389
2.11024
2.59919
2.59995
2.60297
2.60658
2.60987
2.61246
2.61469
2.6173
2.62059
2.6244
2.62785
2.63056
2.63241
2.63391
2.63539
2.63694
2.63848
2.63983
2.64048
2.64015
2.63922
2.63773
2.63586
2.63381
2.63143
2.62851
2.62464
2.61984
2.61392
2.60693
2.5984
2.58818
2.5755
2.56003
2.54088
2.5171
2.48722
2.4485
2.39881
2.33223
2.24662
2.14969
1
1
1
1
1
1
1
1
1
1
1
1
1
1
1
1
1
1
1
1
1
1
1
1
1
1
1
1
1
1
1
1
1
1
1
1
1
1
1
1
1
1
1
1
1
1
1
1
1
1
1
1
1.00001
1.46561
2.44628
2.5863
2.59291
2.59741
2.5995
2.60101
2.60238
2.60433
2.60722
2.61091
2.61444
2.61744
2.61924
2.62011
2.62085
2.62196
2.62354
2.62519
2.62611
2.62575
2.6245
2.62247
2.62004
2.61754
2.61474
2.61138
2.60688
2.60114
2.59396
2.58551
2.5756
2.56403
2.55022
2.53348
2.51306
2.4879
2.45771
2.41915
2.3727
2.31613
2.24911
2.17169
1
1
1
1
1
1
1
1
1
1
1
1
1
1
1
1
1
1
1
1
1
1
1
1
1
1
1
1
1
1
1
1
1
1
1
1
1
1
1
1
1
1
1
1
1
1
1
1
1
1
1
1
1
1.0215
2.12874
2.58865
2.58822
2.58874
2.58954
2.59053
2.59142
2.59275
2.59492
2.59801
2.60138
2.6046
2.60647
2.60655
2.60639
2.6067
2.60785
2.60948
2.61057
2.61031
2.60899
2.60667
2.60372
2.60068
2.59743
2.59376
2.58902
2.58288
2.57495
2.56533
2.55411
2.54132
2.52669
2.50953
2.48914
2.46406
2.43522
2.39842
2.35706
2.30935
2.25567
2.19335
1
1
1
1
1
1
1
1
1
1
1
1
1
1
1
1
1
1
1
1
1
1
1
1
1
1
1
1
1
1
1
1
1
1
1
1
1
1
1
1
1
1
1
1
1
1
1
1
1
1
1
1
1
1.00003
1.42587
2.4212
2.57192
2.57729
2.58013
2.58101
2.5813
2.58176
2.58282
2.58507
2.58782
2.59066
2.59256
2.5925
2.5919
2.59173
2.59219
2.59325
2.59408
2.5938
2.59243
2.58999
2.58673
2.58323
2.57956
2.57557
2.57076
2.56465
2.55669
2.54668
2.53469
2.52102
2.50576
2.48847
2.46873
2.44468
2.41763
2.3843
2.34846
2.3074
2.26163
2.20937
1
1
1
1
1
1
1
1
1
1
1
1
1
1
1
1
1
1
1
1
1
1
1
1
1
1
1
1
1
1
1
1
1
1
1
1
1
1
1
1
1
1
1
1
1
1
1
1
1
1
1
1
1
1
1.0164
2.04848
2.55741
2.56764
2.5693
2.57095
2.5719
2.57283
2.57381
2.57551
2.57749
2.57933
2.58031
2.57999
2.5789
2.57794
2.57757
2.57776
2.5779
2.57744
2.57589
2.57334
2.56984
2.56588
2.56166
2.55716
2.55213
2.54611
2.53855
2.52891
2.51693
2.503
2.48744
2.47003
2.45085
2.42835
2.40302
2.37413
2.34305
2.30665
2.26736
2.22389
1
1
1
1
1
1
1
1
1
1
1
1
1
1
1
1
1
1
1
1
1
1
1
1
1
1
1
1
1
1
1
1
1
1
1
1
1
1
1
1
1
1
1
1
1
1
1
1
1
1
1
1
1
1
1.00002
1.24356
2.35089
2.5608
2.55874
2.5593
2.56031
2.5617
2.56329
2.56499
2.56649
2.5675
2.5677
2.5673
2.56604
2.5645
2.56325
2.56257
2.56193
2.56096
2.55916
2.55651
2.5528
2.54849
2.5438
2.53876
2.5333
2.52719
2.52006
2.51123
2.50009
2.48674
2.47171
2.45438
2.43574
2.41453
2.39109
2.36628
2.33808
2.30565
2.27281
2.23577
1
1
1
1
1
1
1
1
1
1
1
1
1
1
1
1
1
1
1
1
1
1
1
1
1
1
1
1
1
1
1
1
1
1
1
1
1
1
1
1
1
1
1
1
1
1
1
1
1
1
1
1
1
1
1
1.00425
1.86447
2.5031
2.53623
2.54179
2.54618
2.54869
2.5515
2.55366
2.55503
2.55527
2.55501
2.55426
2.55289
2.5512
2.54958
2.54849
2.5472
2.54557
2.54346
2.54065
2.53665
2.53198
2.52681
2.52124
2.51521
2.50871
2.50156
2.49326
2.4832
2.47088
2.45701
2.44037
2.42265
2.40287
2.3816
2.35907
2.33285
2.30496
2.27706
2.24423
1
1
1
1
1
1
1
1
1
1
1
1
1
1
1
1
1
1
1
1
1
1
1
1
1
1
1
1
1
1
1
1
1
1
1
1
1
1
1
1
1
1
1
1
1
1
1
1
1
1
1
1
1
1
1
1
1.10393
2.2056
2.52822
2.53327
2.5348
2.53565
2.53845
2.54138
2.54315
2.54318
2.54261
2.54146
2.54001
2.53838
2.53667
2.53551
2.53388
2.53174
2.52932
2.52623
2.52185
2.51666
2.5109
2.50478
2.49827
2.49126
2.48385
2.47562
2.46635
2.45491
2.4423
2.42702
2.41071
2.39284
2.37319
2.35204
2.32856
2.30478
2.27902
2.24956
1
1
1
1
1
1
1
1
1
1
1
1
1
1
1
1
1
1
1
1
1
1
1
1
1
1
1
1
1
1
1
1
1
1
1
1
1
1
1
1
1
1
1
1
1
1
1
1
1
1
1
1
1
1
1
1
1.00072
1.44763
2.35861
2.51323
2.51262
2.51637
2.52096
2.5256
2.52858
2.52932
2.52888
2.5277
2.52626
2.5248
2.52322
2.52221
2.52075
2.51849
2.51581
2.51248
2.50784
2.50228
2.49597
2.48935
2.48252
2.47504
2.46772
2.45905
2.44985
2.43899
2.42725
2.41344
2.39879
2.38277
2.36454
2.34538
2.32521
2.30349
2.27934
2.25427
1
1
1
1
1
1
1
1
1
1
1
1
1
1
1
1
1
1
1
1
1
1
1
1
1
1
1
1
1
1
1
1
1
1
1
1
1
1
1
1
1
1
1
1
1
1
1
1
1
1
1
1
1
1
1
1
1
1.0179
1.89092
2.46709
2.49802
2.50304
2.5081
2.51149
2.51403
2.51492
2.51463
2.51367
2.51242
2.51112
2.50972
2.50879
2.50781
2.5057
2.503
2.49954
2.49485
2.48912
2.48252
2.47557
2.46855
2.46077
2.45291
2.44425
2.43495
2.42446
2.41317
2.40032
2.38696
2.3722
2.35559
2.33878
2.32068
2.30027
2.27952
2.2583
1
1
1
1
1
1
1
1
1
1
1
1
1
1
1
1
1
1
1
1
1
1
1
1
1
1
1
1
1
1
1
1
1
1
1
1
1
1
1
1
1
1
1
1
1
1
1
1
1
1
1
1
1
1
1
1
1
1.00003
1.11727
2.11841
2.47942
2.49952
2.49833
2.49996
2.50118
2.50113
2.50066
2.49977
2.49862
2.49744
2.49611
2.4952
2.49452
2.49277
2.49023
2.48684
2.48231
2.47659
2.46991
2.46289
2.45561
2.44769
2.43959
2.43097
2.42173
2.41155
2.4006
2.3885
2.37583
2.36192
2.34675
2.33146
2.31472
2.29659
2.27939
2.26095
1
1
1
1
1
1
1
1
1
1
1
1
1
1
1
1
1
1
1
1
1
1
1
1
1
1
1
1
1
1
1
1
1
1
1
1
1
1
1
1
1
1
1
1
1
1
1
1
1
1
1
1
1
1
1
1
1
1
1.00093
1.26363
2.26916
2.48276
2.48133
2.48287
2.48322
2.48346
2.4835
2.48329
2.483
2.48248
2.48155
2.48091
2.48035
2.47891
2.47661
2.47344
2.46938
2.46403
2.45771
2.45094
2.44363
2.43576
2.42767
2.41926
2.41032
2.40059
2.39018
2.37896
2.36664
2.35333
2.33903
2.32456
2.30927
2.29367
2.2793
2.26301
1
1
1
1
1
1
1
1
1
1
1
1
1
1
1
1
1
1
1
1
1
1
1
1
1
1
1
1
1
1
1
1
1
1
1
1
1
1
1
1
1
1
1
1
1
1
1
1
1
1
1
1
1
1
1
1
1
1
1
1.00499
1.6602
2.3783
2.45854
2.45585
2.45743
2.45953
2.46167
2.46328
2.46445
2.46523
2.46534
2.46548
2.46517
2.46409
2.46218
2.45928
2.45554
2.45076
2.44504
2.43866
2.43175
2.42429
2.41653
2.40854
2.40012
2.391
2.38143
2.37117
2.35925
2.34654
2.33339
2.31991
2.30623
2.29302
2.28059
2.26636
1
1
1
1
1
1
1
1
1
1
1
1
1
1
1
1
1
1
1
1
1
1
1
1
1
1
1
1
1
1
1
1
1
1
1
1
1
1
1
1
1
1
1
1
1
1
1
1
1
1
1
1
1
1
1
1
1
1
1
1.00001
1.04982
1.90893
2.41873
2.4442
2.44333
2.44497
2.44634
2.44757
2.44869
2.44965
2.45024
2.45051
2.4501
2.44896
2.44711
2.44449
2.44092
2.43666
2.43152
2.42584
2.41955
2.41286
2.40582
2.39859
2.39104
2.3829
2.37427
2.36472
2.35344
2.34226
2.33092
2.31927
2.30764
2.29614
2.28533
2.27304
1
1
1
1
1
1
1
1
1
1
1
1
1
1
1
1
1
1
1
1
1
1
1
1
1
1
1
1
1
1
1
1
1
1
1
1
1
1
1
1
1
1
1
1
1
1
1
1
1
1
1
1
1
1
1
1
1
1
1
1
1.00021
1.13271
2.02712
2.41332
2.43475
2.43633
2.43702
2.43676
2.4367
2.43657
2.4363
2.4358
2.43485
2.43339
2.43134
2.42873
2.42539
2.42121
2.41665
2.41179
2.40637
2.4007
2.39484
2.38874
2.3822
2.37519
2.36756
2.35924
2.35008
2.34171
2.3326
2.3226
2.31318
2.30359
2.29406
2.28315
1
1
1
1
1
1
1
1
1
1
1
1
1
1
1
1
1
1
1
1
1
1
1
1
1
1
1
1
1
1
1
1
1
1
1
1
1
1
1
1
1
1
1
1
1
1
1
1
1
1
1
1
1
1
1
1
1
1
1
1
1
1.00123
1.21312
2.10502
2.39901
2.42808
2.42723
2.42696
2.42642
2.42548
2.42438
2.42309
2.42138
2.41921
2.41659
2.41353
2.41003
2.40595
2.40162
2.39735
2.39281
2.3881
2.38326
2.37822
2.37297
2.36788
2.36257
2.35724
2.35136
2.34529
2.33815
2.33008
2.32241
2.31374
2.30462
2.29445
1
1
1
1
1
1
1
1
1
1
1
1
1
1
1
1
1
1
1
1
1
1
1
1
1
1
1
1
1
1
1
1
1
1
1
1
1
1
1
1
1
1
1
1
1
1
1
1
1
1
1
1
1
1
1
1
1
1
1
1
1
1
1.0032
1.29631
2.15651
2.3896
2.40973
2.41238
2.41287
2.41269
2.4119
2.41051
2.40849
2.40596
2.40292
2.39945
2.39562
2.39156
2.38746
2.3835
2.3795
2.37546
2.37174
2.36871
2.36618
2.36434
2.36254
2.35978
2.35615
2.35182
2.34566
2.33862
2.33168
2.32312
2.31419
2.30478
1
1
1
1
1
1
1
1
1
1
1
1
1
1
1
1
1
1
1
1
1
1
1
1
1
1
1
1
1
1
1
1
1
1
1
1
1
1
1
1
1
1
1
1
1
1
1
1
1
1
1
1
1
1
1
1
1
1
1
1
1
1
1
1.00652
1.37905
2.19529
2.37637
2.39034
2.39438
2.39562
2.39595
2.39536
2.39396
2.39198
2.38933
2.38608
2.3825
2.37871
2.37505
2.37126
2.36792
2.36563
2.36431
2.36445
2.36533
2.36607
2.36548
2.36432
2.36182
2.35784
2.35194
2.3454
2.33869
2.33034
2.32216
2.31388
1
1
1
1
1
1
1
1
1
1
1
1
1
1
1
1
1
1
1
1
1
1
1
1
1
1
1
1
1
1
1
1
1
1
1
1
1
1
1
1
1
1
1
1
1
1
1
1
1
1
1
1
1
1
1
1
1
1
1
1
1
1
1
1.00001
1.01174
1.45243
2.22651
2.36732
2.36994
2.37271
2.37402
2.37507
2.37495
2.37424
2.37286
2.37085
2.3684
2.36571
2.36299
2.36064
2.36055
2.36164
2.36417
2.36656
2.36908
2.37081
2.37015
2.369
2.36623
2.36167
2.35594
2.34976
2.34324
2.33556
2.32866
2.32164
1
1
1
1
1
1
1
1
1
1
1
1
1
1
1
1
1
1
1
1
1
1
1
1
1
1
1
1
1
1
1
1
1
1
1
1
1
1
1
1
1
1
1
1
1
1
1
1
1
1
1
1
1
1
1
1
1
1
1
1
1
1
1
1
1.00003
1.01851
1.55315
2.25353
2.35365
2.35191
2.35303
2.35311
2.3533
2.35347
2.35321
2.35268
2.3518
2.35152
2.35257
2.35515
2.35979
2.36477
2.36955
2.37348
2.3766
2.37654
2.37476
2.37272
2.36897
2.36378
2.35861
2.35289
2.34675
2.34011
2.33439
2.32835
1
1
1
1
1
1
1
1
1
1
1
1
1
1
1
1
1
1
1
1
1
1
1
1
1
1
1
1
1
1
1
1
1
1
1
1
1
1
1
1
1
1
1
1
1
1
1
1
1
1
1
1
1
1
1
1
1
1
1
1
1
1
1
1
1
1.00005
1.03207
1.61811
2.26304
2.34053
2.33764
2.33585
2.3349
2.33402
2.33369
2.33407
2.33617
2.34026
2.34631
2.35602
2.36471
2.3722
2.3785
2.38214
2.38231
2.38076
2.37781
2.375
2.37043
2.36515
2.36084
2.35562
2.35007
2.34455
2.3396
2.33424
1
1
1
1
1
1
1
1
1
1
1
1
1
1
1
1
1
1
1
1
1
1
1
1
1
1
1
1
1
1
1
1
1
1
1
1
1
1
1
1
1
1
1
1
1
1
1
1
1
1
1
1
1
1
1
1
1
1
1
1
1
1
1
1
1
1
1.00013
1.04466
1.63746
2.25555
2.3281
2.32499
2.32256
2.31978
2.31913
2.32097
2.32542
2.33684
2.34958
2.36221
2.37198
2.3798
2.38458
2.38499
2.38383
2.38131
2.3787
2.37592
2.37137
2.36683
2.36343
2.35866
2.35363
2.34884
2.34429
2.33936
1
1
1
1
1
1
1
1
1
1
1
1
1
1
1
1
1
1
1
1
1
1
1
1
1
1
1
1
1
1
1
1
1
1
1
1
1
1
1
1
1
1
1
1
1
1
1
1
1
1
1
1
1
1
1
1
1
1
1
1
1
1
1
1
1
1
1
1.00022
1.04993
1.62273
2.23779
2.31685
2.31392
2.31122
2.31232
2.31923
2.33147
2.34706
2.36094
2.37173
2.38
2.3841
2.38446
2.38378
2.38179
2.37931
2.37747
2.37514
2.37109
2.36776
2.36531
2.36121
2.35675
2.35255
2.34836
2.34375
1
1
1
1
1
1
1
1
1
1
1
1
1
1
1
1
1
1
1
1
1
1
1
1
1
1
1
1
1
1
1
1
1
1
1
1
1
1
1
1
1
1
1
1
1
1
1
1
1
1
1
1
1
1
1
1
1
1
1
1
1
1
1
1
1
1
1
1
1.00027
1.04751
1.60287
2.21609
2.30258
2.30474
2.31483
2.33284
2.35165
2.36636
2.37538
2.38197
2.38367
2.38315
2.38251
2.38103
2.3786
2.3768
2.37576
2.37379
2.37019
2.36744
2.36533
2.36163
2.35766
2.35413
2.35052
2.3464
1
1
1
1
1
1
1
1
1
1
1
1
1
1
1
1
1
1
1
1
1
1
1
1
1
1
1
1
1
1
1
1
1
1
1
1
1
1
1
1
1
1
1
1
1
1
1
1
1
1
1
1
1
1
1
1
1
1
1
1
1
1
1
1
1
1
1
1
1
1.00025
1.04347
1.56999
2.18538
2.30647
2.33818
2.35921
2.37503
2.38233
2.38712
2.38572
2.38304
2.38112
2.37973
2.3774
2.37495
2.3742
2.37364
2.37149
2.36817
2.36638
2.36489
2.36148
2.35751
2.35416
2.35072
2.34685
1
1
1
1
1
1
1
1
1
1
1
1
1
1
1
1
1
1
1
1
1
1
1
1
1
1
1
1
1
1
1
1
1
1
1
1
1
1
1
1
1
1
1
1
1
1
1
1
1
1
1
1
1
1
1
1
1
1
1
1
1
1
1
1
1
1
1
1
1
1
1.00022
1.0369
1.51284
2.2329
2.38156
2.38809
2.39139
2.39145
2.39038
2.38715
2.3836
2.38171
2.38006
2.37706
2.37439
2.37349
2.37235
2.36903
2.36552
2.36438
2.36314
2.35957
2.35565
2.35311
2.35035
2.34681
1
1
1
1
1
1
1
1
1
1
1
1
1
1
1
1
1
1
1
1
1
1
1
1
1
1
1
1
1
1
1
1
1
1
1
1
1
1
1
1
1
1
1
1
1
1
1
1
1
1
1
1
1
1
1
1
1
1
1
1
1
1
1
1
1
1
1
1
1
1
1
1.00018
1.02763
1.82069
2.44806
2.44392
2.43244
2.4196
2.40798
2.39782
2.39052
2.38634
2.38273
2.37856
2.37585
2.37476
2.37315
2.36936
2.36593
2.36441
2.36218
2.3573
2.35294
2.35116
2.34907
2.34552
1
1
1
1
1
1
1
1
1
1
1
1
1
1
1
1
1
1
1
1
1
1
1
1
1
1
1
1
1
1
1
1
1
1
1
1
1
1
1
1
1
1
1
1
1
1
1
1
1
1
1
1
1
1
1
1
1
1
1
1
1
1
1
1
1
1
1
1
1
1
1
1
1.00009
1.09749
2.27774
2.52885
2.49584
2.4691
2.44818
2.43179
2.41906
2.40865
2.39902
2.3908
2.38499
2.381
2.37662
2.37136
2.36781
2.36572
2.36275
2.3575
2.35331
2.35153
2.3489
2.34439
1
1
1
1
1
1
1
1
1
1
1
1
1
1
1
1
1
1
1
1
1
1
1
1
1
1
1
1
1
1
1
1
1
1
1
1
1
1
1
1
1
1
1
1
1
1
1
1
1
1
1
1
1
1
1
1
1
1
1
1
1
1
1
1
1
1
1
1
1
1
1
1
1
1.00062
1.73619
2.47234
2.52254
2.51498
2.50253
2.48595
2.46844
2.45183
2.43724
2.42443
2.41312
2.40302
2.3934
2.38502
2.37863
2.37366
2.36783
2.3609
2.35611
2.35341
2.34976
2.34516
1
1
1
1
1
1
1
1
1
1
1
1
1
1
1
1
1
1
1
1
1
1
1
1
1
1
1
1
1
1
1
1
1
1
1
1
1
1
1
1
1
1
1
1
1
1
1
1
1
1
1
1
1
1
1
1
1
1
1
1
1
1
1
1
1
1
1
1
1
1
1
1
1
1
1.0632
2.25269
2.5697
2.56292
2.55002
2.53604
2.52082
2.50512
2.48911
2.47314
2.45749
2.44253
2.42909
2.41725
2.40634
2.39628
2.38606
2.37646
2.36914
2.36346
2.35707
2.35079
1
1
1
1
1
1
1
1
1
1
1
1
1
1
1
1
1
1
1
1
1
1
1
1
1
1
1
1
1
1
1
1
1
1
1
1
1
1
1
1
1
1
1
1
1
1
1
1
1
1
1
1
1
1
1
1
1
1
1
1
1
1
1
1
1
1
1
1
1
1
1
1
1
1
1.00025
1.69801
2.48471
2.56873
2.56599
2.56005
2.55233
2.54283
2.53148
2.5186
2.50459
2.49009
2.47542
2.46088
2.44675
2.43331
2.42077
2.40938
2.39912
2.38915
2.37912
2.37002
1
1
1
1
1
1
1
1
1
1
1
1
1
1
1
1
1
1
1
1
1
1
1
1
1
1
1
1
1
1
1
1
1
1
1
1
1
1
1
1
1
1
1
1
1
1
1
1
1
1
1
1
1
1
1
1
1
1
1
1
1
1
1
1
1
1
1
1
1
1
1
1
1
1
1
1.05833
2.27104
2.58905
2.58746
2.58
2.57393
2.56701
2.55934
2.55088
2.54137
2.5308
2.51923
2.50686
2.49407
2.48088
2.46755
2.45432
2.44139
2.42849
2.41637
2.40533
1
1
1
1
1
1
1
1
1
1
1
1
1
1
1
1
1
1
1
1
1
1
1
1
1
1
1
1
1
1
1
1
1
1
1
1
1
1
1
1
1
1
1
1
1
1
1
1
1
1
1
1
1
1
1
1
1
1
1
1
1
1
1
1
1
1
1
1
1
1
1
1
1
1
1
1.00021
1.79752
2.52813
2.58921
2.58515
2.58167
2.57768
2.57321
2.56818
2.56245
2.55591
2.5485
2.54016
2.53093
2.52083
2.50982
2.49812
2.4859
2.47347
2.4611
2.4487
1
1
1
1
1
1
1
1
1
1
1
1
1
1
1
1
1
1
1
1
1
1
1
1
1
1
1
1
1
1
1
1
1
1
1
1
1
1
1
1
1
1
1
1
1
1
1
1
1
1
1
1
1
1
1
1
1
1
1
1
1
1
1
1
1
1
1
1
1
1
1
1
1
1
1
1
1.1443
2.35565
2.6046
2.59545
2.59061
2.58708
2.5837
2.58013
2.57619
2.57177
2.56673
2.56094
2.5542
2.5468
2.53892
2.53042
2.5212
2.51149
2.50127
2.49058
1
1
1
1
1
1
1
1
1
1
1
1
1
1
1
1
1
1
1
1
1
1
1
1
1
1
1
1
1
1
1
1
1
1
1
1
1
1
1
1
1
1
1
1
1
1
1
1
1
1
1
1
1
1
1
1
1
1
1
1
1
1
1
1
1
1
1
1
1
1
1
1
1
1
1
1
1.00139
2.05278
2.59734
2.59973
2.59672
2.59398
2.59069
2.58729
2.58362
2.57964
2.57536
2.57075
2.56584
2.56059
2.55509
2.54931
2.54314
2.53654
2.52944
2.52179
1
1
1
1
1
1
1
1
1
1
1
1
1
1
1
1
1
1
1
1
1
1
1
1
1
1
1
1
1
1
1
1
1
1
1
1
1
1
1
1
1
1
1
1
1
1
1
1
1
1
1
1
1
1
1
1
1
1
1
1
1
1
1
1
1
1
1
1
1
1
1
1
1
1
1
1
1
1.53237
2.49263
2.61787
2.61135
2.60698
2.60212
2.59729
2.59255
2.58803
2.58372
2.57957
2.57552
2.57155
2.56744
2.56309
2.55855
2.55369
2.54844
2.54277
1
1
1
1
1
1
1
1
1
1
1
1
1
1
1
1
1
1
1
1
1
1
1
1
1
1
1
1
1
1
1
1
1
1
1
1
1
1
1
1
1
1
1
1
1
1
1
1
1
1
1
1
1
1
1
1
1
1
1
1
1
1
1
1
1
1
1
1
1
1
1
1
1
1
1
1
1
1.03195
2.28651
2.6321
2.62892
2.62025
2.61381
2.60758
2.60188
2.5967
2.59194
2.58749
2.58322
2.57911
2.57502
2.57087
2.5667
2.56236
2.55788
2.55319
1
1
1
1
1
1
1
1
1
1
1
1
1
1
1
1
1
1
1
1
1
1
1
1
1
1
1
1
1
1
1
1
1
1
1
1
1
1
1
1
1
1
1
1
1
1
1
1
1
1
1
1
1
1
1
1
1
1
1
1
1
1
1
1
1
1
1
1
1
1
1
1
1
1
1
1
1
1.00006
1.96157
2.6025
2.62483
2.62056
2.61722
2.61307
2.60889
2.6046
2.60024
2.59585
2.59145
2.58707
2.58272
2.57839
2.57412
2.56983
2.56554
2.56123
1
1
1
1
1
1
1
1
1
1
1
1
1
1
1
1
1
1
1
1
1
1
1
1
1
1
1
1
1
1
1
1
1
1
1
1
1
1
1
1
1
1
1
1
1
1
1
1
1
1
1
1
1
1
1
1
1
1
1
1
1
1
1
1
1
1
1
1
1
1
1
1
1
1
1
1
1
1
1.49729
2.48615
2.63713
2.631
2.62755
2.62385
2.62016
2.61611
2.61175
2.60717
2.60245
2.59766
2.59285
2.58809
2.58339
2.57873
2.57415
2.56962
1
1
1
1
1
1
1
1
1
1
1
1
1
1
1
1
1
1
1
1
1
1
1
1
1
1
1
1
1
1
1
1
1
1
1
1
1
1
1
1
1
1
1
1
1
1
1
1
1
1
1
1
1
1
1
1
1
1
1
1
1
1
1
1
1
1
1
1
1
1
1
1
1
1
1
1
1
1
1.02966
2.30655
2.647
2.64088
2.63509
2.63098
2.6273
2.62355
2.61957
2.61536
2.61095
2.60639
2.60173
2.59702
2.59228
2.58754
2.58282
2.57812
1
1
1
1
1
1
1
1
1
1
1
1
1
1
1
1
1
1
1
1
1
1
1
1
1
1
1
1
1
1
1
1
1
1
1
1
1
1
1
1
1
1
1
1
1
1
1
1
1
1
1
1
1
1
1
1
1
1
1
1
1
1
1
1
1
1
1
1
1
1
1
1
1
1
1
1
1
1
1.00005
2.07089
2.63605
2.64208
2.63951
2.63675
2.63325
2.62953
2.62566
2.6217
2.61763
2.61346
2.60918
2.60482
2.60037
2.59585
2.59128
2.58665
1
1
1
1
1
1
1
1
1
1
1
1
1
1
1
1
1
1
1
1
1
1
1
1
1
1
1
1
1
1
1
1
1
1
1
1
1
1
1
1
1
1
1
1
1
1
1
1
1
1
1
1
1
1
1
1
1
1
1
1
1
1
1
1
1
1
1
1
1
1
1
1
1
1
1
1
1
1
1
1.73155
2.56994
2.64668
2.64157
2.63861
2.63511
2.63162
2.62812
2.62462
2.62106
2.61747
2.61377
2.61001
2.60613
2.60215
2.59807
2.59385
1
1
1
1
1
1
1
1
1
1
1
1
1
1
1
1
1
1
1
1
1
1
1
1
1
1
1
1
1
1
1
1
1
1
1
1
1
1
1
1
1
1
1
1
1
1
1
1
1
1
1
1
1
1
1
1
1
1
1
1
1
1
1
1
1
1
1
1
1
1
1
1
1
1
1
1
1
1
1
1.33525
2.44869
2.65305
2.64721
2.64424
2.64058
2.6369
2.63325
2.62972
2.62627
2.62286
2.61941
2.61592
2.61234
2.60865
2.60485
2.6009
1
1
1
1
1
1
1
1
1
1
1
1
1
1
1
1
1
1
1
1
1
1
1
1
1
1
1
1
1
1
1
1
1
1
1
1
1
1
1
1
1
1
1
1
1
1
1
1
1
1
1
1
1
1
1
1
1
1
1
1
1
1
1
1
1
1
1
1
1
1
1
1
1
1
1
1
1
1
1
1.01263
2.30372
2.66398
2.65766
2.65153
2.64663
2.64241
2.63845
2.63471
2.63107
2.62751
2.62394
2.62036
2.61674
2.61306
2.60932
2.60548
1
1
1
1
1
1
1
1
1
1
1
1
1
1
1
1
1
1
1
1
1
1
1
1
1
1
1
1
1
1
1
1
1
1
1
1
1
1
1
1
1
1
1
1
1
1
1
1
1
1
1
1
1
1
1
1
1
1
1
1
1
1
1
1
1
1
1
1
1
1
1
1
1
1
1
1
1
1
1
1.00001
2.11572
2.65723
2.65723
2.65402
2.65133
2.64793
2.64437
2.64067
2.63682
2.63294
2.62904
2.62513
2.62123
2.61734
2.61346
2.60956
1
1
1
1
1
1
1
1
1
1
1
1
1
1
1
1
1
1
1
1
1
1
1
1
1
1
1
1
1
1
1
1
1
1
1
1
1
1
1
1
1
1
1
1
1
1
1
1
1
1
1
1
1
1
1
1
1
1
1
1
1
1
1
1
1
1
1
1
1
1
1
1
1
1
1
1
1
1
1
1
1.88308
2.61995
2.66157
2.65738
2.65507
2.65196
2.64879
2.64532
2.64157
2.63768
2.63371
2.62971
2.6257
2.6217
2.61773
2.61377
1
1
1
1
1
1
1
1
1
1
1
1
1
1
1
1
1
1
1
1
1
1
1
1
1
1
1
1
1
1
1
1
1
1
1
1
1
1
1
1
1
1
1
1
1
1
1
1
1
1
1
1
1
1
1
1
1
1
1
1
1
1
1
1
1
1
1
1
1
1
1
1
1
1
1
1
1
1
1
1
1.61443
2.55043
2.66331
2.65815
2.65568
2.65246
2.64925
2.64593
2.64253
2.63903
2.63546
2.63183
2.62814
2.6244
2.62063
2.61685
1
1
1
1
1
1
1
1
1
1
1
1
1
1
1
1
1
1
1
1
1
1
1
1
1
1
1
1
1
1
1
1
1
1
1
1
1
1
1
1
1
1
1
1
1
1
1
1
1
1
1
1
1
1
1
1
1
1
1
1
1
1
1
1
1
1
1
1
1
1
1
1
1
1
1
1
1
1
1
1
1.32214
2.45328
2.66428
2.65886
2.65646
2.65362
2.65069
2.64768
2.64466
2.64156
2.63838
2.63511
2.63175
2.62828
2.62474
2.62113
1
1
1
1
1
1
1
1
1
1
1
1
1
1
1
1
1
1
1
1
1
1
1
1
1
1
1
1
1
1
1
1
1
1
1
1
1
1
1
1
1
1
1
1
1
1
1
1
1
1
1
1
1
1
1
1
1
1
1
1
1
1
1
1
1
1
1
1
1
1
1
1
1
1
1
1
1
1
1
1
1.09564
2.35614
2.67148
2.66487
2.66016
2.65641
2.6531
2.65001
2.64697
2.64387
2.6407
2.63749
2.63424
2.63089
2.62748
2.62399
1
1
1
1
1
1
1
1
1
1
1
1
1
1
1
1
1
1
1
1
1
1
1
1
1
1
1
1
1
1
1
1
1
1
1
1
1
1
1
1
1
1
1
1
1
1
1
1
1
1
1
1
1
1
1
1
1
1
1
1
1
1
1
1
1
1
1
1
1
1
1
1
1
1
1
1
1
1
1
1
1.00128
2.2449
2.67058
2.66969
2.66453
2.66117
2.65779
2.65452
2.65125
2.64793
2.64457
2.64121
2.63783
2.63438
2.63088
2.62732
1
1
1
1
1
1
1
1
1
1
1
1
1
1
1
1
1
1
1
1
1
1
1
1
1
1
1
1
1
1
1
1
1
1
1
1
1
1
1
1
1
1
1
1
1
1
1
1
1
1
1
1
1
1
1
1
1
1
1
1
1
1
1
1
1
1
1
1
1
1
1
1
1
1
1
1
1
1
1
1
1
2.1146
2.66028
2.67202
2.66793
2.66535
2.66216
2.65895
2.65567
2.65234
2.64893
2.64549
2.64199
2.63839
2.63473
2.63104
1
1
1
1
1
1
1
1
1
1
1
1
1
1
1
1
1
1
1
1
1
1
1
1
1
1
1
1
1
1
1
1
1
1
1
1
1
1
1
1
1
1
1
1
1
1
1
1
1
1
1
1
1
1
1
1
1
1
1
1
1
1
1
1
1
1
1
1
1
1
1
1
1
1
1
1
1
1
1
1
1
1.97235
2.63833
2.6739
2.66965
2.66754
2.66469
2.66177
2.65863
2.65542
2.65209
2.64873
2.64523
2.64165
2.63796
2.63423
1
1
1
1
1
1
1
1
1
1
1
1
1
1
1
1
1
1
1
1
1
1
1
1
1
1
1
1
1
1
1
1
1
1
1
1
1
1
1
1
1
1
1
1
1
1
1
1
1
1
1
1
1
1
1
1
1
1
1
1
1
1
1
1
1
1
1
1
1
1
1
1
1
1
1
1
1
1
1
1
1
1.83384
2.61217
2.6744
2.66918
2.66698
2.66425
2.66151
2.65858
2.6556
2.65248
2.64933
2.64604
2.64269
2.63921
2.63567
1
1
1
1
1
1
1
1
1
1
1
1
1
1
1
1
1
1
1
1
1
1
1
1
1
1
1
1
1
1
1
1
1
1
1
1
1
1
1
1
1
1
1
1
1
1
1
1
1
1
1
1
1
1
1
1
1
1
1
1
1
1
1
1
1
1
1
1
1
1
1
1
1
1
1
1
1
1
1
1
1
1.69474
2.588
2.67507
2.66925
2.66682
2.66398
2.66121
2.65834
2.65542
2.65237
2.64927
2.64606
2.64284
2.63953
2.63619
1
1
1
1
1
1
1
1
1
1
1
1
1
1
1
1
1
1
1
1
1
1
1
1
1
1
1
1
1
1
1
1
1
1
1
1
1
1
1
1
1
1
1
1
1
1
1
1
1
1
1
1
1
1
1
1
1
1
1
1
1
1
1
1
1
1
1
1
1
1
1
1
1
1
1
1
1
1
1
1
1
1.56594
2.5587
2.67653
2.67039
2.66767
2.66466
2.66176
2.65884
2.65588
2.65286
2.64976
2.6466
2.64343
2.64021
2.63696
1
1
1
1
1
1
1
1
1
1
1
1
1
1
1
1
1
1
1
1
1
1
1
1
1
1
1
1
1
1
1
1
1
1
1
1
1
1
1
1
1
1
1
1
1
1
1
1
1
1
1
1
1
1
1
1
1
1
1
1
1
1
1
1
1
1
1
1
1
1
1
1
1
1
1
1
1
1
1
1
1
1.45902
2.52811
2.67865
2.67244
2.66954
2.66638
2.66333
2.66028
2.65721
2.65415
2.651
2.64785
2.64466
2.64144
2.63819
1
1
1
1
1
1
1
1
1
1
1
1
1
1
1
1
1
1
1
1
1
1
1
1
1
1
1
1
1
1
1
1
1
1
1
1
1
1
1
1
1
1
1
1
1
1
1
1
1
1
1
1
1
1
1
1
1
1
1
1
1
1
1
1
1
1
1
1
1
1
1
1
1
1
1
1
1
1
1
1
1
1.37549
2.49875
2.6798
2.67406
2.6712
2.66807
2.66502
2.66194
2.6588
2.65572
2.65253
2.64937
2.64615
2.6429
2.63963
1
1
1
1
1
1
1
1
1
1
1
1
1
1
1
1
1
1
1
1
1
1
1
1
1
1
1
1
1
1
1
1
1
1
1
1
1
1
1
1
1
1
1
1
1
1
1
1
1
1
1
1
1
1
1
1
1
1
1
1
1
1
1
1
1
1
1
1
1
1
1
1
1
1
1
1
1
1
1
1
1
1.31184
2.47189
2.67988
2.67476
2.67198
2.66893
2.66595
2.66293
2.65982
2.65676
2.65361
2.65047
2.64724
2.644
2.64073
1
1
1
1
1
1
1
1
1
1
1
1
1
1
1
1
1
1
1
1
1
1
1
1
1
1
1
1
1
1
1
1
1
1
1
1
1
1
1
1
1
1
1
1
1
1
1
1
1
1
1
1
1
1
1
1
1
1
1
1
1
1
1
1
1
1
1
1
1
1
1
1
1
1
1
1
1
1
1
1
1
1.26555
2.44976
2.67946
2.67482
2.67208
2.66911
2.66619
2.66321
2.66016
2.65712
2.65402
2.65091
2.64768
2.64446
2.64122
1
1
1
1
1
1
1
1
1
1
1
1
1
1
1
1
1
1
1
1
1
1
1
1
1
1