/*--------------------------------*- C++ -*----------------------------------*\
  =========                 |
  \\      /  F ield         | OpenFOAM: The Open Source CFD Toolbox
   \\    /   O peration     | Website:  https://openfoam.org
    \\  /    A nd           | Version:  7
     \\/     M anipulation  |
\*---------------------------------------------------------------------------*/
FoamFile
{
    version     2.0;
    format      ascii;
    class       volScalarField;
    location    "0.4";
    object      p;
}
// * * * * * * * * * * * * * * * * * * * * * * * * * * * * * * * * * * * * * //

dimensions      [1 -1 -2 0 0 0 0];

internalField   nonuniform List<scalar> 
19968
(
1
1
1
1
1
1
1
1
1
1
1
1
1
1
1
1
1
1
1
1
1
1
1
1
1
1
1
1
1
1
1
1
1
1
1
1
1
1
1
1
1
1
1
1
1
1
1
1
1
1
1
1
1
1
1
1
1
1
1
1
1
1
1
4.8263
11.2872
11.6875
11.7163
11.7569
11.7265
11.6535
11.6059
11.6379
11.7615
11.93
12.0712
12.1623
12.2096
12.2885
12.3883
12.4373
12.3574
12.1901
12.0714
12.0922
12.2387
12.3841
12.4634
12.4835
12.4585
12.4758
12.5572
12.614
12.55
12.4251
12.3339
12.3348
1
1
1
1
1
1
1
1
1
1
1
1
1
1
1
1
1
1
1
1
1
1
1
1
1
1
1
1
1
1
1
1
1
1
1
1
1
1
1
1
1
1
1
1
1
1
1
1
1
1
1
1
1
1
1
1
1
1
1
1
1
1
1
4.72386
11.2418
11.6638
11.7007
11.7396
11.7072
11.6393
11.6015
11.6441
11.7738
11.9417
12.078
12.163
12.2079
12.2856
12.3838
12.4303
12.3475
12.1786
12.0602
12.0852
12.2367
12.3862
12.4696
12.4904
12.4585
12.4722
12.5451
12.5958
12.5338
12.4168
12.3341
12.3386
1
1
1
1
1
1
1
1
1
1
1
1
1
1
1
1
1
1
1
1
1
1
1
1
1
1
1
1
1
1
1
1
1
1
1
1
1
1
1
1
1
1
1
1
1
1
1
1
1
1
1
1
1
1
1
1
1
1
1
1
1
1
1
4.50127
11.1676
11.6371
11.6663
11.7071
11.6713
11.6129
11.5904
11.6492
11.7886
11.9565
12.0863
12.1614
12.2008
12.2752
12.3723
12.4178
12.332
12.1582
12.0378
12.0716
12.235
12.3948
12.4829
12.5008
12.4613
12.4637
12.5215
12.5627
12.5049
12.402
12.3344
12.3454
1
1
1
1
1
1
1
1
1
1
1
1
1
1
1
1
1
1
1
1
1
1
1
1
1
1
1
1
1
1
1
1
1
1
1
1
1
1
1
1
1
1
1
1
1
1
1
1
1
1
1
1
1
1
1
1
1
1
1
1
1
1
1
4.16334
11.0167
11.6092
11.6212
11.655
11.6131
11.5729
11.5781
11.6625
11.8129
11.9781
12.0982
12.1559
12.1844
12.2528
12.3498
12.3964
12.307
12.1262
12.0027
12.0497
12.2314
12.4079
12.5002
12.5139
12.4641
12.4467
12.4809
12.5102
12.4633
12.3843
12.3356
12.3628
1
1
1
1
1
1
1
1
1
1
1
1
1
1
1
1
1
1
1
1
1
1
1
1
1
1
1
1
1
1
1
1
1
1
1
1
1
1
1
1
1
1
1
1
1
1
1
1
1
1
1
1
1
1
1
1
1
1
1
1
1
1
1
3.7043
10.7366
11.5887
11.5625
11.5773
11.5391
11.5334
11.5784
11.6916
11.8463
12.0021
12.1082
12.1427
12.1543
12.2155
12.3148
12.3653
12.2734
12.0851
11.9587
12.0203
12.2254
12.4223
12.5231
12.5279
12.4658
12.4196
12.4212
12.4362
12.4091
12.3642
12.3372
12.3893
1
1
1
1
1
1
1
1
1
1
1
1
1
1
1
1
1
1
1
1
1
1
1
1
1
1
1
1
1
1
1
1
1
1
1
1
1
1
1
1
1
1
1
1
1
1
1
1
1
1
1
1
1
1
1
1
1
1
1
1
1
1
1
3.09551
10.2592
11.5917
11.4802
11.4777
11.475
11.5229
11.6149
11.741
11.8842
12.0181
12.1028
12.115
12.111
12.1646
12.2657
12.3203
12.2276
12.0361
11.9142
11.9914
12.2204
12.4373
12.546
12.5396
12.4609
12.3781
12.3388
12.3365
12.3404
12.3427
12.339
12.4217
1
1
1
1
1
1
1
1
1
1
1
1
1
1
1
1
1
1
1
1
1
1
1
1
1
1
1
1
1
1
1
1
1
1
1
1
1
1
1
1
1
1
1
1
1
1
1
1
1
1
1
1
1
1
1
1
1
1
1
1
1
1
1
2.32586
9.4553
11.4847
11.3742
11.4131
11.4787
11.5661
11.6707
11.7827
11.9004
12.0055
12.0705
12.0747
12.0642
12.1069
12.2001
12.2486
12.1581
11.9829
11.8857
11.9737
12.2147
12.4429
12.5568
12.5416
12.4445
12.323
12.2375
12.2139
12.2581
12.3212
12.3403
12.4556
1
1
1
1
1
1
1
1
1
1
1
1
1
1
1
1
1
1
1
1
1
1
1
1
1
1
1
1
1
1
1
1
1
1
1
1
1
1
1
1
1
1
1
1
1
1
1
1
1
1
1
1
1
1
1
1
1
1
1
1
1
1
1
1.52291
8.1729
11.3059
11.3599
11.4551
11.5288
11.6139
11.7077
11.7955
11.8736
11.9478
12.0089
12.0295
12.0232
12.0452
12.1057
12.1333
12.0656
11.9426
11.8926
11.9746
12.2035
12.4308
12.5468
12.5264
12.4127
12.2557
12.1258
12.0748
12.1606
12.2936
12.3378
12.4809
1
1
1
1
1
1
1
1
1
1
1
1
1
1
1
1
1
1
1
1
1
1
1
1
1
1
1
1
1
1
1
1
1
1
1
1
1
1
1
1
1
1
1
1
1
1
1
1
1
1
1
1
1
1
1
1
1
1
1
1
1
1
1
1.01278
6.52812
11.2637
11.3853
11.4763
11.5702
11.6545
11.7167
11.7604
11.7999
11.8614
11.9337
11.9796
11.9757
11.9625
11.9685
11.9832
11.9756
11.9342
11.9234
11.9735
12.1647
12.382
12.5034
12.4856
12.361
12.1753
12.0079
11.932
12.05
12.2536
12.3276
12.4956
1
1
1
1
1
1
1
1
1
1
1
1
1
1
1
1
1
1
1
1
1
1
1
1
1
1
1
1
1
1
1
1
1
1
1
1
1
1
1
1
1
1
1
1
1
1
1
1
1
1
1
1
1
1
1
1
1
1
1
1
1
1
1
1.00003
4.81615
11.08
11.381
11.4388
11.5222
11.6103
11.6746
11.7082
11.7303
11.7755
11.8466
11.8972
11.8849
11.8414
11.8149
11.8532
11.922
11.9571
11.9559
11.9553
12.0896
12.2914
12.4259
12.4187
12.2864
12.0765
11.8841
11.7984
11.9265
12.1811
12.3002
12.4876
1
1
1
1
1
1
1
1
1
1
1
1
1
1
1
1
1
1
1
1
1
1
1
1
1
1
1
1
1
1
1
1
1
1
1
1
1
1
1
1
1
1
1
1
1
1
1
1
1
1
1
1
1
1
1
1
1
1
1
1
1
1
1
1
2.86323
10.0366
11.3431
11.3753
11.4412
11.5158
11.5962
11.6505
11.6734
11.7015
11.7479
11.778
11.7521
11.6976
11.6826
11.7702
11.9033
11.98
11.9582
11.9019
11.9589
12.1337
12.2899
12.3063
12.1737
11.9498
11.7523
11.6892
11.8051
12.0564
12.2485
12.444
1
1
1
1
1
1
1
1
1
1
1
1
1
1
1
1
1
1
1
1
1
1
1
1
1
1
1
1
1
1
1
1
1
1
1
1
1
1
1
1
1
1
1
1
1
1
1
1
1
1
1
1
1
1
1
1
1
1
1
1
1
1
1
1
1.23773
7.69516
11.4241
11.3991
11.3806
11.3958
11.4464
11.5096
11.5601
11.597
11.6371
11.6617
11.6348
11.5813
11.5816
11.6917
11.8715
11.9884
11.9503
11.8398
11.8046
11.9269
12.0985
12.1511
12.0304
11.8117
11.6257
11.5739
11.6701
11.885
12.1054
12.2976
1
1
1
1
1
1
1
1
1
1
1
1
1
1
1
1
1
1
1
1
1
1
1
1
1
1
1
1
1
1
1
1
1
1
1
1
1
1
1
1
1
1
1
1
1
1
1
1
1
1
1
1
1
1
1
1
1
1
1
1
1
1
1
1
1.0014
4.40535
10.6861
11.237
11.2637
11.2961
11.3192
11.3504
11.3877
11.4418
11.4998
11.5625
11.5714
11.5268
11.5056
11.5683
11.7366
11.8941
11.8919
11.7535
11.6289
11.6534
11.7978
11.8919
11.8259
11.6541
11.5026
11.4487
11.5194
11.6793
11.8767
12.0489
1
1
1
1
1
1
1
1
1
1
1
1
1
1
1
1
1
1
1
1
1
1
1
1
1
1
1
1
1
1
1
1
1
1
1
1
1
1
1
1
1
1
1
1
1
1
1
1
1
1
1
1
1
1
1
1
1
1
1
1
1
1
1
1
1
1.57718
8.29741
11.2382
11.2661
11.3234
11.2856
11.2445
11.2513
11.294
11.3518
11.4329
11.4991
11.5045
11.4515
11.4341
11.5247
11.6771
11.7431
11.6299
11.4483
11.3561
11.4345
11.5708
11.6101
11.5274
11.4046
11.3163
11.3065
11.3738
11.4864
11.5959
1
1
1
1
1
1
1
1
1
1
1
1
1
1
1
1
1
1
1
1
1
1
1
1
1
1
1
1
1
1
1
1
1
1
1
1
1
1
1
1
1
1
1
1
1
1
1
1
1
1
1
1
1
1
1
1
1
1
1
1
1
1
1
1
1
1.00625
4.1378
10.4549
11.1567
11.1236
11.1068
11.095
11.1354
11.1961
11.2544
11.309
11.3645
11.3794
11.33
11.2614
11.2623
11.3747
11.4848
11.434
11.2383
11.0493
11.0183
11.1329
11.2483
11.2426
11.1293
10.9865
10.8789
10.8755
10.9291
10.9783
1
1
1
1
1
1
1
1
1
1
1
1
1
1
1
1
1
1
1
1
1
1
1
1
1
1
1
1
1
1
1
1
1
1
1
1
1
1
1
1
1
1
1
1
1
1
1
1
1
1
1
1
1
1
1
1
1
1
1
1
1
1
1
1
1
1.00001
1.15606
6.86393
11.0125
11.0069
10.9742
10.978
11.0152
11.0571
11.0747
11.0723
11.0824
11.1088
11.124
11.0845
11.0195
11.0371
11.1172
11.1354
10.9953
10.7807
10.6394
10.6521
10.759
10.8228
10.7713
10.621
10.4089
10.3093
10.2038
10.2912
1
1
1
1
1
1
1
1
1
1
1
1
1
1
1
1
1
1
1
1
1
1
1
1
1
1
1
1
1
1
1
1
1
1
1
1
1
1
1
1
1
1
1
1
1
1
1
1
1
1
1
1
1
1
1
1
1
1
1
1
1
1
1
1
1
1
0.998929
2.56801
9.24723
10.7669
10.7893
10.8899
10.9621
11.0062
10.9969
10.927
10.851
10.8402
10.8878
10.8976
10.8125
10.7297
10.7319
10.7739
10.7433
10.5858
10.38
10.2357
10.1974
10.1941
10.0738
9.80365
9.33781
8.69685
7.66106
5.71972
1
1
1
1
1
1
1
1
1
1
1
1
1
1
1
1
1
1
1
1
1
1
1
1
1
1
1
1
1
1
1
1
1
1
1
1
1
1
1
1
1
1
1
1
1
1
1
1
1
1
1
1
1
1
1
1
1
1
1
1
1
1
1
1
1
1
0.999873
1.0643
5.4082
10.4679
10.6727
10.7246
10.7711
10.801
10.8126
10.7621
10.6815
10.6613
10.7133
10.7579
10.6862
10.5328
10.3998
10.3861
10.4398
10.3939
10.2031
9.9434
9.71742
9.56492
9.35217
9.02785
8.50524
7.67508
6.42119
4.74852
1
1
1
1
1
1
1
1
1
1
1
1
1
1
1
1
1
1
1
1
1
1
1
1
1
1
1
1
1
1
1
1
1
1
1
1
1
1
1
1
1
1
1
1
1
1
1
1
1
1
1
1
1
1
1
1
1
1
1
1
1
1
1
1
1
1
0.999993
1.00015
1.60505
8.10644
10.7044
10.7168
10.7255
10.6912
10.6476
10.5854
10.5189
10.4871
10.4986
10.5384
10.5177
10.3669
10.1596
10.0597
10.0744
10.0842
9.96699
9.68644
9.3379
9.0275
8.72194
8.35076
7.78833
6.9891
5.93109
4.74837
1
1
1
1
1
1
1
1
1
1
1
1
1
1
1
1
1
1
1
1
1
1
1
1
1
1
1
1
1
1
1
1
1
1
1
1
1
1
1
1
1
1
1
1
1
1
1
1
1
1
1
1
1
1
1
1
1
1
1
1
1
1
1
1
1
1
1
1
1.008
3.50145
9.67753
10.5075
10.4693
10.4843
10.4662
10.4698
10.4653
10.4316
10.3731
10.3271
10.2827
10.1653
9.98753
9.84402
9.75091
9.69319
9.59546
9.34113
9.01948
8.66287
8.27717
7.84257
7.28861
6.62076
5.7837
4.89735
1
1
1
1
1
1
1
1
1
1
1
1
1
1
1
1
1
1
1
1
1
1
1
1
1
1
1
1
1
1
1
1
1
1
1
1
1
1
1
1
1
1
1
1
1
1
1
1
1
1
1
1
1
1
1
1
1
1
1
1
1
1
1
1
1
1
1
1
1
1.13232
5.61321
10.2735
10.3903
10.3331
10.2908
10.2533
10.2513
10.2441
10.2025
10.1278
10.0502
9.9599
9.84009
9.71016
9.55452
9.37926
9.19121
8.94079
8.67143
8.36948
7.98053
7.5399
7.03136
6.43884
5.7676
5.08134
1
1
1
1
1
1
1
1
1
1
1
1
1
1
1
1
1
1
1
1
1
1
1
1
1
1
1
1
1
1
1
1
1
1
1
1
1
1
1
1
1
1
1
1
1
1
1
1
1
1
1
1
1
1
1
1
1
1
1
1
1
1
1
1
1
1
1
1
1
1.00055
1.45824
7.17809
10.3659
10.2893
10.2231
10.1674
10.107
10.0582
9.98159
9.87581
9.76223
9.68213
9.61822
9.53865
9.3919
9.18305
8.91973
8.6313
8.36562
8.08563
7.74112
7.3406
6.87581
6.36464
5.82302
5.29588
1
1
1
1
1
1
1
1
1
1
1
1
1
1
1
1
1
1
1
1
1
1
1
1
1
1
1
1
1
1
1
1
1
1
1
1
1
1
1
1
1
1
1
1
1
1
1
1
1
1
1
1
1
1
1
1
1
1
1
1
1
1
1
1
1
1
1
1
1
1
1.00528
2.14866
8.23946
10.1086
10.1219
10.1233
10.0506
9.94776
9.84658
9.72693
9.59382
9.46102
9.34689
9.25591
9.1329
8.95601
8.71352
8.44542
8.16974
7.88961
7.5745
7.20123
6.78046
6.33259
5.87795
5.45659
1
1
1
1
1
1
1
1
1
1
1
1
1
1
1
1
1
1
1
1
1
1
1
1
1
1
1
1
1
1
1
1
1
1
1
1
1
1
1
1
1
1
1
1
1
1
1
1
1
1
1
1
1
1
1
1
1
1
1
1
1
1
1
1
1
1
1
1
1
1
1
1.0271
3.04282
8.84033
9.89199
9.8579
9.85579
9.81781
9.73935
9.63413
9.50277
9.35253
9.19215
9.03357
8.86596
8.67698
8.48093
8.2654
8.03231
7.77314
7.46902
7.11351
6.72643
6.32966
5.9465
5.57455
1
1
1
1
1
1
1
1
1
1
1
1
1
1
1
1
1
1
1
1
1
1
1
1
1
1
1
1
1
1
1
1
1
1
1
1
1
1
1
1
1
1
1
1
1
1
1
1
1
1
1
1
1
1
1
1
1
1
1
1
1
1
1
1
1
1
1
1
1
1
1
1.00005
1.0842
3.73893
9.0799
9.70689
9.63279
9.59546
9.5449
9.46891
9.38537
9.26069
9.09852
8.91288
8.70659
8.48537
8.28437
8.08787
7.88096
7.65096
7.37976
7.06806
6.72233
6.36658
6.03063
5.67727
1
1
1
1
1
1
1
1
1
1
1
1
1
1
1
1
1
1
1
1
1
1
1
1
1
1
1
1
1
1
1
1
1
1
1
1
1
1
1
1
1
1
1
1
1
1
1
1
1
1
1
1
1
1
1
1
1
1
1
1
1
1
1
1
1
1
1
1
1
1
1
1
1.00029
1.15261
4.09392
9.06854
9.53964
9.4288
9.3618
9.29409
9.20859
9.10695
8.97622
8.80947
8.6094
8.38711
8.16921
7.96051
7.74902
7.52683
7.28027
7.01451
6.72497
6.41829
6.12216
5.78592
1
1
1
1
1
1
1
1
1
1
1
1
1
1
1
1
1
1
1
1
1
1
1
1
1
1
1
1
1
1
1
1
1
1
1
1
1
1
1
1
1
1
1
1
1
1
1
1
1
1
1
1
1
1
1
1
1
1
1
1
1
1
1
1
1
1
1
1
1
1
1
1
1
1.00078
1.19916
4.11604
8.88719
9.35
9.228
9.13883
9.0573
8.95108
8.83169
8.68704
8.51198
8.31661
8.10683
7.88172
7.65047
7.42224
7.18684
6.95091
6.71422
6.45687
6.19876
5.89648
1
1
1
1
1
1
1
1
1
1
1
1
1
1
1
1
1
1
1
1
1
1
1
1
1
1
1
1
1
1
1
1
1
1
1
1
1
1
1
1
1
1
1
1
1
1
1
1
1
1
1
1
1
1
1
1
1
1
1
1
1
1
1
1
1
1
1
1
1
1
1
1
1
1
1.00124
1.20528
3.84469
8.56634
9.12049
9.03525
8.92439
8.8335
8.71172
8.56054
8.40207
8.23478
8.0469
7.83275
7.59478
7.35535
7.1245
6.90169
6.69535
6.47218
6.24243
5.98428
1
1
1
1
1
1
1
1
1
1
1
1
1
1
1
1
1
1
1
1
1
1
1
1
1
1
1
1
1
1
1
1
1
1
1
1
1
1
1
1
1
1
1
1
1
1
1
1
1
1
1
1
1
1
1
1
1
1
1
1
1
1
1
1
1
1
1
1
1
1
1
1
1
1
1
1.00133
1.17211
3.34995
8.03527
8.89261
8.90166
8.72052
8.58818
8.46244
8.31489
8.15501
7.98193
7.78934
7.56672
7.3325
7.11243
6.8944
6.69179
6.48153
6.26267
6.03949
1
1
1
1
1
1
1
1
1
1
1
1
1
1
1
1
1
1
1
1
1
1
1
1
1
1
1
1
1
1
1
1
1
1
1
1
1
1
1
1
1
1
1
1
1
1
1
1
1
1
1
1
1
1
1
1
1
1
1
1
1
1
1
1
1
1
1
1
1
1
1
1
1
1
1
1
1.00102
1.11766
2.84652
7.20347
8.62217
8.70022
8.51503
8.39399
8.26504
8.11093
7.93428
7.74461
7.53538
7.31638
7.10952
6.90032
6.69793
6.49668
6.28189
6.07542
1
1
1
1
1
1
1
1
1
1
1
1
1
1
1
1
1
1
1
1
1
1
1
1
1
1
1
1
1
1
1
1
1
1
1
1
1
1
1
1
1
1
1
1
1
1
1
1
1
1
1
1
1
1
1
1
1
1
1
1
1
1
1
1
1
1
1
1
1
1
1
1
1
1
1
1
1
1.00058
1.07345
2.3158
5.88443
8.37981
8.55424
8.40639
8.21681
8.05324
7.88494
7.69814
7.49899
7.29607
7.10203
6.9066
6.71318
6.52408
6.31585
6.11783
1
1
1
1
1
1
1
1
1
1
1
1
1
1
1
1
1
1
1
1
1
1
1
1
1
1
1
1
1
1
1
1
1
1
1
1
1
1
1
1
1
1
1
1
1
1
1
1
1
1
1
1
1
1
1
1
1
1
1
1
1
1
1
1
1
1
1
1
1
1
1
1
1
1
1
1
1
1
1.00029
1.03653
1.72759
4.54978
8.01326
8.23758
8.1851
7.96283
7.80951
7.65293
7.48393
7.29973
7.11535
6.93043
6.75334
6.56895
6.35927
6.17518
1
1
1
1
1
1
1
1
1
1
1
1
1
1
1
1
1
1
1
1
1
1
1
1
1
1
1
1
1
1
1
1
1
1
1
1
1
1
1
1
1
1
1
1
1
1
1
1
1
1
1
1
1
1
1
1
1
1
1
1
1
1
1
1
1
1
1
1
1
1
1
1
1
1
1
1
1
1
1
1.00009
1.01251
1.34113
3.54409
6.72831
7.96179
8.03773
7.86807
7.67817
7.4823
7.29886
7.1508
6.98745
6.80399
6.61557
6.39948
6.2264
1
1
1
1
1
1
1
1
1
1
1
1
1
1
1
1
1
1
1
1
1
1
1
1
1
1
1
1
1
1
1
1
1
1
1
1
1
1
1
1
1
1
1
1
1
1
1
1
1
1
1
1
1
1
1
1
1
1
1
1
1
1
1
1
1
1
1
1
1
1
1
1
1
1
1
1
1
1
1
1
1.00002
1.00361
1.15829
2.39892
5.13947
7.63956
7.797
7.72191
7.50076
7.29243
7.15466
7.00863
6.84695
6.68508
6.49599
6.29886
1
1
1
1
1
1
1
1
1
1
1
1
1
1
1
1
1
1
1
1
1
1
1
1
1
1
1
1
1
1
1
1
1
1
1
1
1
1
1
1
1
1
1
1
1
1
1
1
1
1
1
1
1
1
1
1
1
1
1
1
1
1
1
1
1
1
1
1
1
1
1
1
1
1
1
1
1
1
1
1
1
1
1.001
1.04653
1.57471
3.81697
6.35802
7.52327
7.58038
7.46859
7.23107
7.02545
6.84556
6.69728
6.55946
6.38746
1
1
1
1
1
1
1
1
1
1
1
1
1
1
1
1
1
1
1
1
1
1
1
1
1
1
1
1
1
1
1
1
1
1
1
1
1
1
1
1
1
1
1
1
1
1
1
1
1
1
1
1
1
1
1
1
1
1
1
1
1
1
1
1
1
1
1
1
1
1
1
1
1
1
1
1
1
1
1
1
1
1
1
1.00015
1.00925
1.21931
2.39259
4.87609
6.90819
7.24312
7.23385
7.15676
6.97345
6.79464
6.56577
6.38813
1
1
1
1
1
1
1
1
1
1
1
1
1
1
1
1
1
1
1
1
1
1
1
1
1
1
1
1
1
1
1
1
1
1
1
1
1
1
1
1
1
1
1
1
1
1
1
1
1
1
1
1
1
1
1
1
1
1
1
1
1
1
1
1
1
1
1
1
1
1
1
1
1
1
1
1
1
1
1
1
1
1
1
1
1.00001
1.00175
1.05074
1.54016
3.17339
5.71369
6.72647
6.90476
7.02293
6.94965
6.76073
6.49814
1
1
1
1
1
1
1
1
1
1
1
1
1
1
1
1
1
1
1
1
1
1
1
1
1
1
1
1
1
1
1
1
1
1
1
1
1
1
1
1
1
1
1
1
1
1
1
1
1
1
1
1
1
1
1
1
1
1
1
1
1
1
1
1
1
1
1
1
1
1
1
1
1
1
1
1
1
1
1
1
1
1
1
1
1
1
1.00017
1.00875
1.13843
1.97441
3.8873
5.71373
6.55267
6.86814
6.87986
6.73859
1
1
1
1
1
1
1
1
1
1
1
1
1
1
1
1
1
1
1
1
1
1
1
1
1
1
1
1
1
1
1
1
1
1
1
1
1
1
1
1
1
1
1
1
1
1
1
1
1
1
1
1
1
1
1
1
1
1
1
1
1
1
1
1
1
1
1
1
1
1
1
1
1
1
1
1
1
1
1
1
1
1
1
1
1
1
1
1.00001
1.0009
1.02578
1.28657
2.30663
4.03177
5.85095
6.60761
6.6309
1
1
1
1
1
1
1
1
1
1
1
1
1
1
1
1
1
1
1
1
1
1
1
1
1
1
1
1
1
1
1
1
1
1
1
1
1
1
1
1
1
1
1
1
1
1
1
1
1
1
1
1
1
1
1
1
1
1
1
1
1
1
1
1
1
1
1
1
1
1
1
1
1
1
1
1
1
1
1
1
1
1
1
1
1
1
1
1
1
1.00006
1.00297
1.05088
1.37542
2.52678
4.31485
5.78959
1
1
1
1
1
1
1
1
1
1
1
1
1
1
1
1
1
1
1
1
1
1
1
1
1
1
1
1
1
1
1
1
1
1
1
1
1
1
1
1
1
1
1
1
1
1
1
1
1
1
1
1
1
1
1
1
1
1
1
1
1
1
1
1
1
1
1
1
1
1
1
1
1
1
1
1
1
1
1
1
1
1
1
1
1
1
1
1
1
1
1
1.00019
1.00506
1.07706
1.47808
2.6374
1
1
1
1
1
1
1
1
1
1
1
1
1
1
1
1
1
1
1
1
1
1
1
1
1
1
1
1
1
1
1
1
1
1
1
1
1
1
1
1
1
1
1
1
1
1
1
1
1
1
1
1
1
1
1
1
1
1
1
1
1
1
1
1
1
1
1
1
1
1
1
1
1
1
1
1
1
1
1
1
1
1
1
1
1
1
1
1
1
1
1
1
1.00001
1.00038
1.00811
1.08436
1
1
1
1
1
1
1
1
1
1
1
1
1
1
1
1
1
1
1
1
1
1
1
1
1
1
1
1
1
1
1
1
1
1
1
1
1
1
1
1
1
1
1
1
1
1
1
1
1
1
1
1
1
1
1
1
1
1
1
1
1
1
1
1
1
1
1
1
1
1
1
1
1
1
1
1
1
1
1
1
1
1
1
1
1
1
1
1
1
1
1
1
1
1
1.00001
1.00041
1
1
1
1
1
1
1
1
1
1
1
1
1
1
1
1
1
1
1
1
1
1
1
1
1
1
1
1
1
1
1
1
1
1
1
1
1
1
1
1
1
1
1
1
1
1
1
1
1
1
1
1
1
1
1
1
1
1
1
1
1
1
1
1
1
1
1
1
1
1
1
1
1
1
1
1
1
1
1
1
1
1
1
1
1
1
1
1
1
1
1
1
1
1
1
1
1
1
1
1
1
1
1
1
1
1
1
1
1
1
1
1
1
1
1
1
1
1
1
1
1
1
1
1
1
1
1
1
1
1
1
1
1
1
1
1
1
1
1
1
1
1
1
1
1
1
1
1
1
1
1
1
1
1
1
1
1
1
1
1
1
1
1
1
1
1
1
1
1
1
1
1
1
1
1
1
1
1
1
1
1
1
1
1
1
1
1
1
1
1
1
1
1
1
1
1
1
1
1
1
1
1
1
1
1
1
1
1
1
1
1
1
1
1
1
1
1
1
1
1
1
1
1
1
1
1
1
1
1
1
1
1
1
1
1
1
1
1
1
1
1
1
1
1
1
1
1
1
1
1
1
1
1
1
1
1
1
1
1
1
1
1
1
1
1
1
1
1
1
1
1
1
1
1
1
1
1
1
1
1
1
1
1
1
1
1
1
1
1
1
1
1
1
1
1
1
1
1
1
1
1
1
1
1
1
1
1
1
1
1
1
1
1
1
1
1
1
1
1
1
1
1
1
1
1
1
1
1
1
1
1
1
1
1
1
1
1
1
1
1
1
1
1
1
1
1
1
1
1
1
1
1
1
1
1
1
1
1
1
1
1
1
1
1
1
1
1
1
1
1
1
1
1
1
1
1
1
1
1
1
1
1
1
1
1
1
1
1
1
1
1
1
1
1
1
1
1
1
1
1
1
1
1
1
1
1
1
1
1
1
1
1
1
1
1
1
1
1
1
1
1
1
1
1
1
1
1
1
1
1
1
1
1
1
1
1
1
1
1
1
1
1
1
1
1
1
1
1
1
1
1
1
1
1
1
1
1
1
1
1
1
1
1
1
1
1
1
1
1
1
1
1
1
1
1
1
1
1
1
1
1
1
1
1
1
1
1
1
1
1
1
1
1
1
1
1
1
1
1
1
1
1
1
1
1
1
1
1
1
1
1
1
1
1
1
1
1
1
1
1
1
1
1
1
1
1
1
1
1
1
1
1
1
1
1
1
1
1
1
1
1
1
1
1
1
1
1
1
1
1
1
1
1
1
1
1
1
1
1
1
1
1
1
1
1
1
1
1
1
1
1
1
1
1
1
1
1
1
1
1
1
1
1
1
1
1
1
1
1
1
1
1
1
1
1
1
1
1
1
1
1
1
1
1
1
1
1
1
1
1
1
1
1
1
1
1
1
1
1
1
1
1
1
1
1
1
1
1
1
1
1
1
1
1
1
1
1
1
1
1
1
1
1
1
1
1
1
1
1
1
1
1
1
1
1
1
1
1
1
1
1
1
1
1
1
1
1
1
1
1
1
1
1
1
1
1
1
1
1
1
1
1
1
1
1
1
1
1
1
1
1
1
1
1
1
1
1
1
1
1
1
1
1
1
1
1
1
1
1
1
1
1
1
1
1
1
1
1
1
1
1
1
1
1
1
1
1
1
1
1
1
1
1
1
1
1
1
1
1
1
1
1
1
1
1
1
1
1
1
1
1
1
1
1
1
1
1
1
1
1
1
1
1
1
1
1
1
1
1
1
1
1
1
1
1
1
1
1
1
1
1
1
1
1
1
1
1
1
1
1
1
1
1
1
1
1
1
1
1
1
1
1
1
1
1
1
1
1
1
1
1
1
1
1
1
1
1
1
1
1
1
1
1
1
1
1
1
1
1
1
1
1
1
1
1
1
1
1
1
1
1
1
1
1
1
1
1
1
1
1
1
1
1
1
1
1
1
1
1
1
1
1
1
1
1
1
1
1
1
1
1
1
1
1
1
1
1
1
1
1
1
1
1
1
1
1
1
1
1
1
1
1
1
1
1
1
1
1
1
1
1
1
1
1
1
1
1
1
1
1
1
1
1
1
1
1
1
1
1
1
1
1
1
1
1
1
1
1
1
1
1
1
1
1
1
1
1
1
1
1
1
1
1
1
1
1
1
1
1
1
1
1
1
1
1
1
1
1
1
1
1
1
1
1
1
1
1
1
1
1
1
1
1
1
1
1
1
1
1
1
1
1
1
1
1
1
1
1
1
1
1
1
1
1
1
1
1
1
1
1
1
1
1
1
1
1
1
1
1
1
1
1
1
1
1
1
1
1
1
1
1
1
1
1
1
1
1
1
1
1
1
1
1
1
1
1
1
1
1
1
1
1
1
1
1
1
1
1
1
1
1
1
1
1
1
1
1
1
1
1
1
1
1
1
1
1
1
1
1
1
1
1
1
1
1
1
1
1
1
1
1
1
1
1
1
1
1
1
1
1
1
1
1
1
1
1
1
1
1
1
1
1
1
1
1
1
1
1
1
1
1
1
1
1
1
1
1
1
1
1
1
1
1
1
1
1
1
1
1
1
1
1
1
1
1
1
1
1
1
1
1
1
1
1
1
1
1
1
1
1
1
1
1
1
1
1
1
1
1
1
1
1
1
1
1
1
1
1
1
1
1
1
1
1
1
1
1
1
1
1
1
1
1
1
1
1
1
1
1
1
1
1
1
1
1
1
1
1
1
1
1
1
1
1
1
1
1
1
1
1
1
1
1
1
1
1
1
1
1
1
1
1
1
1
1
1
1
1
1
1
1
1
1
1
1
1
1
1
1
1
1
1
1
1
1
1
1
1
1
1
1
1
1
1
1
1
1
1
1
1
1
1
1
1
1
1
1
1
1
1
1
1
1
1
1
1
1
1
1
1
1
1
1
1
1
1
1
1
1
1
1
1
1
1
1
1
1
1
1
1
1
1
1
1
1
1
1
1
1
1
1
1
1
1
1
1
1
1
1
1
1
1
1
1
1
1
1
1
1
1
1
1
1
1
1
1
1
1
1
1
1
1
1
1
1
1
1
1
1
1
1
1
1
1
1
1
1
1
1
1
1
1
1
1
1
1
1
1
1
1
1
1
1
1
1
1
1
1
1
1
1
1
1
1
1
1
1
1
1
1
1
1
1
1
1
1
1
1
1
1
1
1
1
1
1
1
1
1
1
1
1
1
1
1
1
1
1
1
1
1
1
1
1
1
1
1
1
1
1
1
1
1
1
1
1
1
1
1
1
1
1
1
1
1
1
1
1
1
1
1
1
1
1
1
1
1
1
1
1
1
1
1
1
1
1
1
1
1
1
1
1
1
1
1
1
1
1
1
1
1
1
1
1
1
1
1
1
1
1
1
1
1
1
1
1
1
1
1
1
1
1
1
1
1
1
1
1
1
1
1
1
1
1
1
1
1
1
1
1
1
1
1
1
1
1
1
1
1
1
1
1
1
1
1
1
1
1
1
1
1
1
1
1
1
1
1
1
1
1
1
1
1
1
1
1
1
1
1
1
1
1
1
1
1
1
1
1
1
1
1
1
1
1
1
1
1
1
1
1
1
1
1
1
1
1
1
1
1
1
1
1
1
1
1
1
1
1
1
1
1
1
1
1
1
1
1
1
1
1
1
1
1
1
1
1
1
1
1
1
1
1
1
1
1
1
1
1
1
1
1
1
1
1
1
1
1
1
1
1
1
1
1
1
1
1
1
1
1
1
1
1
1
1
1
1
1
1
1
1
1
1
1
1
1
1
1
1
1
1
1
1
1
1
1
1
1
1
1
1
1
1
1
1
1
1
1
1
1
1
1
1
1
1
1
1
1
1
1
1
1
1
1
1
1
1
1
1
1
1
1
1
1
1
1
1
1
1
1
1
1
1
1
1
1
1
1
1
1
1
1
1
1
1
1
1
1
1
1
1
1
1
1
1
1
1
1
1
1
1
1
1
1
1
1
1
1
1
1
1
1
1
1
1
1
1
1
1
1
1
1
1
1
1
1
1
1
1
1
1
1
1
1
1
1
1
1
1
1
1
1
1
1
1
1
1
1
1
1
1
1
1
1
1
1
1
1
1
1
1
1
1
1
1
1
1
1
1
1
1
1
1
1
1
1
1
1
1
1
1
1
1
1
1
1
1
1
1
1
1
1
1
1
1
1
1
1
1
1
1
1
1
1
1
1
1
1
1
1
1
1
1
1
1
1
1
1
1
1
1
1
1
1
1
1
1
1
1
1
1
1
1
1
1
1
1
1
1
1
1
1
1
1
1
1
1
1
1
1
1
1
1
1
1
1
1
1
1
1
1
1
1
1
1
1
1
1
1
1
1
1
1
1
1
1
1
1
1
1
1
1
1
1
1
1
1
1
1
1
1
1
1
1
1
1
1
1
1
1
1
1
1
1
1
1
1
1
1
1
1
1
1
1
1
1
1
1
1
1
1
1
1
1
1
1
1
1
1
1
1
1
1
1
1
1
1
1
1
1
1
1
1
1
1
1
1
1
1
1
1
1
1
1
1
1
1
1
1
1
1
1
1
1
1
1
1
1
1
1
1
1
1
1
1
1
1
1
1
1
1
1
1
1
1
1
1
1
1
1
1
1
1
1
1
1
1
1
1
1
1
1
1
1
1
1
1
1
1
1
1
1
1
1
1
1
1
1
1
1
1
1
1
1
1
1
1
1
1
1
1
1
1
1
1
1
1
1
1
1
1
1
1
1
1
1
1
1
1
1
1
1
1
1
1
1
1
1
1
1
1
1
1
1
1
1
1
1
1
1
1
1
1
1
1
1
1
1
1
1
1
1
1
1
1
1
1
1
1
1
1
1
1
1
1
1
1
1
1
1
1
1
1
1
1
1
1
1
1
1
1
1
1
1
1
1
1
1
1
1
1
1
1
1
1
1
1
1
1
1
1
1
1
1
1
1
1
1
1
1
1
1
1
1
1
1
1
1
1
1
1
1
1
1
1
1
1
1
1
1
1
1
1
1
1
1
1
1
1
1
1
1
1
1
1
1
1
1
1
1
1
1
1
1
1
1
1
1
1
1
1
1
1
1
1
1
1
1
1
1
1
1
1
1
1
1
1
1
1
1
1
1
1
1
1
1
1
1
1
1
1
1
1
1
1
1
1
1
1
1
1
1
1
1
1
1
1
1
1
1
1
1
1
1
1
1
1
1
1
1
1
1
1
1
1
1
1
1
1
1
1
1
1
1
1
1
1
1
1
1
1
1
1
1
1
1
1
1
1
1
1
1
1
1
1
1
1
1
1
1
1
1
1
1
1
1
1
1
1
1
1
1
1
1
1
1
1
1
1
1
1
1
1
1
1
1
1
1
1
1
1
1
1
1
1
1
1
1
1
1
1
1
1
1
1
1
1
1
1
1
1
1
1
1
1
1
1
1
1
1
1
1
1
1
1
1
1
1
1
1
1
1
1
1
1
1
1
1
1
1
1
1
1
1
1
1
1
1
1
1
1
1
1
1
1
1
1
1
1
1
1
1
1
1
1
1
1
1
1
1
1
1
1
1
1
1
1
1
1
1
1
1
1
1
1
1
1
1
1
1
1
1
1
1
1
1
1
1
1
1
1
1
1
1
1
1
1
1
1
1
1
1
1
1
1
1
1
1
1
1
1
1
1
1
1
1
1
1
1
1
1
1
1
1
1
1
1
1
1
1
1
1
1
1
1
1
1
1
1
1
1
1
1
1
1
1
1
1
1
1
1
1
1
1
1
1
1
1
1
1
1
1
1
1
1
1
1
1
1
1
1
1
1
1
1
1
1
1
1
1
1
1
1
1
1
1
1
1
1
1
1
1
1
1
1
1
1
1
1
1
1
1
1
1
1
1
1
1
1
1
1
1
1
1
1
1
1
1
1
1
1
1
1
1
1
1
1
1
1
1
1
1
1
1
1
1
1
1
1
1
1
1
1
1
1
1
1
1
1
1
1
1
1
1
1
1
1
1
1
1
1
1
1
1
1
1
1
1
1
1
1
1
1
1
1
1
1
1
1
1
1
1
1
1
1
1
1
1
1
1
1
1
1
1
1
1
1
1
1
1
1
1
1
1
1
1
1
1
1
1
1
1
1
1
1
1
1
1
1
1
1
1
1
1
1
1
1
1
1
1
1
1
1
1
1
1
1
1
1
1
1
1
1
1
1
1
1
1
1
1
1
1
1
1
1
1
1
1
1
1
1
1
1
1
1
1
1
1
1
1
1
1
1
1
1
1
1
1
1
1
1
1
1
1
1
1
1
1
1
1
1
1
1
1
1
1
1
1
1
1
1
1
1
1
1
1
1
1
1
1
1
1
1
1
1
1
1
1
1
1
1
1
1
1
1
1
1
1
1
1
1
1
1
1
1
1
1
1
1
1
1
1
1
1
1
1
1
1
1
1
1
1
1
1
1
1
1
1
1
1
1
1
1
1
1
1
1
1
1
1
1
1
1
1
1
1
1
1
1
1
1
1
1
1
1
1
1
1
1
1
1
1
1
1
1
1
1
1
1
1
1
1
1
1
1
1
1
1
1
1
1
1
1
1
1
1
1
1
1
1
1
1
1
1
1
1
1
1
1
1
1
1
1
1
1
1
1
1
1
1
1
1
1
1
1
1
1
1
1
1
1
1
1
1
1
1
1
1
1
1
1
1
1
1
1
1
1
1
1
1
1
1
1
1
1
1
1
1
1
1
1
1
1
1
1
1
1
1
1
1
1
1
1
1
1
1
1
1
1
1
1
1
1
1
1
1
1
1
1
1
1
1
1
1
1
1
1
1
1
1
1
1
1
1
1
1
1
1
1
1
1
1
1
1
1
1
1
1
1
1
1
1
1
1
1
1
1
1
1
1
1
1
1
1
1
1
1
1
1
1
1
1
1
1
1
1
1
1
1
1
1
1
1
1
1
1
1
1
1
1
1
1
1
1
1
1
1
1
1
1
1
1
1
1
1
1
1
1
1
1
1
1
1
1
1
1
1
1
1
1
1
1
1
1
1
1
1
1
1
1
1
1
1
1
1
1
1
1
1
1
1
1
1
1
1
1
1
1
1
1
1
1
1
1
1
1
1
1
1
1
1
1
1
1
1
1
1
1
1
1
1
1
1
1
1
1
1
1
1
1
1
1
1
1
1
1
1
1
1
1
1
1
1
1
1
1
1
1
1
1
1
1
1
1
1
1
1
1
1
1
1
1
1
1
1
1
1
1
1
1
1
1
1
1
1
1
1
1
1
1
1
1
1
1
1
1
1
1
1
1
1
1
1
1
1
1
1
1
1
1
1
1
1
1
1
1
1
1
1
1
1
1
1
1
1
1
1
1
1
1
1
1
1
1
1
1
1
1
1
1
1
1
1
1
1
1
1
1
1
1
1
1
1
1
1
1
1
1
1
1
1
1
1
1
1
1
1
1
1
1
1
1
1
1
1
1
1
1
1
1
1
1
1
1
1
1
1
1
1
1
1
1
1
1
1
1
1
1
1
1
1
1
1
1
1
1
1
1
1
1
1
1
1
1
1
1
1
1
1
1
1
1
1
1
1
1
1
1
1
1
1
1
1
1
1
1
1
1
1
1
1
1
1
1
1
1
1
1
1
1
1
1
1
1
1
1
1
1
1
1
1
1
1
1
1
1
1
1
1
1
1
1
1
1
1
1
1
1
1
1
1
1
1
1
1
1
1
1
1
1
1
1
1
1
1
1
1
1
1
1
1
1
1
1
1
1
1
1
1
1
1
1
1
1
1
1
1
1
1
1
1
1
1
1
1
1
1
1
1
1
1
1
1
1
1
1
1
1
1
1
1
1
1
1
1
1
1
1
1
1
1
1
1
1
1
1
1
1
1
1
1
1
1
1
1
1
1
1
1
1
1
1
1
1
1
1
1
1
1
1
1
1
1
1
1
1
1
1
1
1
1
1
1
1
1
1
1
1
1
1
1
1
1
1
1
1
1
1
1
1
1
1
1
1
1
1
1
1
1
1
1
1
1
1
1
1
1
1
1
1
1
1
1
1
1.21899
0.196149
0.0529261
0.0596259
0.0660435
0.0829997
0.10953
0.152469
0.213642
0.286649
0.367499
0.43743
0.492991
0.5539
0.636249
0.72959
0.804245
0.813583
0.815855
0.838705
0.851895
0.848826
0.84542
0.85239
0.872835
0.896097
0.914107
0.931572
0.945018
0.947353
0.943084
0.940977
0.942908
0.949818
0.962175
0.966662
0.964416
0.957185
0.943784
0.929621
0.922645
0.917941
0.914052
0.91092
0.906027
0.8999
0.891663
0.882285
0.874276
0.866741
0.861129
0.857722
0.855691
0.854512
0.853536
0.852102
0.852005
0.853488
0.857279
0.862715
0.868704
0.875218
0.881955
0.887402
0.890952
0.893919
0.898193
0.903894
0.910577
0.9162
0.920065
0.921897
0.921691
0.920754
0.920902
0.923003
0.927486
0.934099
0.941013
0.946215
0.948988
0.949037
0.946766
0.944271
0.944295
0.947796
0.954767
0.967372
0.98306
0.991652
0.977888
0.968842
0.975568
0.983543
0.990691
0.99546
0.997867
1.00131
1.00899
1.01232
1.01055
1.00936
1.00909
1.00897
1.00893
1.00974
1.01436
1.02352
1.03028
1.03104
1.03044
1.0295
1.02832
1.02647
1.02379
1.02163
1.02105
1.02096
1.02092
1.02097
1.02138
1.02188
1.02197
1.02192
1.02147
1.0199
1.0163
1.01005
1.00328
1.00032
1
1
1
1
1
1
1
1
1
1
1
1
1
1
1
1
1
1
1
1
1
1
1
1
1
1
1
1
1
1
1
1
1
1
1
1
1
1
1
1
1
1
1
1
1
1
1
1
1
1
1
1
1
1
1
1
1
1
1
1
1
1
2.1159
0.825596
0.45708
0.380334
0.288264
0.225886
0.223346
0.230985
0.230232
0.232382
0.247714
0.285653
0.331259
0.378296
0.432483
0.503896
0.601686
0.658684
0.687071
0.719916
0.759197
0.796589
0.818553
0.836141
0.863259
0.892869
0.908898
0.920313
0.931751
0.935772
0.936528
0.937018
0.940367
0.946581
0.954478
0.958089
0.957802
0.954137
0.946219
0.936578
0.930226
0.924798
0.918347
0.911797
0.905774
0.898736
0.88963
0.881032
0.873385
0.865973
0.860058
0.856476
0.854039
0.852758
0.851542
0.85087
0.851566
0.854072
0.859121
0.866699
0.873621
0.878236
0.882213
0.885638
0.888067
0.890636
0.89463
0.900296
0.907822
0.914376
0.918536
0.921382
0.92355
0.925446
0.927528
0.930147
0.933709
0.93831
0.94318
0.947227
0.949817
0.950286
0.948694
0.946195
0.944722
0.946677
0.952635
0.959427
0.967364
0.969447
0.956837
0.953435
0.963591
0.973141
0.981683
0.987998
0.991666
0.995457
1.00267
1.00733
1.0062
1.00523
1.00551
1.00602
1.00639
1.00768
1.01247
1.02115
1.02851
1.02991
1.02946
1.02867
1.0277
1.02611
1.02362
1.02149
1.02096
1.02093
1.02094
1.02109
1.02158
1.02197
1.022
1.02194
1.02146
1.02
1.01646
1.01
1.00315
1.00029
1
1
1
1
1
1
1
1
1
1
1
1
1
1
1
1
1
1
1
1
1
1
1
1
1
1
1
1
1
1
1
1
1
1
1
1
1
1
1
1
1
1
1
1
1
1
1
1
1
1
1
1
1
1
1
1
1
1
1
1
1
1
2.95243
1.76628
1.17072
0.827853
0.62098
0.458257
0.424257
0.388948
0.338352
0.292039
0.286418
0.3044
0.343308
0.375111
0.391055
0.401133
0.43637
0.508174
0.567077
0.604085
0.656149
0.726214
0.794702
0.836865
0.872026
0.90705
0.913617
0.923532
0.936073
0.93754
0.93403
0.938523
0.945706
0.950109
0.951757
0.953434
0.954955
0.949806
0.941782
0.937693
0.935074
0.931804
0.926247
0.918732
0.909302
0.89704
0.884784
0.877109
0.87048
0.863826
0.859073
0.856755
0.855519
0.85417
0.852036
0.850209
0.850488
0.852704
0.857436
0.865525
0.875369
0.88146
0.885522
0.889264
0.892263
0.894436
0.89738
0.901856
0.908917
0.915682
0.919019
0.921237
0.923206
0.924538
0.92537
0.926616
0.92925
0.932464
0.934132
0.934296
0.933758
0.932848
0.932547
0.934645
0.939928
0.948412
0.958763
0.968489
0.976298
0.978427
0.968074
0.964651
0.974137
0.983123
0.990947
0.99603
0.99817
1.00075
1.0075
1.01136
1.00998
1.00898
1.00894
1.00903
1.00914
1.01012
1.01416
1.02172
1.02881
1.03063
1.03032
1.02957
1.02851
1.0268
1.02416
1.02186
1.02121
1.02113
1.02111
1.02125
1.02182
1.02224
1.02228
1.02221
1.02169
1.01997
1.01609
1.00948
1.0028
1.00023
1
1
1
1
1
1
1
1
1
1
1
1
1
1
1
1
1
1
1
1
1
1
1
1
1
1
1
1
1
1
1
1
1
1
1
1
1
1
1
1
1
1
1
1
1
1
1
1
1
1
1
1
1
1
1
1
1
1
1
1
1
1
3.58976
2.49715
1.82746
1.39846
1.07224
0.825692
0.687443
0.611898
0.559315
0.497181
0.443715
0.425919
0.428826
0.426751
0.408726
0.397989
0.399675
0.413859
0.439098
0.475316
0.531675
0.608982
0.689926
0.750641
0.782777
0.821331
0.845702
0.869142
0.905254
0.936985
0.945724
0.960176
0.964869
0.963006
0.956942
0.951122
0.946135
0.937386
0.932689
0.932225
0.932829
0.931737
0.927934
0.921442
0.911807
0.898963
0.88636
0.877877
0.870848
0.864175
0.859651
0.857141
0.855366
0.853322
0.850436
0.847941
0.847771
0.84956
0.854306
0.862615
0.873451
0.880426
0.884493
0.887836
0.890857
0.89308
0.895655
0.899829
0.907298
0.916236
0.919278
0.920771
0.922533
0.923516
0.924523
0.927125
0.932466
0.936848
0.938342
0.93927
0.93968
0.939056
0.937573
0.936782
0.938916
0.944865
0.953354
0.961477
0.968162
0.971814
0.968674
0.969589
0.979629
0.987184
0.992101
0.99516
0.996906
0.999694
1.00645
1.01035
1.00985
1.00988
1.01012
1.01014
1.01024
1.01136
1.01508
1.02141
1.02798
1.03054
1.03047
1.02992
1.02894
1.02718
1.02442
1.02203
1.02134
1.02127
1.02126
1.02149
1.02217
1.0226
1.02264
1.02256
1.02197
1.02009
1.01583
1.00879
1.00231
1.00016
1
1
1
1
1
1
1
1
1
1
1
1
1
1
1
1
1
1
1
1
1
1
1
1
1
1
1
1
1
1
1
1
1
1
1
1
1
1
1
1
1
1
1
1
1
1
1
1
1
1
1
1
1
1
1
1
1
1
1
1
1
1
4.06293
3.09339
2.36781
1.89134
1.55672
1.28617
1.02734
0.846588
0.763854
0.704304
0.65124
0.571153
0.531823
0.53029
0.512634
0.471427
0.437242
0.436909
0.451831
0.459631
0.469031
0.490196
0.534166
0.59469
0.641087
0.689687
0.755378
0.799086
0.837658
0.878736
0.896614
0.92008
0.955132
0.971031
0.970015
0.965419
0.955327
0.940073
0.932129
0.930793
0.930559
0.929924
0.927636
0.922079
0.912522
0.901455
0.890149
0.880438
0.872671
0.866421
0.861635
0.858043
0.855558
0.853342
0.850336
0.84802
0.847836
0.849491
0.854486
0.863465
0.875184
0.880064
0.882508
0.886122
0.889197
0.891245
0.89307
0.896838
0.903464
0.913169
0.918091
0.91999
0.922754
0.926369
0.929614
0.932871
0.937522
0.941916
0.943282
0.943606
0.943776
0.943726
0.943703
0.944446
0.946553
0.950504
0.956486
0.962071
0.964695
0.966247
0.969862
0.977318
0.986162
0.989921
0.990413
0.990582
0.992584
0.999032
1.00751
1.00927
1.00908
1.0101
1.01108
1.01111
1.01112
1.01202
1.01546
1.02181
1.02832
1.03069
1.03065
1.0302
1.02927
1.02746
1.02455
1.02214
1.02151
1.02144
1.02147
1.02188
1.02277
1.02322
1.02326
1.02314
1.02236
1.02012
1.01529
1.00782
1.00174
1.00009
1
1
1
1
1
1
1
1
1
1
1
1
1
1
1
1
1
1
1
1
1
1
1
1
1
1
1
1
1
1
1
1
1
1
1
1
1
1
1
1
1
1
1
1
1
1
1
1
1
1
1
1
1
1
1
1
1
1
1
1
1
1
4.44594
3.55763
2.89799
2.35681
1.93467
1.65523
1.39912
1.17898
0.974031
0.88929
0.848057
0.778837
0.699051
0.670296
0.655849
0.612705
0.547449
0.525213
0.520685
0.51129
0.490872
0.492003
0.500013
0.507362
0.513775
0.529781
0.577665
0.642467
0.698595
0.769442
0.82797
0.867501
0.91524
0.937792
0.938272
0.938173
0.948158
0.953007
0.949736
0.947748
0.943704
0.933582
0.921587
0.90958
0.898677
0.8928
0.887314
0.881632
0.877835
0.874553
0.869004
0.862924
0.857364
0.85131
0.846082
0.843123
0.841919
0.843392
0.848845
0.85963
0.874716
0.879376
0.880783
0.884247
0.887612
0.889984
0.892082
0.896
0.90295
0.912393
0.919694
0.922197
0.924122
0.927208
0.930726
0.934225
0.937713
0.940292
0.941178
0.941302
0.941331
0.941335
0.94173
0.943149
0.945689
0.9497
0.955453
0.96069
0.963141
0.964947
0.971719
0.981774
0.987643
0.989547
0.99029
0.991004
0.993359
1.00065
1.00782
1.00883
1.00859
1.00949
1.01077
1.01122
1.01137
1.01263
1.01624
1.02224
1.02829
1.03063
1.03069
1.03033
1.02943
1.02759
1.02467
1.0223
1.0217
1.02165
1.02174
1.02237
1.02347
1.02394
1.02398
1.0238
1.02283
1.02012
1.01451
1.00658
1.00116
1.00004
1
1
1
1
1
1
1
1
1
1
1
1
1
1
1
1
1
1
1
1
1
1
1
1
1
1
1
1
1
1
1
1
1
1
1
1
1
1
1
1
1
1
1
1
1
1
1
1
1
1
1
1
1
1
1
1
1
1
1
1
1
1
4.76745
3.9724
3.30364
2.74332
2.33399
1.9953
1.69472
1.44678
1.26657
1.13703
1.04898
0.98717
0.894254
0.804594
0.770763
0.727646
0.66589
0.622172
0.618461
0.607005
0.571991
0.532809
0.526575
0.522228
0.512104
0.512974
0.521574
0.53858
0.563881
0.606469
0.676052
0.740119
0.811601
0.872537
0.887492
0.906146
0.926772
0.93793
0.948875
0.956954
0.955356
0.943571
0.923065
0.90399
0.893005
0.887857
0.883286
0.880407
0.879692
0.87916
0.873894
0.866583
0.858525