/*--------------------------------*- C++ -*----------------------------------*\
  =========                 |
  \\      /  F ield         | OpenFOAM: The Open Source CFD Toolbox
   \\    /   O peration     | Website:  https://openfoam.org
    \\  /    A nd           | Version:  7
     \\/     M anipulation  |
\*---------------------------------------------------------------------------*/
FoamFile
{
    version     2.0;
    format      ascii;
    class       volScalarField;
    location    "1.8";
    object      rho;
}
// * * * * * * * * * * * * * * * * * * * * * * * * * * * * * * * * * * * * * //

dimensions      [1 -3 0 0 0 0 0];

internalField   nonuniform List<scalar> 
19968
(
1.40001
1.40001
1.40001
1.40001
1.40001
1.40001
1.40001
1.40001
1.40001
1.40001
1.40001
1.40001
1.40001
1.40001
1.40001
1.40001
1.40001
1.40001
1.40001
1.40001
1.40001
1.40001
1.40001
1.40001
1.40001
1.40001
1.40001
1.40001
1.40001
1.40001
1.40001
1.40001
1.40001
1.40001
1.40001
1.40001
1.40001
1.40001
1.40001
1.40001
1.40001
1.40001
1.40001
1.40001
1.40001
1.40001
1.40001
1.40001
1.40001
1.40001
2.82214
5.24405
5.41517
5.43199
5.45561
5.47859
5.50541
5.53789
5.57263
5.6012
5.61795
5.62546
5.63131
5.64177
5.66005
5.68626
5.71754
5.74838
5.77344
5.78954
5.79785
5.80257
5.80838
5.81806
5.83228
5.84896
5.86337
5.87136
5.87433
5.87745
5.88277
5.89056
5.90251
5.91606
5.92855
5.93709
5.9417
5.94438
5.94653
5.94726
5.94473
5.93558
5.91475
5.88559
5.8606
5.8516
1.40001
1.40001
1.40001
1.40001
1.40001
1.40001
1.40001
1.40001
1.40001
1.40001
1.40001
1.40001
1.40001
1.40001
1.40001
1.40001
1.40001
1.40001
1.40001
1.40001
1.40001
1.40001
1.40001
1.40001
1.40001
1.40001
1.40001
1.40001
1.40001
1.40001
1.40001
1.40001
1.40001
1.40001
1.40001
1.40001
1.40001
1.40001
1.40001
1.40001
1.40001
1.40001
1.40001
1.40001
1.40001
1.40001
1.40001
1.40001
1.40001
1.40001
2.79152
5.23256
5.40915
5.43026
5.45593
5.47909
5.50551
5.53731
5.57119
5.59905
5.61572
5.62396
5.63066
5.64184
5.6604
5.68645
5.71703
5.74686
5.77133
5.78732
5.79623
5.80147
5.80756
5.81722
5.83128
5.84769
5.86184
5.86976
5.87277
5.87582
5.88092
5.88864
5.90042
5.91404
5.92686
5.93553
5.94011
5.94258
5.94433
5.94471
5.94205
5.93279
5.91214
5.88336
5.85883
5.85005
1.40001
1.40001
1.40001
1.40001
1.40001
1.40001
1.40001
1.40001
1.40001
1.40001
1.40001
1.40001
1.40001
1.40001
1.40001
1.40001
1.40001
1.40001
1.40001
1.40001
1.40001
1.40001
1.40001
1.40001
1.40001
1.40001
1.40001
1.40001
1.40001
1.40001
1.40001
1.40001
1.40001
1.40001
1.40001
1.40001
1.40001
1.40001
1.40001
1.40001
1.40001
1.40001
1.40001
1.40001
1.40001
1.40001
1.40001
1.40001
1.40001
1.40001
2.72285
5.20802
5.40359
5.42614
5.45501
5.47891
5.5052
5.53597
5.56858
5.59556
5.6124
5.62179
5.62977
5.64179
5.66052
5.68611
5.71546
5.74381
5.76754
5.78341
5.79308
5.79912
5.80572
5.81533
5.82899
5.84495
5.8589
5.86698
5.87042
5.87373
5.87882
5.88645
5.89758
5.91071
5.92354
5.93227
5.93698
5.93945
5.94084
5.94064
5.93743
5.92764
5.90704
5.87898
5.85538
5.84718
1.40001
1.40001
1.40001
1.40001
1.40001
1.40001
1.40001
1.40001
1.40001
1.40001
1.40001
1.40001
1.40001
1.40001
1.40001
1.40001
1.40001
1.40001
1.40001
1.40001
1.40001
1.40001
1.40001
1.40001
1.40001
1.40001
1.40001
1.40001
1.40001
1.40001
1.40001
1.40001
1.40001
1.40001
1.40001
1.40001
1.40001
1.40001
1.40001
1.40001
1.40001
1.40001
1.40001
1.40001
1.40001
1.40001
1.40001
1.40001
1.40001
1.40001
2.60339
5.17022
5.40185
5.42518
5.45595
5.48017
5.50576
5.53494
5.56568
5.59184
5.60946
5.62041
5.62986
5.64256
5.66111
5.68564
5.71289
5.73919
5.76181
5.77742
5.78787
5.79501
5.80232
5.81196
5.82505
5.8403
5.8538
5.86192
5.86579
5.86959
5.87505
5.8829
5.89362
5.90623
5.91878
5.92733
5.93188
5.9341
5.93509
5.93433
5.93042
5.91999
5.8993
5.87207
5.84976
5.84228
1.40001
1.40001
1.40001
1.40001
1.40001
1.40001
1.40001
1.40001
1.40001
1.40001
1.40001
1.40001
1.40001
1.40001
1.40001
1.40001
1.40001
1.40001
1.40001
1.40001
1.40001
1.40001
1.40001
1.40001
1.40001
1.40001
1.40001
1.40001
1.40001
1.40001
1.40001
1.40001
1.40001
1.40001
1.40001
1.40001
1.40001
1.40001
1.40001
1.40001
1.40001
1.40001
1.40001
1.40001
1.40001
1.40001
1.40001
1.40001
1.40001
1.40001
2.43076
5.10237
5.40604
5.42993
5.46106
5.48468
5.5085
5.53468
5.56232
5.5872
5.60559
5.61817
5.62922
5.64273
5.66105
5.68388
5.70842
5.73224
5.7535
5.76882
5.78015
5.78875
5.79708
5.80693
5.81934
5.83365
5.8465
5.85453
5.85883
5.86332
5.86958
5.87796
5.88866
5.90078
5.91251
5.92029
5.92422
5.926
5.92666
5.92572
5.92139
5.91028
5.88939
5.86288
5.842
5.83518
1.40001
1.40001
1.40001
1.40001
1.40001
1.40001
1.40001
1.40001
1.40001
1.40001
1.40001
1.40001
1.40001
1.40001
1.40001
1.40001
1.40001
1.40001
1.40001
1.40001
1.40001
1.40001
1.40001
1.40001
1.40001
1.40001
1.40001
1.40001
1.40001
1.40001
1.40001
1.40001
1.40001
1.40001
1.40001
1.40001
1.40001
1.40001
1.40001
1.40001
1.40001
1.40001
1.40001
1.40001
1.40001
1.40001
1.40001
1.40001
1.40001
1.40001
2.20622
4.9907
5.4132
5.43614
5.46674
5.48931
5.51135
5.53452
5.5592
5.58284
5.60196
5.61632
5.62886
5.64275
5.6602
5.68002
5.70165
5.72366
5.74393
5.75931
5.77152
5.78139
5.79041
5.80011
5.81144
5.82448
5.83647
5.84434
5.84907
5.85443
5.86181
5.871
5.88214
5.89399
5.90452
5.91078
5.91335
5.91433
5.91474
5.91417
5.91001
5.89854
5.87749
5.8514
5.83168
5.82519
1.40001
1.40001
1.40001
1.40001
1.40001
1.40001
1.40001
1.40001
1.40001
1.40001
1.40001
1.40001
1.40001
1.40001
1.40001
1.40001
1.40001
1.40001
1.40001
1.40001
1.40001
1.40001
1.40001
1.40001
1.40001
1.40001
1.40001
1.40001
1.40001
1.40001
1.40001
1.40001
1.40001
1.40001
1.40001
1.40001
1.40001
1.40001
1.40001
1.40001
1.40001
1.40001
1.40001
1.40001
1.40001
1.40001
1.40001
1.40001
1.40001
1.40001
1.94515
4.81113
5.42461
5.44756
5.47725
5.49844
5.5175
5.53637
5.55648
5.57708
5.59579
5.6117
5.6259
5.6405
5.65672
5.67488
5.69467
5.7145
5.73316
5.74829
5.76078
5.77141
5.78068
5.78984
5.79983
5.81144
5.82258
5.83051
5.83587
5.84227
5.85085
5.86094
5.87284
5.88479
5.89425
5.8987
5.89946
5.89926
5.89934
5.89955
5.89609
5.88476
5.86358
5.83737
5.818
5.81127
1.40001
1.40001
1.40001
1.40001
1.40001
1.40001
1.40001
1.40001
1.40001
1.40001
1.40001
1.40001
1.40001
1.40001
1.40001
1.40001
1.40001
1.40001
1.40001
1.40001
1.40001
1.40001
1.40001
1.40001
1.40001
1.40001
1.40001
1.40001
1.40001
1.40001
1.40001
1.40001
1.40001
1.40001
1.40001
1.40001
1.40001
1.40001
1.40001
1.40001
1.40001
1.40001
1.40001
1.40001
1.40001
1.40001
1.40001
1.40001
1.40001
1.40001
1.69959
4.55836
5.4344
5.4509
5.4808
5.50159
5.51908
5.53463
5.55015
5.56698
5.58432
5.60129
5.61759
5.63437
5.65137
5.66879
5.68657
5.70355
5.72014
5.73477
5.74783
5.75981
5.77008
5.77931
5.78837
5.79865
5.80885
5.81673
5.82258
5.82955
5.83845
5.84862
5.8604
5.87179
5.87991
5.88235
5.88083
5.87913
5.87872
5.87966
5.87757
5.8672
5.84596
5.81902
5.79895
5.7915
1.40001
1.40001
1.40001
1.40001
1.40001
1.40001
1.40001
1.40001
1.40001
1.40001
1.40001
1.40001
1.40001
1.40001
1.40001
1.40001
1.40001
1.40001
1.40001
1.40001
1.40001
1.40001
1.40001
1.40001
1.40001
1.40001
1.40001
1.40001
1.40001
1.40001
1.40001
1.40001
1.40001
1.40001
1.40001
1.40001
1.40001
1.40001
1.40001
1.40001
1.40001
1.40001
1.40001
1.40001
1.40001
1.40001
1.40001
1.40001
1.40001
1.40001
1.43728
4.14582
5.44031
5.46248
5.48855
5.51109
5.52762
5.54017
5.55109
5.56343
5.57822
5.59463
5.61215
5.629
5.64425
5.65979
5.67474
5.6879
5.70079
5.71317
5.72557
5.73837
5.74977
5.7595
5.76817
5.77755
5.78718
5.79545
5.80225
5.80996
5.81895
5.82885
5.84034
5.85146
5.85906
5.86055
5.85761
5.8546
5.8537
5.85521
5.85467
5.84561
5.82428
5.79616
5.77435
5.76591
1.40001
1.40001
1.40001
1.40001
1.40001
1.40001
1.40001
1.40001
1.40001
1.40001
1.40001
1.40001
1.40001
1.40001
1.40001
1.40001
1.40001
1.40001
1.40001
1.40001
1.40001
1.40001
1.40001
1.40001
1.40001
1.40001
1.40001
1.40001
1.40001
1.40001
1.40001
1.40001
1.40001
1.40001
1.40001
1.40001
1.40001
1.40001
1.40001
1.40001
1.40001
1.40001
1.40001
1.40001
1.40001
1.40001
1.40001
1.40001
1.40001
1.40001
1.40026
3.57969
5.34929
5.42513
5.45528
5.48633
5.50787
5.52236
5.53217
5.54199
5.55492
5.57083
5.58947
5.60814
5.62482
5.64155
5.65733
5.67034
5.68218
5.69362
5.70545
5.71836
5.73025
5.74033
5.74888
5.75756
5.76651
5.77468
5.78168
5.78923
5.79733
5.80601
5.81651
5.82727
5.83508
5.83657
5.83274
5.82814
5.82604
5.82716
5.82719
5.81876
5.79701
5.7671
5.74265
5.73308
1.40001
1.40001
1.40001
1.40001
1.40001
1.40001
1.40001
1.40001
1.40001
1.40001
1.40001
1.40001
1.40001
1.40001
1.40001
1.40001
1.40001
1.40001
1.40001
1.40001
1.40001
1.40001
1.40001
1.40001
1.40001
1.40001
1.40001
1.40001
1.40001
1.40001
1.40001
1.40001
1.40001
1.40001
1.40001
1.40001
1.40001
1.40001
1.40001
1.40001
1.40001
1.40001
1.40001
1.40001
1.40001
1.40001
1.40001
1.40001
1.40001
1.40001
1.40001
2.88551
5.19863
5.41041
5.45044
5.48453
5.50735
5.52127
5.52865
5.53475
5.54423
5.55712
5.57295
5.58982
5.6057
5.62152
5.63739
5.65079
5.66204
5.67243
5.68291
5.69497
5.7069
5.71743
5.72636
5.73483
5.74313
5.75064
5.7567
5.76284
5.76871
5.77478
5.78278
5.79178
5.79925
5.80109
5.79711
5.79138
5.78836
5.78922
5.78996
5.78292
5.76202
5.7315
5.70517
5.69523
1.40001
1.40001
1.40001
1.40001
1.40001
1.40001
1.40001
1.40001
1.40001
1.40001
1.40001
1.40001
1.40001
1.40001
1.40001
1.40001
1.40001
1.40001
1.40001
1.40001
1.40001
1.40001
1.40001
1.40001
1.40001
1.40001
1.40001
1.40001
1.40001
1.40001
1.40001
1.40001
1.40001
1.40001
1.40001
1.40001
1.40001
1.40001
1.40001
1.40001
1.40001
1.40001
1.40001
1.40001
1.40001
1.40001
1.40001
1.40001
1.40001
1.40001
1.40001
2.13655
4.90403
5.40739
5.43214
5.46555
5.48794
5.50417
5.51471
5.5226
5.53126
5.54139
5.55287
5.56594
5.57943
5.59325
5.60824
5.62245
5.63405
5.64417
5.65317
5.66335
5.67437
5.68506
5.69469
5.70364
5.71175
5.7184
5.72288
5.72686
5.73049
5.73458
5.74045
5.74808
5.75558
5.75881
5.7559
5.7493
5.74427
5.74223
5.73999
5.73039
5.70692
5.67375
5.6448
5.6341
1.40001
1.40001
1.40001
1.40001
1.40001
1.40001
1.40001
1.40001
1.40001
1.40001
1.40001
1.40001
1.40001
1.40001
1.40001
1.40001
1.40001
1.40001
1.40001
1.40001
1.40001
1.40001
1.40001
1.40001
1.40001
1.40001
1.40001
1.40001
1.40001
1.40001
1.40001
1.40001
1.40001
1.40001
1.40001
1.40001
1.40001
1.40001
1.40001
1.40001
1.40001
1.40001
1.40001
1.40001
1.40001
1.40001
1.40001
1.40001
1.40001
1.40001
1.40001
1.48504
4.27147
5.44156
5.45169
5.46464
5.47863
5.48973
5.49996
5.50886
5.51763
5.52666
5.53542
5.54478
5.55501
5.56552
5.57723
5.58971
5.60043
5.60938
5.61619
5.62311
5.63157
5.64136
5.65156
5.66154
5.67003
5.67569
5.67775
5.67838
5.67932
5.68126
5.6842
5.6886
5.69321
5.6953
5.69176
5.68407
5.67683
5.67189
5.66687
5.65542
5.63132
5.59832
5.5696
5.55986
1.40001
1.40001
1.40001
1.40001
1.40001
1.40001
1.40001
1.40001
1.40001
1.40001
1.40001
1.40001
1.40001
1.40001
1.40001
1.40001
1.40001
1.40001
1.40001
1.40001
1.40001
1.40001
1.40001
1.40001
1.40001
1.40001
1.40001
1.40001
1.40001
1.40001
1.40001
1.40001
1.40001
1.40001
1.40001
1.40001
1.40001
1.40001
1.40001
1.40001
1.40001
1.40001
1.40001
1.40001
1.40001
1.40001
1.40001
1.40001
1.40001
1.40001
1.40001
1.40045
3.23513
5.28241
5.37707
5.39343
5.41171
5.42977
5.44862
5.46618
5.48194
5.4955
5.50689
5.51706
5.52728
5.53701
5.5475
5.55857
5.56857
5.57699
5.58297
5.58777
5.59352
5.60127
5.61061
5.62022
5.6281
5.63213
5.63152
5.62836
5.62627
5.62535
5.62396
5.62385
5.62425
5.62343
5.61872
5.61068
5.60194
5.59303
5.58181
5.56359
5.53233
5.49199
5.45739
5.44198
1.40001
1.40001
1.40001
1.40001
1.40001
1.40001
1.40001
1.40001
1.40001
1.40001
1.40001
1.40001
1.40001
1.40001
1.40001
1.40001
1.40001
1.40001
1.40001
1.40001
1.40001
1.40001
1.40001
1.40001
1.40001
1.40001
1.40001
1.40001
1.40001
1.40001
1.40001
1.40001
1.40001
1.40001
1.40001
1.40001
1.40001
1.40001
1.40001
1.40001
1.40001
1.40001
1.40001
1.40001
1.40001
1.40001
1.40001
1.40001
1.40001
1.40001
1.40001
1.40001
2.04431
4.83138
5.37189
5.36398
5.37829
5.39295
5.41035
5.42847
5.44663
5.46314
5.4767
5.4879
5.49783
5.50619
5.51387
5.52182
5.52923
5.53529
5.53925
5.54145
5.54402
5.54885
5.55607
5.56394
5.57048
5.57313
5.57019
5.5635
5.55778
5.55292
5.54641
5.53988
5.53258
5.52367
5.51219
5.49806
5.47991
5.45688
5.42937
5.39644
5.35968
5.31587
5.2847
5.27336
1.40001
1.40001
1.40001
1.40001
1.40001
1.40001
1.40001
1.40001
1.40001
1.40001
1.40001
1.40001
1.40001
1.40001
1.40001
1.40001
1.40001
1.40001
1.40001
1.40001
1.40001
1.40001
1.40001
1.40001
1.40001
1.40001
1.40001
1.40001
1.40001
1.40001
1.40001
1.40001
1.40001
1.40001
1.40001
1.40001
1.40001
1.40001
1.40001
1.40001
1.40001
1.40001
1.40001
1.40001
1.40001
1.40001
1.40001
1.40001
1.40001
1.40001
1.40001
1.40001
1.42531
3.54765
5.31372
5.35855
5.36837
5.38018
5.39324
5.40714
5.42204
5.43732
5.45026
5.46015
5.46791
5.47376
5.47841
5.4833
5.48805
5.49154
5.49318
5.49296
5.49254
5.49428
5.49831
5.50295
5.50609
5.50522
5.49872
5.4877
5.47627
5.46481
5.45177
5.43673
5.41962
5.40123
5.38131
5.3591
5.33185
5.29959
5.26296
5.22074
5.1676
5.10438
5.01724
5.02893
1.40001
1.40001
1.40001
1.40001
1.40001
1.40001
1.40001
1.40001
1.40001
1.40001
1.40001
1.40001
1.40001
1.40001
1.40001
1.40001
1.40001
1.40001
1.40001
1.40001
1.40001
1.40001
1.40001
1.40001
1.40001
1.40001
1.40001
1.40001
1.40001
1.40001
1.40001
1.40001
1.40001
1.40001
1.40001
1.40001
1.40001
1.40001
1.40001
1.40001
1.40001
1.40001
1.40001
1.40001
1.40001
1.40001
1.40001
1.40001
1.40001
1.40001
1.40001
1.40001
1.39959
2.20111
4.92559
5.34978
5.34924
5.3626
5.37553
5.38835
5.40114
5.41514
5.42823
5.43769
5.44406
5.44769
5.44921
5.45001
5.45043
5.45012
5.44891
5.44641
5.44338
5.44277
5.44378
5.44463
5.44366
5.43837
5.42757
5.4121
5.39425
5.37586
5.35591
5.33284
5.30648
5.27787
5.24626
5.20953
5.16203
5.10142
5.02042
4.91347
4.75418
4.51608
4.08956
3.18294
1.40001
1.40001
1.40001
1.40001
1.40001
1.40001
1.40001
1.40001
1.40001
1.40001
1.40001
1.40001
1.40001
1.40001
1.40001
1.40001
1.40001
1.40001
1.40001
1.40001
1.40001
1.40001
1.40001
1.40001
1.40001
1.40001
1.40001
1.40001
1.40001
1.40001
1.40001
1.40001
1.40001
1.40001
1.40001
1.40001
1.40001
1.40001
1.40001
1.40001
1.40001
1.40001
1.40001
1.40001
1.40001
1.40001
1.40001
1.40001
1.40001
1.40001
1.40001
1.40001
1.39993
1.45477
3.98897
5.33543
5.34733
5.3573
5.36584
5.37405
5.3823
5.39275
5.40475
5.41486
5.42185
5.42534
5.42582
5.4236
5.41969
5.41448
5.40966
5.40524
5.40136
5.39942
5.39795
5.39528
5.38994
5.38038
5.36578
5.34592
5.32264
5.29764
5.27053
5.23999
5.2051
5.16685
5.12274
5.07092
5.00337
4.91764
4.80113
4.65258
4.44077
4.14937
3.61907
2.86092
1.40001
1.40001
1.40001
1.40001
1.40001
1.40001
1.40001
1.40001
1.40001
1.40001
1.40001
1.40001
1.40001
1.40001
1.40001
1.40001
1.40001
1.40001
1.40001
1.40001
1.40001
1.40001
1.40001
1.40001
1.40001
1.40001
1.40001
1.40001
1.40001
1.40001
1.40001
1.40001
1.40001
1.40001
1.40001
1.40001
1.40001
1.40001
1.40001
1.40001
1.40001
1.40001
1.40001
1.40001
1.40001
1.40001
1.40001
1.40001
1.40001
1.40001
1.40001
1.40001
1.4
1.40008
2.62732
5.04684
5.30735
5.31949
5.33534
5.34592
5.35601
5.36555
5.3742
5.38217
5.39034
5.39672
5.39975
5.3979
5.3911
5.38072
5.37124
5.36402
5.35881
5.35427
5.34947
5.34311
5.33366
5.31975
5.30111
5.27737
5.24903
5.21744
5.18243
5.14406
5.10063
5.05318
4.99755
4.93207
4.84885
4.74317
4.60651
4.43027
4.20821
3.88549
3.44816
2.94217
1.40001
1.40001
1.40001
1.40001
1.40001
1.40001
1.40001
1.40001
1.40001
1.40001
1.40001
1.40001
1.40001
1.40001
1.40001
1.40001
1.40001
1.40001
1.40001
1.40001
1.40001
1.40001
1.40001
1.40001
1.40001
1.40001
1.40001
1.40001
1.40001
1.40001
1.40001
1.40001
1.40001
1.40001
1.40001
1.40001
1.40001
1.40001
1.40001
1.40001
1.40001
1.40001
1.40001
1.40001
1.40001
1.40001
1.40001
1.40001
1.40001
1.40001
1.40001
1.40001
1.40001
1.4
1.51254
4.28391
5.34062
5.32989
5.32996
5.33205
5.33568
5.34008
5.34478
5.35057
5.35898
5.36645
5.36976
5.36748
5.35905
5.34622
5.3337
5.32423
5.31712
5.30926
5.30027
5.28964
5.27571
5.25752
5.2351
5.20827
5.17585
5.13883
5.0967
5.05056
4.99888
4.94225
4.87717
4.80111
4.7082
4.59209
4.44788
4.26682
4.04483
3.75906
3.42908
3.05244
1.40001
1.40001
1.40001
1.40001
1.40001
1.40001
1.40001
1.40001
1.40001
1.40001
1.40001
1.40001
1.40001
1.40001
1.40001
1.40001
1.40001
1.40001
1.40001
1.40001
1.40001
1.40001
1.40001
1.40001
1.40001
1.40001
1.40001
1.40001
1.40001
1.40001
1.40001
1.40001
1.40001
1.40001
1.40001
1.40001
1.40001
1.40001
1.40001
1.40001
1.40001
1.40001
1.40001
1.40001
1.40001
1.40001
1.40001
1.40001
1.40001
1.40001
1.40001
1.40001
1.40001
1.40001
1.40053
2.80313
5.03201
5.28899
5.29851
5.30063
5.30241
5.30536
5.31136
5.31865
5.32719
5.33464
5.33712
5.33294
5.32333
5.31051
5.29648
5.28425
5.27414
5.26273
5.24904
5.23347
5.21511
5.19355
5.16821
5.13881
5.10343
5.06279
5.01603
4.96392
4.90524
4.84011
4.76739
4.68431
4.58678
4.46826
4.3266
4.15146
3.94754
3.71092
3.44357
3.15867
1.40001
1.40001
1.40001
1.40001
1.40001
1.40001
1.40001
1.40001
1.40001
1.40001
1.40001
1.40001
1.40001
1.40001
1.40001
1.40001
1.40001
1.40001
1.40001
1.40001
1.40001
1.40001
1.40001
1.40001
1.40001
1.40001
1.40001
1.40001
1.40001
1.40001
1.40001
1.40001
1.40001
1.40001
1.40001
1.40001
1.40001
1.40001
1.40001
1.40001
1.40001
1.40001
1.40001
1.40001
1.40001
1.40001
1.40001
1.40001
1.40001
1.40001
1.40001
1.40001
1.40001
1.40001
1.4
1.53898
4.213
5.31004
5.30974
5.2996
5.2958
5.29111
5.29018
5.29351
5.29929
5.30467
5.3063
5.2999
5.28919
5.27674
5.26227
5.24721
5.23323
5.21773
5.19892
5.1782
5.15507
5.13029
5.10224
5.07028
5.03256
4.98939
4.94003
4.88433
4.82023
4.74823
4.66965
4.58267
4.48486
4.36902
4.23663
4.07512
3.89735
3.69791
3.4764
3.2441
1.40001
1.40001
1.40001
1.40001
1.40001
1.40001
1.40001
1.40001
1.40001
1.40001
1.40001
1.40001
1.40001
1.40001
1.40001
1.40001
1.40001
1.40001
1.40001
1.40001
1.40001
1.40001
1.40001
1.40001
1.40001
1.40001
1.40001
1.40001
1.40001
1.40001
1.40001
1.40001
1.40001
1.40001
1.40001
1.40001
1.40001
1.40001
1.40001
1.40001
1.40001
1.40001
1.40001
1.40001
1.40001
1.40001
1.40001
1.40001
1.40001
1.40001
1.40001
1.40001
1.40001
1.40001
1.4
1.40089
2.60136
4.98703
5.27672
5.27661
5.27904
5.27254
5.26432
5.25929
5.25966
5.26206
5.26359
5.2595
5.25042
5.23895
5.22416
5.20596
5.18725
5.16846
5.14652
5.12287
5.09652
5.06915
5.03923
5.00516
4.96557
4.92073
4.87044
4.81369
4.74703
4.67119
4.58871
4.49943
4.40288
4.291
4.16924
4.02484
3.87295
3.6996
3.51141
3.3122
1.40001
1.40001
1.40001
1.40001
1.40001
1.40001
1.40001
1.40001
1.40001
1.40001
1.40001
1.40001
1.40001
1.40001
1.40001
1.40001
1.40001
1.40001
1.40001
1.40001
1.40001
1.40001
1.40001
1.40001
1.40001
1.40001
1.40001
1.40001
1.40001
1.40001
1.40001
1.40001
1.40001
1.40001
1.40001
1.40001
1.40001
1.40001
1.40001
1.40001
1.40001
1.40001
1.40001
1.40001
1.40001
1.40001
1.40001
1.40001
1.40001
1.40001
1.40001
1.40001
1.40001
1.40001
1.40001
1.4
1.4972
3.86032
5.25401
5.27036
5.27451
5.26393
5.2504
5.23859
5.23244
5.23025
5.23078
5.22925
5.22148
5.20921
5.19195
5.17088
5.14772
5.12416
5.09821
5.07114
5.0418
5.01177
4.97951
4.94296
4.9013
4.85566
4.8057
4.74915
4.68246
4.60594
4.52269
4.43245
4.33743
4.23105
4.11916
3.99261
3.85878
3.70535
3.54712
3.37272
1.40001
1.40001
1.40001
1.40001
1.40001
1.40001
1.40001
1.40001
1.40001
1.40001
1.40001
1.40001
1.40001
1.40001
1.40001
1.40001
1.40001
1.40001
1.40001
1.40001
1.40001
1.40001
1.40001
1.40001
1.40001
1.40001
1.40001
1.40001
1.40001
1.40001
1.40001
1.40001
1.40001
1.40001
1.40001
1.40001
1.40001
1.40001
1.40001
1.40001
1.40001
1.40001
1.40001
1.40001
1.40001
1.40001
1.40001
1.40001
1.40001
1.40001
1.40001
1.40001
1.40001
1.40001
1.40001
1.4
1.40042
2.065
4.78139
5.28392
5.25224
5.2422
5.22712
5.21186
5.20068
5.19325
5.19034
5.18877
5.18206
5.16939
5.15016
5.12724
5.10213
5.07582
5.04868
5.02102
4.99138
4.96052
4.92663
4.8878
4.8442
4.79831
4.74901
4.69304
4.62783
4.5529
4.47226
4.38146
4.28809
4.18835
4.08381
3.97131
3.85015
3.71461
3.5776
3.42441
1.40001
1.40001
1.40001
1.40001
1.40001
1.40001
1.40001
1.40001
1.40001
1.40001
1.40001
1.40001
1.40001
1.40001
1.40001
1.40001
1.40001
1.40001
1.40001
1.40001
1.40001
1.40001
1.40001
1.40001
1.40001
1.40001
1.40001
1.40001
1.40001
1.40001
1.40001
1.40001
1.40001
1.40001
1.40001
1.40001
1.40001
1.40001
1.40001
1.40001
1.40001
1.40001
1.40001
1.40001
1.40001
1.40001
1.40001
1.40001
1.40001
1.40001
1.40001
1.40001
1.40001
1.40001
1.40001
1.40001
1.40001
1.42644
3.2324
5.13687
5.2178
5.21999
5.20844
5.19338
5.17759
5.16323
5.15352
5.14788
5.14046
5.12842
5.10991
5.08689
5.06186
5.03376
5.00479
4.97568
4.94531
4.91401
4.87884
4.83759
4.79159
4.74518
4.69615
4.64145
4.579
4.50799
4.432
4.34284
4.25279
4.15979
4.06051
3.95819
3.84603
3.72525
3.6029
3.46897
1.40001
1.40001
1.40001
1.40001
1.40001
1.40001
1.40001
1.40001
1.40001
1.40001
1.40001
1.40001
1.40001
1.40001
1.40001
1.40001
1.40001
1.40001
1.40001
1.40001
1.40001
1.40001
1.40001
1.40001
1.40001
1.40001
1.40001
1.40001
1.40001
1.40001
1.40001
1.40001
1.40001
1.40001
1.40001
1.40001
1.40001
1.40001
1.40001
1.40001
1.40001
1.40001
1.40001
1.40001
1.40001
1.40001
1.40001
1.40001
1.40001
1.40001
1.40001
1.40001
1.40001
1.40001
1.40001
1.40001
1.40001
1.40004
1.61261
4.15957
5.22749
5.21367
5.20232
5.18316
5.1648
5.14647
5.13066
5.1192
5.10882
5.09659
5.07848
5.05536
5.03028
5.00009
4.96941
4.9389
4.9078
4.87592
4.8398
4.79701
4.74967
4.7022
4.65219
4.59712
4.53645
4.46931
4.3973
4.3135
4.22918
4.14248
4.04862
3.95365
3.84776
3.73808
3.62467
3.50598
1.40001
1.40001
1.40001
1.40001
1.40001
1.40001
1.40001
1.40001
1.40001
1.40001
1.40001
1.40001
1.40001
1.40001
1.40001
1.40001
1.40001
1.40001
1.40001
1.40001
1.40001
1.40001
1.40001
1.40001
1.40001
1.40001
1.40001
1.40001
1.40001
1.40001
1.40001
1.40001
1.40001
1.40001
1.40001
1.40001
1.40001
1.40001
1.40001
1.40001
1.40001
1.40001
1.40001
1.40001
1.40001
1.40001
1.40001
1.40001
1.40001
1.40001
1.40001
1.40001
1.40001
1.40001
1.40001
1.40001
1.40001
1.40001
1.40232
2.29958
4.87186
5.19984
5.1633
5.14548
5.13043
5.11541
5.10104
5.08809
5.07695
5.06547
5.04804
5.02517
5.00024
4.97043
4.93785
4.90535
4.87269
4.83972
4.80261
4.76003
4.71421
4.66496
4.61301
4.55646
4.49645
4.43257
4.36534
4.28957
4.21232
4.13146
4.0444
3.95406
3.85372
3.7532
3.64553
3.53925
1.40001
1.40001
1.40001
1.40001
1.40001
1.40001
1.40001
1.40001
1.40001
1.40001
1.40001
1.40001
1.40001
1.40001
1.40001
1.40001
1.40001
1.40001
1.40001
1.40001
1.40001
1.40001
1.40001
1.40001
1.40001
1.40001
1.40001
1.40001
1.40001
1.40001
1.40001
1.40001
1.40001
1.40001
1.40001
1.40001
1.40001
1.40001
1.40001
1.40001
1.40001
1.40001
1.40001
1.40001
1.40001
1.40001
1.40001
1.40001
1.40001
1.40001
1.40001
1.40001
1.40001
1.40001
1.40001
1.40001
1.40001
1.40001
1.40001
1.44812
3.24466
5.05318
5.11001
5.10425
5.1043
5.09866
5.08831
5.07432
5.06002
5.04564
5.02627
5.0021
4.97676
4.94729
4.91335
4.87868
4.8454
4.81013
4.77193
4.72958
4.68485
4.63436
4.58065
4.52331
4.46331
4.40052
4.33712
4.26842
4.19862
4.12403
4.04371
3.95763
3.86402
3.77015
3.66753
3.57081
1.40001
1.40001
1.40001
1.40001
1.40001
1.40001
1.40001
1.40001
1.40001
1.40001
1.40001
1.40001
1.40001
1.40001
1.40001
1.40001
1.40001
1.40001
1.40001
1.40001
1.40001
1.40001
1.40001
1.40001
1.40001
1.40001
1.40001
1.40001
1.40001
1.40001
1.40001
1.40001
1.40001
1.40001
1.40001
1.40001
1.40001
1.40001
1.40001
1.40001
1.40001
1.40001
1.40001
1.40001
1.40001
1.40001
1.40001
1.40001
1.40001
1.40001
1.40001
1.40001
1.40001
1.40001
1.40001
1.40001
1.40001
1.40001
1.40001
1.40015
1.6117
3.80562
5.04634
5.08377
5.0855
5.08819
5.08294
5.07082
5.05563
5.03773
5.01492
4.98841
4.96094
4.92974
4.89417
4.85702
4.82042
4.78402
4.74434
4.70263
4.65761
4.60792
4.55351
4.49621
4.43675
4.37528
4.31398
4.25011
4.18634
4.117
4.04237
3.96136
3.87386
3.78577
3.68959
3.60016
1.40001
1.40001
1.40001
1.40001
1.40001
1.40001
1.40001
1.40001
1.40001
1.40001
1.40001
1.40001
1.40001
1.40001
1.40001
1.40001
1.40001
1.40001
1.40001
1.40001
1.40001
1.40001
1.40001
1.40001
1.40001
1.40001
1.40001
1.40001
1.40001
1.40001
1.40001
1.40001
1.40001
1.40001
1.40001
1.40001
1.40001
1.40001
1.40001
1.40001
1.40001
1.40001
1.40001
1.40001
1.40001
1.40001
1.40001
1.40001
1.40001
1.40001
1.40001
1.40001
1.40001
1.40001
1.40001
1.40001
1.40001
1.40001
1.40001
1.40001
1.40239
1.80822
4.30666
5.10767
5.09711
5.08996
5.07913
5.06623
5.04807
5.02715
5.00174
4.97289
4.9439
4.9108
4.87395
4.83608
4.79754
4.75938
4.72107
4.67896
4.6344
4.58507
4.53189
4.47537
4.41728
4.35758
4.29766
4.23668
4.17578
4.10966
4.03947
3.96387
3.88228
3.80057
3.71194
3.62874
1.40001
1.40001
1.40001
1.40001
1.40001
1.40001
1.40001
1.40001
1.40001
1.40001
1.40001
1.40001
1.40001
1.40001
1.40001
1.40001
1.40001
1.40001
1.40001
1.40001
1.40001
1.40001
1.40001
1.40001
1.40001
1.40001
1.40001
1.40001
1.40001
1.40001
1.40001
1.40001
1.40001
1.40001
1.40001
1.40001
1.40001
1.40001
1.40001
1.40001
1.40001
1.40001
1.40001
1.40001
1.40001
1.40001
1.40001
1.40001
1.40001
1.40001
1.40001
1.40001
1.40001
1.40001
1.40001
1.40001
1.40001
1.40001
1.40001
1.40001
1.40001
1.40915
2.19853
4.72781
5.12837
5.1028
5.08756
5.06449
5.04051
5.01462
4.98693
4.95659
4.92497
4.88981
4.85189
4.8132
4.77447
4.73493
4.69559
4.65633
4.61273
4.56528
4.51378
4.45936
4.40329
4.34537
4.2869
4.22753
4.16761
4.10314
4.03553
3.96468
3.88859
3.81395
3.73314
3.65585
1.40001
1.40001
1.40001
1.40001
1.40001
1.40001
1.40001
1.40001
1.40001
1.40001
1.40001
1.40001
1.40001
1.40001
1.40001
1.40001
1.40001
1.40001
1.40001
1.40001
1.40001
1.40001
1.40001
1.40001
1.40001
1.40001
1.40001
1.40001
1.40001
1.40001
1.40001
1.40001
1.40001
1.40001
1.40001
1.40001
1.40001
1.40001
1.40001
1.40001
1.40001
1.40001
1.40001
1.40001
1.40001
1.40001
1.40001
1.40001
1.40001
1.40001
1.40001
1.40001
1.40001
1.40001
1.40001
1.40001
1.40001
1.40001
1.40001
1.40001
1.40001
1.40003
1.43505
2.81704
4.93974
5.09427
5.07263
5.05262
5.02677
4.99862
4.96835
4.93719
4.90393
4.86868
4.83126
4.79227
4.75358
4.71481
4.67452
4.63508
4.5941
4.54745
4.49817
4.44691
4.39341
4.33758
4.28075
4.2223
4.16248
4.09842
4.03167
3.96454
3.89384
3.82614
3.7527
3.68072
1.40001
1.40001
1.40001
1.40001
1.40001
1.40001
1.40001
1.40001
1.40001
1.40001
1.40001
1.40001
1.40001
1.40001
1.40001
1.40001
1.40001
1.40001
1.40001
1.40001
1.40001
1.40001
1.40001
1.40001
1.40001
1.40001
1.40001
1.40001
1.40001
1.40001
1.40001
1.40001
1.40001
1.40001
1.40001
1.40001
1.40001
1.40001
1.40001
1.40001
1.40001
1.40001
1.40001
1.40001
1.40001
1.40001
1.40001
1.40001
1.40001
1.40001
1.40001
1.40001
1.40001
1.40001
1.40001
1.40001
1.40001
1.40001
1.40001
1.40001
1.40001
1.40001
1.40013
1.51581
3.2842
4.99412
5.05226
5.02524
5.00636
4.98273
4.95574
4.92479
4.89107
4.85498
4.81736
4.77858
4.73934
4.69983
4.65928
4.61786
4.57572
4.53094
4.48354
4.43548
4.38522
4.33204
4.27704
4.21938
4.15976
4.09607
4.02975
3.9656
3.8999
3.83791
3.77046
3.70274
1.40001
1.40001
1.40001
1.40001
1.40001
1.40001
1.40001
1.40001
1.40001
1.40001
1.40001
1.40001
1.40001
1.40001
1.40001
1.40001
1.40001
1.40001
1.40001
1.40001
1.40001
1.40001
1.40001
1.40001
1.40001
1.40001
1.40001
1.40001
1.40001
1.40001
1.40001
1.40001
1.40001
1.40001
1.40001
1.40001
1.40001
1.40001
1.40001
1.40001
1.40001
1.40001
1.40001
1.40001
1.40001
1.40001
1.40001
1.40001
1.40001
1.40001
1.40001
1.40001
1.40001
1.40001
1.40001
1.40001
1.40001
1.40001
1.40001
1.40001
1.40001
1.40001
1.40001
1.40084
1.61857
3.59025
4.98088
5.00171
4.97664
4.95991
4.93716
4.91091
4.88026
4.84642
4.81
4.77187
4.73277
4.69221
4.65031
4.60734
4.56341
4.51867
4.47279
4.42619
4.37817
4.32755
4.27435
4.21809
4.15939
4.09652
4.03187
3.97084
3.90936
3.85108
3.78779
3.72309
1.40001
1.40001
1.40001
1.40001
1.40001
1.40001
1.40001
1.40001
1.40001
1.40001
1.40001
1.40001
1.40001
1.40001
1.40001
1.40001
1.40001
1.40001
1.40001
1.40001
1.40001
1.40001
1.40001
1.40001
1.40001
1.40001
1.40001
1.40001
1.40001
1.40001
1.40001
1.40001
1.40001
1.40001
1.40001
1.40001
1.40001
1.40001
1.40001
1.40001
1.40001
1.40001
1.40001
1.40001
1.40001
1.40001
1.40001
1.40001
1.40001
1.40001
1.40001
1.40001
1.40001
1.40001
1.40001
1.40001
1.40001
1.40001
1.40001
1.40001
1.40001
1.40001
1.40001
1.40001
1.40263
1.71646
3.79667
4.96742
4.96224
4.93927
4.91984
4.89635
4.87
4.83974
4.80689
4.77187
4.73383
4.69348
4.65072
4.60581
4.55955
4.51297
4.46642
4.41996
4.37276
4.32356
4.2719
4.21735
4.16059
4.10054
4.03965
3.98128
3.92306
3.86711
3.80663
3.7441
1.40001
1.40001
1.40001
1.40001
1.40001
1.40001
1.40001
1.40001
1.40001
1.40001
1.40001
1.40001
1.40001
1.40001
1.40001
1.40001
1.40001
1.40001
1.40001
1.40001
1.40001
1.40001
1.40001
1.40001
1.40001
1.40001
1.40001
1.40001
1.40001
1.40001
1.40001
1.40001
1.40001
1.40001
1.40001
1.40001
1.40001
1.40001
1.40001
1.40001
1.40001
1.40001
1.40001
1.40001
1.40001
1.40001
1.40001
1.40001
1.40001
1.40001
1.40001
1.40001
1.40001
1.40001
1.40001
1.40001
1.40001
1.40001
1.40001
1.40001
1.40001
1.40001
1.40001
1.40001
1.40001
1.4054
1.80318
3.93289
4.95055
4.9367
4.91108
4.88633
4.85888
4.83103
4.80129
4.76939
4.73455
4.69627
4.65458
4.61017
4.56409
4.51725
4.47004
4.4223
4.37369
4.32386
4.27211
4.21892
4.165
4.1091
4.05271
3.99672
3.94066
3.88589
3.82704
3.76617
1.40001
1.40001
1.40001
1.40001
1.40001
1.40001
1.40001
1.40001
1.40001
1.40001
1.40001
1.40001
1.40001
1.40001
1.40001
1.40001
1.40001
1.40001
1.40001
1.40001
1.40001
1.40001
1.40001
1.40001
1.40001
1.40001
1.40001
1.40001
1.40001
1.40001
1.40001
1.40001
1.40001
1.40001
1.40001
1.40001
1.40001
1.40001
1.40001
1.40001
1.40001
1.40001
1.40001
1.40001
1.40001
1.40001
1.40001
1.40001
1.40001
1.40001
1.40001
1.40001
1.40001
1.40001
1.40001
1.40001
1.40001
1.40001
1.40001
1.40001
1.40001
1.40001
1.40001
1.40001
1.40001
1.40002
1.40873
1.87075
4.00688
4.93544
4.91674
4.88485
4.85284
4.82181
4.79242
4.76211
4.73005
4.69517
4.65744
4.61578
4.57127
4.52488
4.47718
4.42853
4.37926
4.32923
4.27811
4.22684
4.1752
4.12249
4.06925
4.01512
3.96055
3.90649
3.84883
3.78974
1.40001
1.40001
1.40001
1.40001
1.40001
1.40001
1.40001
1.40001
1.40001
1.40001
1.40001
1.40001
1.40001
1.40001
1.40001
1.40001
1.40001
1.40001
1.40001
1.40001
1.40001
1.40001
1.40001
1.40001
1.40001
1.40001
1.40001
1.40001
1.40001
1.40001
1.40001
1.40001
1.40001
1.40001
1.40001
1.40001
1.40001
1.40001
1.40001