/*--------------------------------*- C++ -*----------------------------------*\
  =========                 |
  \\      /  F ield         | OpenFOAM: The Open Source CFD Toolbox
   \\    /   O peration     | Website:  https://openfoam.org
    \\  /    A nd           | Version:  7
     \\/     M anipulation  |
\*---------------------------------------------------------------------------*/
FoamFile
{
    version     2.0;
    format      ascii;
    class       volScalarField;
    location    "1.8";
    object      T;
}
// * * * * * * * * * * * * * * * * * * * * * * * * * * * * * * * * * * * * * //

dimensions      [0 0 0 1 0 0 0];

internalField   nonuniform List<scalar> 
19968
(
1
1
1
1
1
1
1
1
1
1
1
1
1
1
1
1
1
1
1
1
1
1
1
1
1
1
1
1
1
1
1
1
1
1
1
1
1
1
1
1
1
1
1
1
1
1
1
1
1
1
1.87469
2.66192
2.72565
2.7254
2.72611
2.72567
2.72583
2.72735
2.73111
2.73723
2.74483
2.75192
2.75688
2.75967
2.76134
2.76307
2.76521
2.76727
2.76896
2.77061
2.77284
2.77593
2.77976
2.7841
2.78891
2.79429
2.8002
2.80611
2.81077
2.81283
2.81277
2.81202
2.81143
2.81177
2.81327
2.81622
2.82016
2.8243
2.82822
2.83204
2.83701
2.84556
2.85863
2.87325
2.88338
2.88697
1
1
1
1
1
1
1
1
1
1
1
1
1
1
1
1
1
1
1
1
1
1
1
1
1
1
1
1
1
1
1
1
1
1
1
1
1
1
1
1
1
1
1
1
1
1
1
1
1
1
1.86275
2.65941
2.72464
2.72488
2.7259
2.72552
2.72565
2.72705
2.73068
2.73675
2.74434
2.75149
2.75651
2.75939
2.76114
2.7629
2.76495
2.76687
2.76854
2.77024
2.77261
2.77581
2.77967
2.78399
2.78876
2.79411
2.79999
2.80589
2.81051
2.81252
2.81239
2.81155
2.81095
2.81133
2.81291
2.81594
2.81992
2.82403
2.82786
2.83162
2.83659
2.84514
2.85824
2.87293
2.88314
2.88677
1
1
1
1
1
1
1
1
1
1
1
1
1
1
1
1
1
1
1
1
1
1
1
1
1
1
1
1
1
1
1
1
1
1
1
1
1
1
1
1
1
1
1
1
1
1
1
1
1
1
1.83484
2.65263
2.72241
2.72317
2.72496
2.7247
2.72488
2.72622
2.72973
2.73572
2.74325
2.75035
2.75538
2.75835
2.76027
2.76214
2.76416
2.76605
2.76786
2.76975
2.77233
2.77563
2.7795
2.78374
2.78843
2.79372
2.79961
2.80553
2.81014
2.8121
2.81187
2.81089
2.8102
2.81057
2.81221
2.81537
2.81948
2.8236
2.82736
2.83102
2.83594
2.84448
2.85764
2.87244
2.88278
2.88651
1
1
1
1
1
1
1
1
1
1
1
1
1
1
1
1
1
1
1
1
1
1
1
1
1
1
1
1
1
1
1
1
1
1
1
1
1
1
1
1
1
1
1
1
1
1
1
1
1
1
1.7828
2.63924
2.71879
2.72059
2.72328
2.72324
2.72355
2.72493
2.72841
2.73429
2.74164
2.74856
2.75354
2.75659
2.7587
2.76074
2.76284
2.76488
2.767
2.76919
2.77197
2.77532
2.77914
2.78325
2.7878
2.79302
2.79886
2.80474
2.80929
2.8112
2.81092
2.80987
2.80913
2.80951
2.81121
2.81449
2.8187
2.82281
2.82647
2.83004
2.83494
2.8435
2.85674
2.8717
2.88223
2.88607
1
1
1
1
1
1
1
1
1
1
1
1
1
1
1
1
1
1
1
1
1
1
1
1
1
1
1
1
1
1
1
1
1
1
1
1
1
1
1
1
1
1
1
1
1
1
1
1
1
1
1.70165
2.61604
2.71419
2.71708
2.72045
2.72093
2.72153
2.72311
2.7267
2.73255
2.73965
2.74619
2.75097
2.75401
2.7563
2.75855
2.7609
2.76332
2.76594
2.7685
2.77146
2.77481
2.77849
2.78244
2.78683
2.79192
2.79768
2.80345
2.80789
2.80975
2.80949
2.80851
2.80781
2.80818
2.80987
2.81318
2.8174
2.82145
2.82502
2.82858
2.83353
2.84214
2.85549
2.87063
2.88142
2.88537
1
1
1
1
1
1
1
1
1
1
1
1
1
1
1
1
1
1
1
1
1
1
1
1
1
1
1
1
1
1
1
1
1
1
1
1
1
1
1
1
1
1
1
1
1
1
1
1
1
1
1.58922
2.58342
2.70912
2.71176
2.71534
2.71663
2.71805
2.72051
2.7249
2.73121
2.73818
2.74414
2.74829
2.75099
2.75325
2.75557
2.75832
2.7615
2.76487
2.76794
2.77104
2.77425
2.77762
2.78125
2.78536
2.79027
2.79589
2.8015
2.80581
2.80764
2.80746
2.80668
2.80613
2.80651
2.80814
2.81132
2.81538
2.8193
2.82279
2.82645
2.83155
2.84023
2.85374
2.86911
2.88016
2.88417
1
1
1
1
1
1
1
1
1
1
1
1
1
1
1
1
1
1
1
1
1
1
1
1
1
1
1
1
1
1
1
1
1
1
1
1
1
1
1
1
1
1
1
1
1
1
1
1
1
1
1.43427
2.52907
2.70515
2.70729
2.71067
2.71246
2.71456
2.71784
2.72316
2.73017
2.73715
2.74243
2.74565
2.74773
2.74961
2.75206
2.75543
2.75948
2.76369
2.76731
2.77042
2.77329
2.77612
2.77924
2.78295
2.78764
2.79314
2.79864
2.80286
2.80469
2.80464
2.80413
2.80382
2.80429
2.80589
2.80889
2.81266
2.8163
2.81971
2.8236
2.82889
2.83767
2.85137
2.86694
2.87817
2.88216
1
1
1
1
1
1
1
1
1
1
1
1
1
1
1
1
1
1
1
1
1
1
1
1
1
1
1
1
1
1
1
1
1
1
1
1
1
1
1
1
1
1
1
1
1
1
1
1
1
1
1.2622
2.4533
2.70399
2.70433
2.70728
2.70893
2.71118
2.71499
2.72107
2.72879
2.7361
2.74114
2.74363
2.74492
2.74614
2.74826
2.75193
2.75683
2.76213
2.76651
2.7697
2.77217
2.77438
2.77692
2.78024
2.78473
2.79013
2.79554
2.79965
2.80141
2.80135
2.80093
2.80073
2.80122
2.8028
2.80553
2.80881
2.81219
2.81549
2.81955
2.82511
2.83409
2.84799
2.86369
2.87496
2.87886
1
1
1
1
1
1
1
1
1
1
1
1
1
1
1
1
1
1
1
1
1
1
1
1
1
1
1
1
1
1
1
1
1
1
1
1
1
1
1
1
1
1
1
1
1
1
1
1
1
1
1.03328
2.3243
2.70673
2.70662
2.70804
2.70888
2.71036
2.71427
2.72087
2.72907
2.7368
2.74191
2.74374
2.74353
2.74337
2.74445
2.74772
2.75292
2.75885
2.76373
2.76689
2.76894
2.77056
2.77255
2.77547
2.77979
2.78518
2.79064
2.79477
2.79655
2.7965
2.79613
2.79602
2.7966
2.79828
2.80092
2.80391
2.8071
2.81027
2.81438
2.82016
2.82935
2.8434
2.85918
2.87038
2.87419
1
1
1
1
1
1
1
1
1
1
1
1
1
1
1
1
1
1
1
1
1
1
1
1
1
1
1
1
1
1
1
1
1
1
1
1
1
1
1
1
1
1
1
1
1
1
1
1
1
1
1.00017
2.15579
2.6982
2.69905
2.69874
2.69981
2.70193
2.70681
2.71441
2.72344
2.73208
2.73803
2.74034
2.74011
2.73974
2.7405
2.74336
2.74841
2.75459
2.75996
2.76339
2.76535
2.7666
2.7681
2.77056
2.77454
2.77977
2.78522
2.7894
2.79124
2.79116
2.79072
2.79057
2.79123
2.793
2.79562
2.79847
2.80142
2.80436
2.80825
2.81396
2.82311
2.83711
2.8529
2.86404
2.86784
1
1
1
1
1
1
1
1
1
1
1
1
1
1
1
1
1
1
1
1
1
1
1
1
1
1
1
1
1
1
1
1
1
1
1
1
1
1
1
1
1
1
1
1
1
1
1
1
1
1
1
1.90774
2.66355
2.69523
2.69386
2.69472
2.6964
2.70027
2.70711
2.71594
2.72523
2.73265
2.7368
2.73785
2.73757
2.73778
2.73955
2.74351
2.74903
2.75449
2.75831
2.7605
2.76168
2.76287
2.76486
2.7683
2.77309
2.77834
2.78256
2.78453
2.78441
2.78374
2.78331
2.7838
2.78539
2.78786
2.79064
2.79347
2.79628
2.79998
2.80553
2.8146
2.82863
2.84476
2.85623
2.86029
1
1
1
1
1
1
1
1
1
1
1
1
1
1
1
1
1
1
1
1
1
1
1
1
1
1
1
1
1
1
1
1
1
1
1
1
1
1
1
1
1
1
1
1
1
1
1
1
1
1
1
1.54399
2.55615
2.68878
2.68813
2.69058
2.69215
2.69466
2.69953
2.70666
2.71508
2.72324
2.72945
2.7327
2.73338
2.73352
2.73454
2.73727
2.74159
2.74659
2.75065
2.75321
2.75458
2.75567
2.75728
2.76009
2.7642
2.76899
2.77316
2.77548
2.77569
2.77504
2.77446
2.77484
2.77629
2.77873
2.78161
2.78432
2.78686
2.78981
2.79441
2.80261
2.81591
2.83184
2.84343
2.84766
1
1
1
1
1
1
1
1
1
1
1
1
1
1
1
1
1
1
1
1
1
1
1
1
1
1
1
1
1
1
1
1
1
1
1
1
1
1
1
1
1
1
1
1
1
1
1
1
1
1
1
1.06938
2.35241
2.69348
2.69437
2.69474
2.69509
2.69544
2.69672
2.69974
2.70491
2.71172
2.71866
2.724
2.72672
2.72761
2.7285
2.73033
2.7333
2.73713
2.74065
2.74313
2.7446
2.74572
2.74719
2.74958
2.75302
2.75709
2.76085
2.76332
2.76396
2.76345
2.76274
2.76271
2.76365
2.76556
2.76801
2.77054
2.77272
2.77493
2.77866
2.78603
2.79877
2.81474
2.82662
2.83115
1
1
1
1
1
1
1
1
1
1
1
1
1
1
1
1
1
1
1
1
1
1
1
1
1
1
1
1
1
1
1
1
1
1
1
1
1
1
1
1
1
1
1
1
1
1
1
1
1
1
1
1.00032
2.03325
2.66212
2.67702
2.68038
2.68392
2.68639
2.68797
2.6898
2.69294
2.69781
2.704
2.71028
2.71525
2.71832
2.72054
2.72281
2.72542
2.72839
2.73114
2.73318
2.73454
2.73565
2.73704
2.73909
2.74185
2.74503
2.74805
2.75026
2.75125
2.75098
2.75011
2.74946
2.74971
2.75081
2.75277
2.75507
2.75691
2.7583
2.76059
2.76591
2.77619
2.7898
2.79971
2.80242
1
1
1
1
1
1
1
1
1
1
1
1
1
1
1
1
1
1
1
1
1
1
1
1
1
1
1
1
1
1
1
1
1
1
1
1
1
1
1
1
1
1
1
1
1
1
1
1
1
1
1
1
1.46721
2.49585
2.6541
2.66449
2.6727
2.67638
2.67855
2.68008
2.68202
2.68501
2.68926
2.69454
2.70009
2.70488
2.70876
2.71213
2.71506
2.71756
2.71947
2.72066
2.72141
2.7222
2.72344
2.72524
2.72757
2.73004
2.73209
2.73379
2.73483
2.73474
2.73382
2.73223
2.73084
2.73039
2.73069
2.73117
2.73082
2.72945
2.72836
2.7296
2.73638
2.74843
2.76005
2.76447
1
1
1
1
1
1
1
1
1
1
1
1
1
1
1
1
1
1
1
1
1
1
1
1
1
1
1
1
1
1
1
1
1
1
1
1
1
1
1
1
1
1
1
1
1
1
1
1
1
1
1
1
1.01644
2.11927
2.63983
2.65087
2.65737
2.6629
2.6665
2.66862
2.67033
2.67247
2.67532
2.67901
2.68355
2.68848
2.6934
2.69815
2.70224
2.70516
2.70677
2.70721
2.70712
2.7073
2.70814
2.70962
2.71137
2.71296
2.71405
2.71478
2.71511
2.71478
2.71346
2.71088
2.70764
2.70486
2.7029
2.70133
2.69893
2.69522
2.69138
2.68979
2.69256
2.70466
2.7171
2.74171
1
1
1
1
1
1
1
1
1
1
1
1
1
1
1
1
1
1
1
1
1
1
1
1
1
1
1
1
1
1
1
1
1
1
1
1
1
1
1
1
1
1
1
1
1
1
1
1
1
1
1
1
0.999798
1.54024
2.49989
2.62873
2.64186
2.64995
2.65395
2.65657
2.65851
2.66063
2.66322
2.6662
2.66981
2.67408
2.67892
2.68412
2.68893
2.69244
2.69414
2.69409
2.69344
2.69306
2.69336
2.69419
2.69524
2.69613
2.6965
2.69621
2.69552
2.69441
2.69237
2.68891
2.68424
2.67917
2.67418
2.66902
2.66212
2.65231
2.63822
2.62028
2.59604
2.56467
2.51324
2.39394
1
1
1
1
1
1
1
1
1
1
1
1
1
1
1
1
1
1
1
1
1
1
1
1
1
1
1
1
1
1
1
1
1
1
1
1
1
1
1
1
1
1
1
1
1
1
1
1
1
1
1
1
0.999972
1.03406
2.25052
2.63783
2.63756
2.64035
2.64401
2.64671
2.64846
2.65026
2.65259
2.65535
2.65853
2.66225
2.66665
2.6713
2.67608
2.68
2.68204
2.682
2.68131
2.68062
2.68033
2.68037
2.68072
2.68108
2.68091
2.67996
2.67828
2.67603
2.67293
2.66855
2.66268
2.65575
2.64776
2.63876
2.62708
2.61162
2.5893
2.56007
2.51903
2.46524
2.36482
2.21026
1
1
1
1
1
1
1
1
1
1
1
1
1
1
1
1
1
1
1
1
1
1
1
1
1
1
1
1
1
1
1
1
1
1
1
1
1
1
1
1
1
1
1
1
1
1
1
1
1
1
1
1
0.999999
1.00007
1.75841
2.55323
2.62012
2.62613
2.63154
2.63511
2.63796
2.64022
2.64209
2.64398
2.64651
2.64986
2.65391
2.65802
2.66231
2.6662
2.66869
2.6691
2.66855
2.66757
2.66655
2.66572
2.66524
2.66486
2.66415
2.66265
2.66014
2.65673
2.6523
2.64677
2.63966
2.63114
2.62062
2.60815
2.59234
2.57191
2.54451
2.50764
2.46017
2.38908
2.28957
2.16885
1
1
1
1
1
1
1
1
1
1
1
1
1
1
1
1
1
1
1
1
1
1
1
1
1
1
1
1
1
1
1
1
1
1
1
1
1
1
1
1
1
1
1
1
1
1
1
1
1
1
1
1
1
1
1.07304
2.317
2.6219
2.62006
2.62189
2.62534
2.62896
2.63187
2.63369
2.6347
2.63604
2.63811
2.64087
2.6437
2.64703
2.65074
2.65393
2.65543
2.65526
2.65434
2.65276
2.65096
2.64925
2.64776
2.6463
2.64435
2.64128
2.63703
2.63141
2.6246
2.61618
2.60613
2.59378
2.57879
2.56017
2.53655
2.50655
2.46751
2.41788
2.35069
2.2674
2.17379
1
1
1
1
1
1
1
1
1
1
1
1
1
1
1
1
1
1
1
1
1
1
1
1
1
1
1
1
1
1
1
1
1
1
1
1
1
1
1
1
1
1
1
1
1
1
1
1
1
1
1
1
1
1
1.00035
1.82861
2.53903
2.5978
2.60613
2.61111
2.61587
2.6205
2.62399
2.62547
2.6262
2.62703
2.62817
2.62909
2.63091
2.63406
2.63769
2.64036
2.64106
2.64046
2.6387
2.63602
2.63301
2.63025
2.62776
2.62517
2.62164
2.61693
2.61068
2.60293
2.59337
2.58192
2.56828
2.55185
2.53185
2.5069
2.47647
2.43773
2.3911
2.33461
2.26818
2.19255
1
1
1
1
1
1
1
1
1
1
1
1
1
1
1
1
1
1
1
1
1
1
1
1
1
1
1
1
1
1
1
1
1
1
1
1
1
1
1
1
1
1
1
1
1
1
1
1
1
1
1
1
1
1
1
1.09215
2.28499
2.59409
2.59489
2.59644
2.60147
2.6078
2.61326
2.61637
2.61716
2.61706
2.61681
2.61578
2.61591
2.61764
2.62102
2.62453
2.62641
2.6262
2.62459
2.62142
2.61727
2.61322
2.60939
2.6057
2.60144
2.59629
2.58975
2.58156
2.5712
2.55866
2.54417
2.52722
2.50722
2.48251
2.45346
2.41698
2.37571
2.32777
2.27269
2.21197
1
1
1
1
1
1
1
1
1
1
1
1
1
1
1
1
1
1
1
1
1
1
1
1
1
1
1
1
1
1
1
1
1
1
1
1
1
1
1
1
1
1
1
1
1
1
1
1
1
1
1
1
1
1
1
1.00056
1.71899
2.49134
2.56517
2.57742
2.58645
2.59372
2.6002
2.60382
2.60451
2.60425
2.60339
2.60188
2.60082
2.60137
2.60361
2.607
2.60962
2.61014
2.60915
2.60639
2.60193
2.59703
2.5921
2.58712
2.58179
2.57589
2.56906
2.56078
2.55015
2.53715
2.52227
2.5053
2.48599
2.46235
2.43557
2.40264
2.36705
2.32485
2.27803
2.22699
1
1
1
1
1
1
1
1
1
1
1
1
1
1
1
1
1
1
1
1
1
1
1
1
1
1
1
1
1
1
1
1
1
1
1
1
1
1
1
1
1
1
1
1
1
1
1
1
1
1
1
1
1
1
1
1
1.0616
2.18647
2.56048
2.57124
2.57852
2.58372
2.58899
2.59217
2.59269
2.59226
2.59143
2.59022
2.58848
2.588
2.58866
2.59082
2.59319
2.59392
2.5932
2.59084
2.58653
2.58133
2.57565
2.5695
2.56291
2.55608
2.54874
2.54019
2.52952
2.51659
2.50195
2.48531
2.46696
2.44514
2.42103
2.39244
2.36114
2.32422
2.28483
2.24029
1
1
1
1
1
1
1
1
1
1
1
1
1
1
1
1
1
1
1
1
1
1
1
1
1
1
1
1
1
1
1
1
1
1
1
1
1
1
1
1
1
1
1
1
1
1
1
1
1
1
1
1
1
1
1
1
1.00025
1.43525
2.3879
2.55276
2.56067
2.56897
2.57412
2.57691
2.57744
2.57724
2.57672
2.576
2.57452
2.5734
2.57306
2.57384
2.57539
2.57601
2.57564
2.57397
2.57043
2.56567
2.55996
2.55327
2.54585
2.53826
2.53023
2.52104
2.51011
2.49729
2.48333
2.46698
2.44964
2.43013
2.40854
2.38398
2.35623
2.32391
2.29016
2.2513
1
1
1
1
1
1
1
1
1
1
1
1
1
1
1
1
1
1
1
1
1
1
1
1
1
1
1
1
1
1
1
1
1
1
1
1
1
1
1
1
1
1
1
1
1
1
1
1
1
1
1
1
1
1
1
1
1
1.01614
1.97234
2.52422
2.54928
2.55722
2.55972
2.56135
2.56126
2.56086
2.56046
2.56012
2.55943
2.55875
2.55821
2.55836
2.5591
2.55902
2.5583
2.55648
2.55323
2.54896
2.54358
2.53689
2.52921
2.52139
2.51291
2.50318
2.49193
2.47918
2.46582
2.44979
2.43357
2.4163
2.39689
2.37577
2.35108
2.32305
2.29354
2.2601
1
1
1
1
1
1
1
1
1
1
1
1
1
1
1
1
1
1
1
1
1
1
1
1
1
1
1
1
1
1
1
1
1
1
1
1
1
1
1
1
1
1
1
1
1
1
1
1
1
1
1
1
1
1
1
1
1
1.00002
1.14683
2.24097
2.53834
2.54665
2.54823
2.54729
2.54639
2.54544
2.54474
2.5444
2.54419
2.54424
2.54416
2.54433
2.54473
2.54396
2.54245
2.54002
2.53646
2.53211
2.52685
2.52045
2.51323
2.50579
2.49737
2.48733
2.47577
2.4629
2.44947
2.43397
2.41881
2.40325
2.38578
2.36736
2.34528
2.32113
2.29476
2.26605
1
1
1
1
1
1
1
1
1
1
1
1
1
1
1
1
1
1
1
1
1
1
1
1
1
1
1
1
1
1
1
1
1
1
1
1
1
1
1
1
1
1
1
1
1
1
1
1
1
1
1
1
1
1
1
1
1
1
1.00139
1.55009
2.40157
2.52693
2.52418
2.52538
2.52612
2.52618
2.5262
2.52616
2.52649
2.52731
2.52808
2.52911
2.53011
2.52939
2.52742
2.52428
2.51995
2.51492
2.50916
2.50294
2.49664
2.48971
2.48175
2.47198
2.46063
2.44798
2.43467
2.4199
2.4055
2.39086
2.37505
2.35823
2.33858
2.31785
2.294
2.26949
1
1
1
1
1
1
1
1
1
1
1
1
1
1
1
1
1
1
1
1
1
1
1
1
1
1
1
1
1
1
1
1
1
1
1
1
1
1
1
1
1
1
1
1
1
1
1
1
1
1
1
1
1
1
1
1
1
1
1
1.02927
1.95754
2.49216
2.5089
2.50923
2.51065
2.51114
2.5109
2.51016
2.50983
2.51024
2.51103
2.51257
2.51469
2.51457
2.51302
2.50982
2.50531
2.49941
2.49281
2.48612
2.47998
2.47327
2.46587
2.45705
2.44663
2.43463
2.42188
2.40788
2.39407
2.37985
2.36495
2.34912
2.3314
2.31307
2.29167
2.27061
1
1
1
1
1
1
1
1
1
1
1
1
1
1
1
1
1
1
1
1
1
1
1
1
1
1
1
1
1
1
1
1
1
1
1
1
1
1
1
1
1
1
1
1
1
1
1
1
1
1
1
1
1
1
1
1
1
1
1
1.00007
1.14388
2.129
2.4841
2.50041
2.50076
2.50119
2.50032
2.49854
2.49681
2.49554
2.49523
2.49589
2.49786
2.4985
2.49769
2.49522
2.49088
2.48499
2.47779
2.47057
2.46373
2.45698
2.44986
2.44203
2.43299
2.4224
2.41074
2.39776
2.38462
2.37053
2.35584
2.34031
2.32364
2.30685
2.2877
2.26936
1
1
1
1
1
1
1
1
1
1
1
1
1
1
1
1
1
1
1
1
1
1
1
1
1
1
1
1
1
1
1
1
1
1
1
1
1
1
1
1
1
1
1
1
1
1
1
1
1
1
1
1
1
1
1
1
1
1
1
1
1.00136
1.27164
2.23893
2.47075
2.48936
2.4896
2.48884
2.48738
2.48494
2.48245
2.48029
2.47977
2.48052
2.48094
2.48053
2.479
2.47558
2.47039
2.46397
2.45652
2.44918
2.4419
2.43483
2.42754
2.41974
2.41079
2.40062
2.38905
2.37666
2.36275
2.34809
2.33267
2.31642
2.30057
2.28314
2.26684
1
1
1
1
1
1
1
1
1
1
1
1
1
1
1
1
1
1
1
1
1
1
1
1
1
1
1
1
1
1
1
1
1
1
1
1
1
1
1
1
1
1
1
1
1
1
1
1
1
1
1
1
1
1
1
1
1
1
1
1
1
1.00528
1.48657
2.31422
2.46188
2.46753
2.47157
2.47089
2.46961
2.46779
2.46591
2.46452
2.46396
2.46343
2.46262
2.46123
2.45874
2.45465
2.44918
2.44291
2.43571
2.42838
2.42115
2.4141
2.40703
2.39929
2.39056
2.38048
2.36911
2.35582
2.34138
2.32623
2.31022
2.29509
2.27884
2.26375
1
1
1
1
1
1
1
1
1
1
1
1
1
1
1
1
1
1
1
1
1
1
1
1
1
1
1
1
1
1
1
1
1
1
1
1
1
1
1
1
1
1
1
1
1
1
1
1
1
1
1
1
1
1
1
1
1
1
1
1
1
1.00001
1.0209
1.75834
2.38638
2.44951
2.44822
2.44887
2.44867
2.44842
2.44799
2.44751
2.44689
2.44613
2.44506
2.44351
2.44145
2.43851
2.43419
2.429
2.42298
2.41584
2.40869
2.40182
2.39504
2.38789
2.38013
2.37122
2.36092
2.34854
2.33461
2.32012
2.30481
2.29055
2.27528
2.2608
1
1
1
1
1
1
1
1
1
1
1
1
1
1
1
1
1
1
1
1
1
1
1
1
1
1
1
1
1
1
1
1
1
1
1
1
1
1
1
1
1
1
1
1
1
1
1
1
1
1
1
1
1
1
1
1
1
1
1
1
1
1
1.00005
1.07381
1.92995
2.41468
2.43579
2.43077
2.43024
2.42976
2.42978
2.42971
2.42947
2.42881
2.42773
2.42625
2.4244
2.42203
2.41882
2.41462
2.4095
2.40336
2.39662
2.39004
2.38342
2.37647
2.36911
2.36081
2.35129
2.33985
2.32674
2.31347
2.29953
2.28641
2.27211
2.25805
1
1
1
1
1
1
1
1
1
1
1
1
1
1
1
1
1
1
1
1
1
1
1
1
1
1
1
1
1
1
1
1
1
1
1
1
1
1
1
1
1
1
1
1
1
1
1
1
1
1
1
1
1
1
1
1
1
1
1
1
1
1
1
1.00042
1.14423
2.0211
2.40547
2.42098
2.41647
2.41562
2.41433
2.41347
2.41259
2.41153
2.41017
2.4086
2.40685
2.40479
2.4023
2.39912
2.39509
2.39016
2.38446
2.37833
2.37188
2.36495
2.35754
2.34936
2.34023
2.32957
2.31787
2.3063
2.29398
2.28202
2.26875
2.25521
1
1
1
1
1
1
1
1
1
1
1
1
1
1
1
1
1
1
1
1
1
1
1
1
1
1
1
1
1
1
1
1
1
1
1
1
1
1
1
1
1
1
1
1
1
1
1
1
1
1
1
1
1
1
1
1
1
1
1
1
1
1
1
1
1.00142
1.2082
2.06829
2.38615
2.40768
2.40563
2.4039
2.40158
2.39926
2.39678
2.39431
2.39193
2.38951
2.38719
2.3848
2.38213
2.37899
2.37525
2.37079
2.36557
2.35958
2.35276
2.34525
2.33705
2.32831
2.31873
2.30856
2.29836
2.28759
2.27684
2.26471
2.25193
1
1
1
1
1
1
1
1
1
1
1
1
1
1
1
1
1
1
1
1
1
1
1
1
1
1
1
1
1
1
1
1
1
1
1
1
1
1
1
1
1
1
1
1
1
1
1
1
1
1
1
1
1
1
1
1
1
1
1
1
1
1
1
1
1
1.00297
1.26116
2.08841
2.36875
2.39303
2.39229
2.39085
2.38823
2.3851
2.38145
2.37759
2.37393
2.37062
2.36777
2.36517
2.36259
2.35971
2.35616
2.35162
2.34601
2.33948
2.3321
2.3243
2.31635
2.30788
2.29904
2.28992
2.28035
2.27061
2.25953
2.24768
1
1
1
1
1
1
1
1
1
1
1
1
1
1
1
1
1
1
1
1
1
1
1
1
1
1
1
1
1
1
1
1
1
1
1
1
1
1
1
1
1
1
1
1
1
1
1
1
1
1
1
1
1
1
1
1
1
1
1
1
1
1
1
1
1
1
1.00484
1.29878
2.09555
2.34924
2.37654
2.37621
2.37513
2.37295
2.36973
2.36549
2.36087
2.35658
2.35283
2.34942
2.34644
2.34356
2.34033
2.33639
2.33158
2.32584
2.31926
2.31226
2.30498
2.29735
2.28947
2.2812
2.2725
2.26352
2.25331
2.24244
1
1
1
1
1
1
1
1
1
1
1
1
1
1
1
1
1
1
1
1
1
1
1
1
1
1
1
1
1
1
1
1
1
1
1
1
1
1
1
1
1
1
1
1
1
1
1
1
1
1
1
1
1
1
1
1
1
1
1
1
1
1
1
1
1
1
1.00001
1.00659
1.32134
2.08747
2.32958
2.35848
2.35848
2.3581
2.35624
2.35324
2.34924
2.34459
2.34001
2.33586
2.33205
2.32845
2.32483
2.32092
2.31653
2.31146
2.30572
2.29955
2.29306
2.28627
2.27919
2.27167
2.26373
2.2554
2.24596
2.23612
1
1
1
1
1
1
1
1
1
1
1
1
1
1
1
1
1
1
1
1
1
1
1
1
1
1
1
1
1
1
1
1
1
1
1
1
1
1
1
1
1
1
1
1
1
1
1
1
1
1
1
1
1
1
1
1
1
1
1
1
1
1
1
1
1
1
1
1.00001
1.00783
1.3259
2.06573
2.30855
2.34033
2.33935
2.33963
2.33858
2.33624
2.33293
2.32895
2.32463
2.32019
2.31581
2.31144
2.307
2.30237
2.29741
2.29209
2.28651
2.28071
2.27463
2.26822
2.26139
2.25422
2.24644
2.23784
2.22902
1
1
1
1
1
1
1
1
1
1
1
1
1
1
1
1
1
1
1
1
1
1
1
1
1
1
1
1
1
1
1
1
1
1
1
1
1
1
1
1
1
1
1
1
1
1
1
1
1
1
1
1
1
1
1
1
1
1
1
1
1
1
1
1
1
1
1
1
1.00002
1.00816
1.31249
2.02846
2.28234
2.32308
2.3199
2.32109
2.32086
2.31968
2.31722
2.31366
2.30948
2.30494
2.30017
2.2952
2.2901
2.28489
2.27956
2.27409
2.26853
2.2628
2.25678
2.25042
2.24384
2.23672
2.22887
2.22074
1
1
1
1
1
1
1
1
1
1
1
1
1
1
1
1
1
1
1
1
1
1
1
1
1
1
1
1
1
1
1
1
1
1
1
1
1
1
1
1
1
1
1
1
1
1
1
1
1
1
1
1
1
1
1
1
1
1
1
1
1
1
1
1
1
1
1
1
1
1.00002
1.00748
1.2823
1.96492
2.25604
2.30619
2.30206
2.30324
2.30372
2.30301
2.30118
2.29815
2.2941
2.28941
2.28435
2.27908
2.2737
2.26819
2.26259
2.25692
2.25118
2.24532
2.23922
2.23291
2.22627
2.21904
2.21171
1
1
1
1
1
1
1
1
1
1
1
1
1
1
1
1
1
1
1
1
1
1
1
1
1
1
1
1
1
1
1
1
1
1
1
1
1
1
1
1
1
1
1
1
1
1
1
1
1
1
1
1
1
1
1
1
1
1
1
1
1
1
1
1
1
1
1
1
1
1
1.00002
1.00605
1.23343
1.87624
2.23021
2.28788
2.28486
2.28584
2.28562
2.28482
2.28316
2.28046
2.27689
2.27266
2.26791
2.26277
2.25741
2.25189
2.24627
2.24051
2.23455
2.22849
2.22221
2.21581
2.20919
2.20221
1
1
1
1
1
1
1
1
1
1
1
1
1
1
1
1
1
1
1
1
1
1
1
1
1
1
1
1
1
1
1
1
1
1
1
1
1
1
1
1
1
1
1
1
1
1
1
1
1
1
1
1
1
1
1
1
1
1
1
1
1
1
1
1
1
1
1
1
1
1
1
1.00001
1.00416
1.17239
1.77135
2.2016
2.26957
2.26793
2.26649
2.26597
2.26476
2.26309
2.26081
2.25789
2.25433
2.25027
2.2458
2.24087
2.23564
2.23013
2.22438
2.2185
2.21231
2.20601
2.1994
2.19259
1
1
1
1
1
1
1
1
1
1
1
1
1
1
1
1
1
1
1
1
1
1
1
1
1
1
1
1
1
1
1
1
1
1
1
1
1
1
1
1
1
1
1
1
1
1
1
1
1
1
1
1
1
1
1
1
1
1
1
1
1
1
1
1
1
1
1
1
1
1
1
1
1.00001
1.00238
1.11295
1.68124
2.16624
2.2513
2.25115
2.24765
2.24648
2.24459
2.24283
2.2409
2.2386
2.23582
2.23249
2.22863
2.2243
2.21953
2.2143
2.20864
2.20281
2.1966
2.19012
2.18374
1
1
1
1
1
1
1
1
1
1
1
1
1
1
1
1
1
1
1
1
1
1
1
1
1
1
1
1
1
1
1
1
1
1
1
1
1
1
1
1
1
1
1
1
1
1
1
1
1
1
1
1
1
1
1
1
1
1
1
1
1
1
1
1
1
1
1
1
1
1
1
1
1
1
1.00113
1.07335
1.58271
2.12443
2.22421
2.23674
2.23081
2.2288
2.22678
2.22481
2.22285
2.22067
2.21812
2.21518
2.21173
2.20781
2.20342
2.19851
2.19331
2.18761
2.18146
2.17525
1
1
1
1
1
1
1
1
1
1
1
1
1
1
1
1
1
1
1
1
1
1
1
1
1
1
1
1
1
1
1
1
1
1
1
1
1
1
1
1
1
1
1
1
1
1
1
1
1
1
1
1
1
1
1
1
1
1
1
1
1
1
1
1
1
1
1
1
1
1
1
1
1
1
1
1.00054
1.04366
1.48088
2.03949
2.20043
2.22337
2.21785
2.21559
2.21329
2.21078
2.20792
2.20504
2.20213
2.199
2.19573
2.19219
2.18794
2.18327
2.17832
2.17274
2.16701
1
1
1
1
1
1
1
1
1
1
1
1
1
1
1
1
1
1
1
1
1
1
1
1
1
1
1
1
1
1
1
1
1
1
1
1
1
1
1
1
1
1
1
1
1
1
1
1
1
1
1
1
1
1
1
1
1
1
1
1
1
1
1
1
1
1
1
1
1
1
1
1
1
1
1
1
1.00023
1.024
1.35786
1.91562
2.16933
2.20861
2.20558
2.20326
2.2001
2.1969
2.19354
2.19024
2.18718
2.18411
2.1807
2.17702
2.17311
2.16878
2.16398
2.15876
1
1
1
1
1
1
1
1
1
1
1
1
1
1
1
1
1
1
1
1
1
1
1
1
1
1
1
1
1
1
1
1
1
1
1
1
1
1
1
1
1
1
1
1
1
1
1
1
1
1
1
1
1
1
1
1
1
1
1
1
1
1
1
1
1
1
1
1
1
1
1
1
1
1
1
1
1
1.00009
1.01128
1.22839
1.75982
2.12541
2.18765
2.19245
2.18736
2.18447
2.1818
2.17901
2.17598
2.17266
2.16941
2.16614
2.16238
2.15837
2.15435
2.14998
1
1
1
1
1
1
1
1
1
1
1
1
1
1
1
1
1
1
1
1
1
1
1
1
1
1
1
1
1
1
1
1
1
1
1
1
1
1
1
1
1
1
1
1
1
1
1
1
1
1
1
1
1
1
1
1
1
1
1
1
1
1
1
1
1
1
1
1
1
1
1
1
1
1
1
1
1
1
1.00003
1.00435
1.12073
1.60014
2.05263
2.15875
2.17957
2.17307
2.17011
2.16731
2.1643
2.16108
2.15786
2.15446
2.15106
2.14763
2.14395
2.1401
1
1
1
1
1
1
1
1
1
1
1
1
1
1
1
1
1
1
1
1
1
1
1
1
1
1
1
1
1
1
1
1
1
1
1
1
1
1
1
1
1
1
1
1
1
1
1
1
1
1
1
1
1
1
1
1
1
1
1
1
1
1
1
1
1
1
1
1
1
1
1
1
1
1
1
1
1
1
1
1.00001
1.00136
1.05424
1.44195
1.93402
2.12828
2.16281
2.15972
2.15482
2.15157
2.14876
2.14551
2.14237
2.1392
2.13599
2.13284
2.12946
1
1
1
1
1
1
1
1
1
1
1
1
1
1
1
1
1
1
1
1
1
1
1
1
1
1
1
1
1
1
1
1
1
1
1
1
1
1
1
1
1
1
1
1
1
1
1
1
1
1
1
1
1
1
1
1
1
1
1
1
1
1
1
1
1
1
1
1
1
1
1
1
1
1
1
1
1
1
1
1
1
1.00036
1.02131
1.28172
1.76993
2.0868
2.13673
2.14585
2.14005
2.13602
2.13341
2.13073
2.12774
2.12464
2.12087
2.11794
1
1
1
1
1
1
1
1
1
1
1
1
1
1
1
1
1
1
1
1
1
1
1
1
1
1
1
1
1
1
1
1
1
1
1
1
1
1
1
1
1
1
1
1
1
1
1
1
1
1
1
1
1
1
1
1
1
1
1
1
1
1
1
1
1
1
1
1
1
1
1
1
1
1
1
1
1
1
1
1
1
1
1.00008
1.00719
1.14117
1.5981
1.98788
2.10501
2.1322
2.12841
2.12518
2.12191
2.11797
2.11308
2.10786
2.10522
1
1
1
1
1
1
1
1
1
1
1
1
1
1
1
1
1
1
1
1
1
1
1
1
1
1
1
1
1
1
1
1
1
1
1
1
1
1
1
1
1
1
1
1
1
1
1
1
1
1
1
1
1
1
1
1
1
1
1
1
1
1
1
1
1
1
1
1
1
1
1
1
1
1
1
1
1
1
1
1
1
1
1
1.00002
1.00191
1.05813
1.40126
1.84851
2.07298
2.11575
2.11628
2.11057
2.105
2.10145
2.09796
2.09343
1
1
1
1
1
1
1
1
1
1
1
1
1
1
1
1
1
1
1
1
1
1
1
1
1
1
1
1
1
1
1
1
1
1
1
1
1
1
1
1
1
1
1
1
1
1
1
1
1
1
1
1
1
1
1
1
1
1
1
1
1
1
1
1
1
1
1
1
1
1
1
1
1
1
1
1
1
1
1
1
1
1
1
1
1
1.00041
1.01793
1.22135
1.67849
2.00269
2.08125
2.10054
2.09749
2.0924
2.09009
2.08655
1
1
1
1
1
1
1
1
1
1
1
1
1
1
1
1
1
1
1
1
1
1
1
1
1
1
1
1
1
1
1
1
1
1
1
1
1
1
1
1
1
1
1
1
1
1
1
1
1
1
1
1
1
1
1
1
1
1
1
1
1
1
1
1
1
1
1
1
1
1
1
1
1
1
1
1
1
1
1
1
1
1
1
1
1
1
1.00006
1.00467
1.09892
1.46727
1.883
2.05375
2.07518
2.08266
2.08134
2.07935
1
1
1
1
1
1
1
1
1
1
1
1
1
1
1
1
1
1
1
1
1
1
1
1
1
1
1
1
1
1
1
1
1
1
1
1
1
1
1
1
1
1
1
1
1
1
1
1
1
1
1
1
1
1
1
1
1
1
1
1
1
1
1
1
1
1
1
1
1
1
1
1
1
1
1
1
1
1
1
1
1
1
1
1
1
1
1
1.00001
1.00108
1.02924
1.27905
1.69182
2.00071
2.05462
2.06342
2.06324
1
1
1
1
1
1
1
1
1
1
1
1
1
1
1
1
1
1
1
1
1
1
1
1
1
1
1
1
1
1
1
1
1
1
1
1
1
1
1
1
1
1
1
1
1
1
1
1
1
1
1
1
1
1
1
1
1
1
1
1
1
1
1
1
1
1
1
1
1
1
1
1
1
1
1
1
1
1
1
1
1
1
1
1
1
1
1
1
1
1.00014
1.00794
1.11604
1.4953
1.88357
2.01118
2.04399
1
1
1
1
1
1
1
1
1
1
1
1
1
1
1
1
1
1
1
1
1
1
1
1
1
1
1
1
1
1
1
1
1
1
1
1
1
1
1
1
1
1
1
1
1
1
1
1
1
1
1
1
1
1
1
1
1
1
1
1
1
1
1
1
1
1
1
1
1
1
1
1
1
1
1
1
1
1
1
1
1
1
1
1
1
1
1
1
1
1
1.00002
1.00157
1.03573
1.29502
1.67336
1.94937
1
1
1
1
1
1
1
1
1
1
1
1
1
1
1
1
1
1
1
1
1
1
1
1
1
1
1
1
1
1
1
1
1
1
1
1
1
1
1
1
1
1
1
1
1
1
1
1
1
1
1
1
1
1
1
1
1
1
1
1
1
1
1
1
1
1
1
1
1
1
1
1
1
1
1
1
1
1
1
1
1
1
1
1
1
1
1
1
1
1
1
1
1.0002
1.00875
1.1119
1.47268
1
1
1
1
1
1
1
1
1
1
1
1
1
1
1
1
1
1
1
1
1
1
1
1
1
1
1
1
1
1
1
1
1
1
1
1
1
1
1
1
1
1
1
1
1
1
1
1
1
1
1
1
1
1
1
1
1
1
1
1
1
1
1
1
1
1
1
1
1
1
1
1
1
1
1
1
1
1
1
1
1
1
1
1
1
1
1
1
1
1
1
1
1
1.00002
1.00143
1.03262
1
1
1
1
1
1
1
1
1
1
1
1
1
1
1
1
1
1
1
1
1
1
1
1
1
1
1
1
1
1
1
1
1
1
1
1
1
1
1
1
1
1
1
1
1
1
1
1
1
1
1
1
1
1
1
1
1
1
1
1
1
1
1
1
1
1
1
1
1
1
1
1
1
1
1
1
1
1
1
1
1
1
1
1
1
1
1
1
1
1
1
1
1
1
1
1.00016
1
1
1
1
1
1
1
1
1
1
1
1
1
1
1
1
1
1
1
1
1
1
1
1
1
1
1
1
1
1
1
1
1
1
1
1
1
1
1
1
1
1
1
1
1
1
1
1
1
1
1
1
1
1
1
1
1
1
1
1
1
1
1
1
1
1
1
1
1
1
1
1
1
1
1
1
1
1
1
1
1
1
1
1
1
1
1
1
1
1
1
1
1
1
1
1
1
1
1
1
1
1
1
1
1
1
1
1
1
1
1
1
1
1
1
1
1
1
1
1
1
1
1
1
1
1
1
1
1
1
1
1
1
1
1
1
1
1
1
1
1
1
1
1
1
1
1
1
1
1
1
1
1
1
1
1
1
1
1
1
1
1
1
1
1
1
1
1
1
1
1
1
1
1
1
1
1
1
1
1
1
1
1
1
1
1
1
1
1
1
1
1
1
1
1
1
1
1
1
1
1
1
1
1
1
1
1
1
1
1
1
1
1
1
1
1
1
1
1
1
1
1
1
1
1
1
1
1
1
1
1
1
1
1
1
1
1
1
1
1
1
1
1
1
1
1
1
1
1
1
1
1
1
1
1
1
1
1
1
1
1
1
1
1
1
1
1
1
1
1
1
1
1
1
1
1
1
1
1
1
1
1
1
1
1
1
1
1
1
1
1
1
1
1
1
1
1
1
1
1
1
1
1
1
1
1
1
1
1
1
1
1
1
1
1
1
1
1
1
1
1
1
1
1
1
1
1
1
1
1
1
1
1
1
1
1
1
1
1
1
1
1
1
1
1
1
1
1
1
1
1
1
1
1
1
1
1
1
1
1
1
1
1
1
1
1
1
1
1
1
1
1
1
1
1
1
1
1
1
1
1
1
1
1
1
1
1
1
1
1
1
1
1
1
1
1
1
1
1
1
1
1
1
1
1
1
1
1
1
1
1
1
1
1
1
1
1
1
1
1
1
1
1
1
1
1
1
1
1
1
1
1
1
1
1
1
1
1
1
1
1
1
1
1
1
1
1
1
1
1
1
1
1
1
1
1
1
1
1
1
1
1
1
1
1
1
1
1
1
1
1
1
1
1
1
1
1
1
1
1
1
1
1
1
1
1
1
1
1
1
1
1
1
1
1
1
1
1
1
1
1
1
1
1
1
1
1
1
1
1
1
1
1
1
1
1
1
1
1
1
1
1
1
1
1
1
1
1
1
1
1
1
1
1
1
1
1
1
1
1
1
1
1
1
1
1
1
1
1
1
1
1
1
1
1
1
1
1
1
1
1
1
1
1
1
1
1
1
1
1
1
1
1
1
1
1
1
1
1
1
1
1
1
1
1
1
1
1
1
1
1
1
1
1
1
1
1
1
1
1
1
1
1
1
1
1
1
1
1
1
1
1
1
1
1
1
1
1
1
1
1
1
1
1
1
1
1
1
1
1
1
1
1
1
1
1
1
1
1
1
1
1
1
1
1
1
1
1
1
1
1
1
1
1
1
1
1
1
1
1
1
1
1
1
1
1
1
1
1
1
1
1
1
1
1
1
1
1
1
1
1
1
1
1
1
1
1
1
1
1
1
1
1
1
1
1
1
1
1
1
1
1
1
1
1
1
1
1
1
1
1
1
1
1
1
1
1
1
1
1
1
1
1
1
1
1
1
1
1
1
1
1
1
1
1
1
1
1
1
1
1
1
1
1
1
1
1
1
1
1
1
1
1
1
1
1
1
1
1
1
1
1
1
1
1
1
1
1
1
1
1
1
1
1
1
1
1
1
1
1
1
1
1
1
1
1
1
1
1
1
1
1
1
1
1
1
1
1
1
1
1
1
1
1
1
1
1
1
1
1
1
1
1
1
1
1
1
1
1
1
1
1
1
1
1
1
1
1
1
1
1
1
1
1
1
1
1
1
1
1
1
1
1
1
1
1
1
1
1
1
1
1
1
1
1
1
1
1
1
1
1
1
1
1
1
1
1
1
1
1
1
1
1
1
1
1
1
1
1
1
1
1
1
1
1
1
1
1
1
1
1
1
1
1
1
1
1
1
1
1
1
1
1
1
1
1
1
1
1
1
1
1
1
1
1
1
1
1
1
1
1
1
1
1
1
1
1
1
1
1
1
1
1
1
1
1
1
1
1
1
1
1
1
1
1
1
1
1
1
1
1
1
1
1
1
1
1
1
1
1
1
1
1
1
1
1
1
1
1
1
1
1
1
1
1
1
1
1
1
1
1
1
1
1
1
1
1
1
1
1
1
1
1
1
1
1
1
1
1
1
1
1
1
1
1
1
1
1
1
1
1
1
1
1
1
1
1
1
1
1
1
1
1
1
1
1
1
1
1
1
1
1
1
1
1
1
1
1
1
1
1
1
1
1
1
1
1
1
1
1
1
1
1
1
1
1
1
1
1
1
1
1
1
1
1
1
1
1
1
1
1
1
1
1
1
1
1
1
1
1
1
1
1
1
1
1
1
1
1
1
1
1
1
1
1
1
1
1
1
1
1
1
1
1
1
1
1
1
1
1
1
1
1
1
1
1
1
1
1
1
1
1
1
1
1
1
1
1
1
1
1
1
1
1
1
1
1
1
1
1
1
1
1
1
1
1
1
1
1
1
1
1
1
1
1
1
1
1
1
1
1
1
1
1
1
1
1
1
1
1
1
1
1
1
1
1
1
1
1
1
1
1
1
1
1
1
1
1
1
1
1
1
1
1
1
1
1
1
1
1
1
1
1
1
1
1
1
1
1
1
1
1
1
1
1
1
1
1
1
1
1
1
1
1
1
1
1
1
1
1
1
1
1
1
1
1
1
1
1
1
1
1
1
1
1
1
1
1
1
1
1
1
1
1
1
1
1
1
1
1
1
1
1
1
1
1
1
1
1
1
1
1
1
1
1
1
1
1
1
1
1
1
1
1
1
1
1
1
1
1
1
1
1
1
1
1
1
1
1
1
1
1
1
1
1
1
1
1
1
1
1
1
1
1
1
1
1
1
1
1
1
1
1
1
1
1
1
1
1
1
1
1
1
1
1
1
1
1
1
1
1
1
1
1
1
1
1
1
1
1
1
1
1
1
1
1
1
1
1
1
1
1
1
1
1
1
1
1
1
1
1
1
1
1
1
1
1
1
1
1
1
1
1
1
1
1
1
1
1
1
1
1
1
1
1
1
1
1
1
1
1
1
1
1
1
1
1
1
1
1
1
1
1
1
1
1
1
1
1
1
1
1
1
1
1
1
1
1
1
1
1
1
1
1
1
1
1
1
1
1
1
1
1
1
1
1
1
1
1
1
1
1
1
1
1
1
1
1
1
1
1
1
1
1
1
1
1
1
1
1
1
1
1
1
1
1
1
1
1
1
1
1
1
1
1
1
1
1
1
1
1
1
1
1
1
1
1
1
1
1
1
1
1
1
1
1
1
1
1
1
1
1
1
1
1
1
1
1
1
1
1
1
1
1
1
1
1
1
1
1
1
1
1
1
1
1
1
1
1
1
1
1
1
1
1
1
1
1
1
1
1
1
1
1
1
1
1
1
1
1
1
1
1
1
1
1
1
1
1
1
1
1
1
1
1
1
1
1
1
1
1
1
1
1
1
1
1
1
1
1
1
1
1
1
1
1
1
1
1
1
1
1
1
1
1
1
1
1
1
1
1
1
1
1
1
1
1
1
1
1
1
1
1
1
1
1
1
1
1
1
1
1
1
1
1
1
1
1
1
1
1
1
1
1
1
1
1
1
1
1
1
1
1
1
1
1
1
1
1
1
1
1
1
1
1
1
1
1
1
1
1
1
1
1
1
1
1
1
1
1
1
1
1
1
1
1
1
1
1
1
1
1
1
1
1
1
1
1
1
1
1
1
1
1
1
1
1
1
1
1
1
1
1
1
1
1
1
1
1
1
1
1
1
1
1
1
1
1
1.53992
0.988664
0.58276
0.523531
0.716151
0.949495
1.02728
1.07524
1.14877
1.25373
1.32248
1.36821
1.41527
1.44331
1.45598
1.48695
1.53279
1.5869
1.64886
1.66346
1.64729
1.62865
1.62879
1.63789
1.66296
1.67687
1.67217
1.65939
1.65532
1.65776
1.67116
1.69447
1.70203
1.69947
1.69261
1.68438
1.68345
1.68489
1.68733
1.68613
1.68143
1.67791
1.67928
1.68476
1.68903
1.69074
1.69076
1.68942
1.68768
1.68652
1.68657
1.68916
1.69351
1.6946
1.69321
1.69026
1.68579
1.68088
1.67872
1.67862
1.67912
1.68113
1.68444
1.68629
1.68627
1.68516
1.68325
1.68182
1.68175
1.68204
1.68281
1.68426
1.68468
1.68445
1.68349
1.68153
1.67828
1.67363
1.6701
1.66855
1.6681
1.66787
1.66788
1.66793
1.66773
1.66642
1.66274
1.6639
1.68437
1.7968
2.01526
2.2807
2.48026
2.62972
2.70166
2.68834
2.64993
2.60463
2.58082
2.562
2.54936
2.54043
2.53226
2.52278
2.51213
2.50228
2.49401
2.48476
2.47534
2.46576
2.45638
2.44767
2.43946
2.43153
2.42371
2.41666
2.41027
2.40365
2.39603
2.38729
2.37773
2.36769
2.35759
2.34782
2.33891
2.33157
2.32563
2.32024
2.31491
2.30938
2.3034
2.29671
2.28925
2.28135
2.27377
2.26753
2.26256
2.25788
2.25312
2.24801
2.24201
2.23454
2.2257
2.21736
2.21195
2.20825
2.20499
2.202
2.19856
2.19464
2.18928
2.18089
2.17015
2.16132
2.15572
2.15159
2.14788
2.14443
2.14081
2.13652
2.13139
2.12436
2.11519
2.10666
2.10069
2.09661
2.09366
2.09113
2.0885
2.08544
2.08149
2.07599
2.06881
2.06154
2.05647
2.05361
2.05161
2.04972
2.04777
2.04564
2.04296
2.03972
2.03532
2.02789
2.01655
2.00518
1.99807
1.99431
1.99267
1.99175
1.99107
1.98866
1.7875
1.50654
1.24758
1.05311
1.06307
1.10107
1.0634
1.01284
1.01551
1.02012
1.04647
1.0892
1.11689
1.15089
1.20019
1.2478
1.30654
1.36393
1.40786
1.45466
1.50046
1.52562
1.54226
1.55755
1.58415
1.60881
1.61056
1.61009
1.60826
1.60989
1.62191
1.63893
1.64537
1.64573
1.64565
1.64599
1.64682
1.65087
1.65569
1.65587
1.65412
1.65283
1.65457
1.65885
1.66242
1.66519
1.66628
1.66612
1.66531
1.66406
1.66396
1.66562
1.66882
1.66986
1.66965
1.66885
1.66708
1.6646
1.66319
1.66303
1.66359
1.6657
1.6688
1.67027
1.67005
1.66927
1.66774
1.66689
1.66717
1.66806
1.66944
1.67094
1.67115
1.67079
1.66933
1.66691
1.66392
1.66026
1.6577
1.65719
1.6572
1.65739
1.65736
1.65712
1.65591
1.65229
1.65604
1.68997
1.80887
1.96606
2.06224
2.12216
2.22976
2.34104
2.4462
2.51518
2.5513
2.55867
2.54884
2.53335
2.52246
2.51398
2.50602
2.49661
2.48659
2.47735
2.46904
2.46084
2.45297
2.44555