/*--------------------------------*- C++ -*----------------------------------*\
  =========                 |
  \\      /  F ield         | OpenFOAM: The Open Source CFD Toolbox
   \\    /   O peration     | Website:  https://openfoam.org
    \\  /    A nd           | Version:  7
     \\/     M anipulation  |
\*---------------------------------------------------------------------------*/
FoamFile
{
    version     2.0;
    format      ascii;
    class       volScalarField;
    location    "7";
    object      p;
}
// * * * * * * * * * * * * * * * * * * * * * * * * * * * * * * * * * * * * * //

dimensions      [0 2 -2 0 0 0 0];

internalField   nonuniform List<scalar> 
8800
(
0.415981
0.368377
0.329972
0.301342
0.280938
0.266619
0.256529
0.24948
0.244949
0.242954
0.243885
0.247518
0.253501
0.262123
0.274237
0.29137
0.315664
0.349254
0.391464
0.45011
0.246474
0.254259
0.262455
0.266214
0.265231
0.260724
0.254806
0.249256
0.244923
0.242214
0.241753
0.243852
0.247708
0.252929
0.258959
0.264538
0.267523
0.266299
0.260157
0.251001
0.22445
0.230952
0.235719
0.239386
0.242054
0.243274
0.242779
0.241189
0.239498
0.238639
0.239234
0.240986
0.243038
0.244401
0.244206
0.242264
0.239166
0.234938
0.22983
0.225971
0.218668
0.221557
0.225752
0.229389
0.231798
0.23335
0.234263
0.234575
0.234457
0.234392
0.234756
0.235348
0.235611
0.235227
0.234166
0.232347
0.229406
0.225321
0.221719
0.220421
0.218388
0.219418
0.221672
0.224108
0.226434
0.228381
0.229772
0.230594
0.231029
0.231302
0.23163
0.231802
0.231564
0.230732
0.229232
0.227191
0.224901
0.222483
0.220821
0.220453
0.217946
0.218309
0.219211
0.220302
0.221382
0.22244
0.223576
0.22453
0.225258
0.225791
0.226104
0.226105
0.225718
0.224986
0.224105
0.223192
0.222196
0.221196
0.22059
0.220457
0.216071
0.216245
0.216766
0.217523
0.218373
0.219318
0.220201
0.221037
0.221784
0.222417
0.222812
0.222875
0.222646
0.222209
0.221495
0.220782
0.220108
0.219508
0.219192
0.219136
0.21323
0.213306
0.213549
0.21394
0.214425
0.215019
0.215713
0.216477
0.217253
0.217981
0.218495
0.218689
0.218615
0.218376
0.218064
0.217742
0.217442
0.217191
0.217071
0.217045
0.209837
0.209888
0.21005
0.210323
0.210692
0.211166
0.211751
0.212444
0.213227
0.214054
0.21473
0.215112
0.215253
0.215234
0.215125
0.214979
0.214828
0.214704
0.214643
0.214626
0.206082
0.206112
0.206224
0.20642
0.206709
0.207114
0.207658
0.208357
0.209209
0.210181
0.21106
0.211651
0.211986
0.212145
0.212199
0.212197
0.212169
0.212137
0.21212
0.212109
0.202
0.202024
0.202115
0.202284
0.202547
0.202935
0.203486
0.204234
0.205198
0.20637
0.207505
0.208342
0.208885
0.209224
0.20942
0.209526
0.209578
0.2096
0.209607
0.2096
0.197594
0.197617
0.19771
0.197879
0.198151
0.198568
0.199178
0.200034
0.201179
0.20262
0.204071
0.205187
0.205966
0.206479
0.206806
0.207006
0.207122
0.207185
0.20721
0.207205
0.19285
0.192872
0.192974
0.193165
0.193476
0.193959
0.194676
0.195702
0.197099
0.198896
0.200744
0.202208
0.203248
0.203952
0.204413
0.204704
0.20488
0.204978
0.205019
0.205014
0.187714
0.187739
0.187859
0.188086
0.188461
0.189046
0.189923
0.191187
0.192926
0.195184
0.197535
0.199417
0.200764
0.201689
0.202302
0.202693
0.202932
0.203067
0.203124
0.203119
0.182094
0.182124
0.182273
0.182554
0.18302
0.183749
0.184846
0.18643
0.188619
0.191471
0.194453
0.196849
0.198573
0.199762
0.200553
0.20106
0.201371
0.201548
0.201623
0.201617
0.17587
0.175907
0.176096
0.176453
0.177043
0.177966
0.179355
0.181362
0.184134
0.187747
0.191523
0.19456
0.196748
0.198259
0.199264
0.19991
0.200307
0.200533
0.200629
0.200623
0.168877
0.168925
0.169168
0.169625
0.170381
0.171563
0.173337
0.175895
0.179421
0.184004
0.188783
0.192618
0.195379
0.197285
0.198554
0.19937
0.199871
0.200157
0.200278
0.20027
0.160892
0.160955
0.161271
0.161864
0.162841
0.164366
0.166648
0.169927
0.174425
0.180243
0.18628
0.19111
0.194581
0.196975
0.198569
0.199593
0.200223
0.200582
0.200734
0.200724
0.151617
0.151701
0.152115
0.152893
0.154168
0.156151
0.159106
0.163328
0.169081
0.176468
0.184082
0.190146
0.194495
0.197492
0.199487
0.200769
0.201558
0.202007
0.202196
0.202183
0.140645
0.14076
0.14131
0.142339
0.144023
0.146629
0.150483
0.155947
0.163323
0.172697
0.182274
0.18986
0.19529
0.199031
0.201522
0.203124
0.20411
0.20467
0.204905
0.204888
0.127415
0.127577
0.128315
0.129702
0.131962
0.135429
0.140505
0.147615
0.15709
0.168968
0.180967
0.190415
0.197167
0.201823
0.20493
0.20693
0.208161
0.208858
0.209151
0.20913
0.111114
0.111343
0.112358
0.114278
0.117384
0.122079
0.128843
0.13816
0.150348
0.165352
0.180298
0.191993
0.200352
0.206134
0.210009
0.212512
0.214052
0.21492
0.215283
0.215257
0.0905055
0.0908322
0.0922889
0.0950646
0.0994701
0.105968
0.115119
0.12742
0.143101
0.161954
0.180425
0.194788
0.205075
0.21224
0.217086
0.220244
0.222194
0.223287
0.223738
0.223704
0.0636467
0.0641397
0.0663864
0.0706329
0.077122
0.0863662
0.0989616
0.115299
0.13542
0.158919
0.181505
0.19896
0.211524
0.220385
0.226481
0.230534
0.233083
0.234523
0.235109
0.235055
0.0272163
0.0280974
0.03204
0.0390659
0.0490998
0.0626775
0.0802492
0.101936
0.127536
0.156462
0.183692
0.204619
0.219801
0.230709
0.238424
0.243744
0.247246
0.24931
0.250169
0.250083
-0.0254262
-0.0228308
-0.0144861
-0.00173078
0.0146262
0.0349844
0.0594498
0.0878862
0.119929
0.154907
0.187148
0.211802
0.229861
0.243137
0.252882
0.259969
0.265001
0.268267
0.269788
0.269689
-0.10552
-0.0930199
-0.073755
-0.0506376
-0.0246503
0.0047214
0.0375576
0.0737344
0.112908
0.154479
0.192187
0.221009
0.242436
0.25866
0.271147
0.280903
0.288583
0.294421
0.298111
0.298902
-0.190614
-0.163847
-0.133051
-0.0996149
-0.0639056
-0.0255753
0.0155742
0.0595454
0.10615
0.15497
0.199119
0.233141
0.258883
0.278907
0.294896
0.308001
0.318946
0.328506
0.336396
0.33756
-0.253526
-0.22458
-0.185895
-0.144259
-0.100227
-0.0538118
-0.00496868
0.0463062
0.0999057
0.155513
0.205528
0.243962
0.273018
0.295594
0.313527
0.328033
0.339923
0.349766
0.356588
0.357765
-0.303247
-0.27225
-0.229153
-0.182058
-0.132047
-0.0793264
-0.0240508
0.0336268
0.0934963
0.155184
0.210295
0.252335
0.283789
0.307873
0.326671
0.3416
0.353648
0.363436
0.370304
0.371573
-0.34215
-0.310761
-0.264606
-0.213635
-0.159269
-0.101756
-0.041363
0.0216683
0.0870445
0.154275
0.214072
0.259287
0.292701
0.317937
0.33734
0.352509
0.364554
0.374107
0.380801
0.38212
-0.374144
-0.342668
-0.29462
-0.240802
-0.183079
-0.121751
-0.0571162
0.01051
0.0807562
0.153019
0.217147
0.265313
0.300545
0.326814
0.34674
0.362103
0.374149
0.383591
0.390124
0.391447
-0.401491
-0.370015
-0.32067
-0.264781
-0.204446
-0.14003
-0.0719076
-0.000387999
0.0741788
0.151158
0.21956
0.270734
0.307852
0.33522
0.355727
0.371344
0.383444
0.392814
0.399205
0.400529
-0.425738
-0.394194
-0.343887
-0.286425
-0.224082
-0.157232
-0.0862091
-0.0113144
0.0671708
0.148687
0.221443
0.275844
0.31505
0.343676
0.364882
0.380831
0.393038
0.402392
0.408681
0.409996
-0.447863
-0.416166
-0.365099
-0.30637
-0.242414
-0.173594
-0.100205
-0.022449
0.0595643
0.145477
0.222798
0.280774
0.322397
0.352531
0.374603
0.391003
0.403391
0.412751
0.418932
0.420237
-0.468584
-0.436589
-0.384851
-0.325096
-0.259855
-0.18946
-0.114153
-0.0339984
0.0511781
0.141376
0.223551
0.285573
0.330046
0.362017
0.385178
0.402161
0.414802
0.424181
0.430321
0.431684
-0.488006
-0.455742
-0.403422
-0.342851
-0.276585
-0.20497
-0.128174
-0.0460797
0.0418606
0.13623
0.223574
0.290203
0.338065
0.372285
0.396816
0.414562
0.427573
0.437118
0.443045
0.444502
-0.506427
-0.473823
-0.420982
-0.359781
-0.292712
-0.220194
-0.142316
-0.0587591
0.0314964
0.129853
0.222695
0.294551
0.346437
0.383409
0.409661
0.428385
0.441881
0.4516
0.457473
0.458906
-0.523906
-0.490986
-0.437671
-0.375907
-0.308267
-0.235148
-0.156594
-0.0720585
0.0200169
0.122082
0.220708
0.298457
0.355074
0.395388
0.423782
0.443759
0.457897
0.467856
0.473722
0.475074
-0.540436
-0.507264
-0.453522
-0.391255
-0.323226
-0.249783
-0.170951
-0.0859568
0.00737763
0.112778
0.217396
0.301712
0.363811
0.408135
0.439165
0.460723
0.475728
0.486053
0.491923
0.493113
-0.55605
-0.522541
-0.468454
-0.405826
-0.337558
-0.264044
-0.185303
-0.100384
-0.0064172
0.101824
0.212545
0.304072
0.372422
0.421443
0.455703
0.479251
0.495393
0.506257
0.512191
0.513103
-0.570851
-0.536877
-0.482469
-0.419574
-0.351199
-0.27785
-0.199559
-0.115235
-0.0213317
0.0891402
0.205977
0.305298
0.380609
0.435033
0.473185
0.499256
0.516783
0.528282
0.534321
0.53495
-0.584625
-0.55043
-0.495558
-0.432458
-0.364104
-0.291108
-0.213604
-0.130386
-0.0372633
0.0746895
0.197543
0.305159
0.388024
0.44851
0.491182
0.520479
0.539829
0.552082
0.558081
0.558334
-0.597437
-0.562937
-0.507723
-0.444452
-0.37622
-0.303751
-0.227311
-0.145699
-0.0541
0.0584714
0.187109
0.303442
0.394343
0.461203
0.509153
0.542507
0.56438
0.577397
0.582998
0.582712
-0.609376
-0.574453
-0.518953
-0.45555
-0.38751
-0.315702
-0.240575
-0.161016
-0.0716979
0.0405453
0.174573
0.300085
0.399155
0.472469
0.526121
0.56464
0.59048
0.604595
0.608411
0.607044
-0.620377
-0.585077
-0.529239
-0.465737
-0.397956
-0.326906
-0.253289
-0.176186
-0.089879
0.020991
0.159932
0.294959
0.402433
0.481512
0.540355
0.585155
0.617545
0.63577
0.63623
0.630593
-0.630581
-0.594815
-0.538621
-0.475061
-0.407603
-0.337396
-0.265481
-0.191238
-0.108741
-0.000435423
0.142783
0.287949
0.404044
0.487568
0.550264
0.601117
0.642454
0.672989
0.677506
0.65253
-0.640024
-0.603673
-0.547177
-0.483666
-0.416634
-0.347384
-0.277428
-0.206594
-0.128987
-0.0249824
0.121808
0.278403
0.403769
0.490523
0.552948
0.60606
0.651258
0.681522
0.677902
0.645413
-0.648589
-0.611604
-0.554784
-0.49144
-0.424871
-0.356631
-0.288908
-0.221898
-0.150206
-0.0524778
0.096775
0.266154
0.402388
0.490982
0.544493
0.590484
0.623115
0.629582
0.564197
0.515889
-0.65568
-0.61843
-0.561175
-0.497858
-0.431895
-0.364852
-0.299712
-0.236974
-0.172262
-0.0833207
0.0670876
0.250799
0.39993
0.489823
0.527347
0.544794
0.557879
0.511757
0.428475
0.373141
-0.710092
-0.621445
-0.567344
-0.504009
-0.438858
-0.372996
-0.309872
-0.251971
-0.195379
-0.117827
0.0316419
0.232336
0.395422
0.486379
0.494706
0.477037
0.434127
0.355229
0.255904
0.200837
-0.64154
-0.627208
-0.57331
-0.512177
-0.447539
-0.383097
-0.323905
-0.273018
-0.231367
-0.175892
-0.0342614
0.199592
0.389489
0.458911
0.433526
0.278497
0.125643
0.0229022
-0.0778166
-0.0245459
-0.666084
-0.635348
-0.580297
-0.519023
-0.454421
-0.39087
-0.333516
-0.288225
-0.258369
-0.224308
-0.101476
0.152096
0.374768
0.421342
0.317783
0.0865732
-0.118856
-0.263334
-0.406593
-0.310582
-0.680416
-0.645029
-0.588469
-0.526231
-0.461486
-0.398483
-0.342959
-0.303044
-0.285721
-0.2748
-0.17098
0.0978993
0.346195
0.380152
0.18053
-0.14003
-0.401792
-0.600245
-0.815477
-0.697271
-0.692914
-0.654247
-0.596177
-0.532673
-0.467536
-0.404946
-0.351378
-0.316982
-0.313354
-0.335492
-0.273144
0.0123619
0.302576
0.295838
-0.00760615
-0.394593
-0.736533
-1.0265
-1.3532
-1.28729
-0.70275
-0.662805
-0.60331
-0.538609
-0.472927
-0.410563
-0.358798
-0.329999
-0.341634
-0.405913
-0.414282
-0.131818
0.203067
0.13955
-0.229704
-0.657035
-1.08262
-1.47587
-1.939
-2.28754
-0.710945
-0.670327
-0.609899
-0.544181
-0.477786
-0.415314
-0.364903
-0.341155
-0.368543
-0.48399
-0.608286
-0.362701
0.0259627
-0.0808493
-0.473522
-0.884702
-1.35236
-1.77197
-1.96348
-2.32342
-0.71826
-0.677137
-0.616007
-0.549328
-0.482053
-0.419133
-0.369535
-0.350247
-0.393975
-0.572659
-0.872574
-0.727767
-0.266343
-0.383381
-0.73096
-1.06092
-1.44889
-1.7888
-1.86577
-1.9148
-0.725145
-0.683485
-0.621626
-0.553926
-0.485555
-0.421782
-0.372268
-0.356434
-0.416081
-0.669913
-1.21966
-1.24141
-0.682123
-0.755068
-1.00375
-1.18977
-1.43309
-1.77164
-1.82503
-1.76691
-0.731927
-0.689526
-0.62675
-0.557866
-0.488103
-0.422932
-0.372542
-0.35833
-0.431877
-0.762379
-1.62035
-1.84363
-1.1794
-1.15648
-1.29795
-1.34148
-1.29675
-1.44156
-1.54382
-1.52057
-0.738926
-0.695445
-0.631467
-0.561133
-0.48961
-0.422355
-0.36985
-0.354552
-0.436245
-0.831633
-1.95926
-2.36221
-1.62912
-1.52428
-1.64342
-1.55701
-1.11512
-1.14183
-1.43191
-1.53715
-0.746205
-0.701374
-0.635905
-0.56382
-0.490069
-0.420015
-0.363833
-0.344061
-0.423492
-0.844607
-2.11237
-2.59333
-1.86056
-1.81419
-2.14229
-2.4502
-2.32216
-2.23626
-2.15456
-2.15263
-0.753847
-0.707529
-0.640255
-0.566072
-0.489646
-0.415978
-0.354576
-0.326292
-0.389797
-0.775259
-1.95635
-2.35121
-1.75461
-1.91608
-2.66482
-3.94295
-4.32031
-3.97899
-3.48329
-3.2516
-0.762206
-0.714111
-0.644772
-0.568164
-0.488613
-0.410612
-0.342435
-0.301869
-0.336392
-0.621528
-1.47154
-1.64995
-1.24731
-1.54697
-2.53052
-4.1483
-4.59896
-4.03654
-3.41396
-3.14752
-0.771501
-0.721533
-0.649807
-0.570451
-0.487377
-0.404431
-0.328399
-0.27276
-0.269304
-0.417351
-0.827238
-0.768537
-0.462995
-0.591951
-1.06745
-1.70756
-1.97995
-1.75328
-1.51381
-1.41572
-0.782042
-0.730088
-0.6557
-0.573309
-0.486436
-0.398195
-0.31357
-0.241397
-0.198147
-0.215595
-0.257653
-0.0492811
0.188659
0.250282
0.187605
0.1126
0.126708
0.176258
0.20749
0.21464
-0.793903
-0.740087
-0.662716
-0.577077
-0.48615
-0.392399
-0.299188
-0.210937
-0.131927
-0.055011
0.0888299
0.352653
0.553542
0.698839
0.784591
0.85982
0.929286
0.971812
0.986003
0.987012
-0.806969
-0.751151
-0.670807
-0.581661
-0.486695
-0.387608
-0.286224
-0.183534
-0.0765864
0.0565037
0.264063
0.522147
0.721388
0.882856
1.00195
1.09477
1.16601
1.21041
1.23052
1.23332
-0.8204
-0.762772
-0.679253
-0.586715
-0.48779
-0.383689
-0.275058
-0.160774
-0.0342667
0.128167
0.348698
0.583167
0.771424
0.920483
1.03429
1.12073
1.18526
1.22949
1.25379
1.25863
-0.83125
-0.77267
-0.686877
-0.590985
-0.488481
-0.380074
-0.265584
-0.142816
-0.00408965
0.170898
0.385664
0.595025
0.76524
0.897876
0.998996
1.07563
1.1334
1.17544
1.20057
1.20595
-0.83686
-0.778364
-0.690956
-0.592546
-0.487187
-0.37552
-0.256971
-0.128842
0.0161136
0.193902
0.396188
0.582511
0.733712
0.851539
0.941855
1.0109
1.06374
1.1035
1.12649
1.13279
-0.834319
-0.776348
-0.688606
-0.588432
-0.48149
-0.368273
-0.247808
-0.11748
0.0289568
0.202729
0.39077
0.557168
0.691326
0.796566
0.878258
0.941627
0.990974
1.02864
1.05064
1.05714
-0.816433
-0.760956
-0.675341
-0.575388
-0.468777
-0.355954
-0.236222
-0.107208
0.0363167
0.202812
0.374849
0.52321
0.642292
0.736585
0.810874
0.869323
0.915528
0.950728
0.97221
0.97909
-0.77684
-0.726729
-0.646147
-0.548788
-0.445493
-0.336514
-0.220814
-0.0965049
0.0402786
0.194973
0.350476
0.481855
0.586802
0.670606
0.737683
0.79133
0.834275
0.867298
0.888306
0.895615
-0.711256
-0.669613
-0.593601
-0.504024
-0.408264
-0.306989
-0.199403
-0.0839967
0.0419177
0.181867
0.319157
0.433171
0.523601
0.59598
0.654537
0.702225
0.740566
0.770761
0.791776
0.798883
-0.609417
-0.579893
-0.514923
-0.43752
-0.354409
-0.265739
-0.170718
-0.0682803
0.0431334
0.165349
0.282714
0.378053
0.4524
0.510975
0.557657
0.595597
0.626609
0.650617
0.666252
0.670955
-0.458319
-0.443619
-0.401116
-0.345242
-0.282537
-0.212678
-0.135212
-0.0494151
0.0456556
0.150841
0.251696
0.332646
0.394566
0.44212
0.478712
0.506622
0.527767
0.544594
0.55672
0.559868
-0.298416
-0.293381
-0.271873
-0.240112
-0.200271
-0.1517
-0.0940191
-0.026518
0.0511659
0.139084
0.22402
0.291881
0.343043
0.381131
0.408951
0.429047
0.443498
0.453032
0.4582
0.459277
-0.169202
-0.167212
-0.158588
-0.14315
-0.121209
-0.0911399
-0.0514534
-0.00134366
0.0596344
0.131114
0.201207
0.256947
0.298149
0.327938
0.349101
0.36348
0.372493
0.377805
0.380449
0.380786
-0.0774177
-0.077791
-0.0759827
-0.0699393
-0.0583087
-0.0400204
-0.0135673
0.022511
0.0689847
0.12561
0.182271
0.227416
0.26043
0.283696
0.299275
0.309244
0.315392
0.318763
0.320057
0.320093
-0.0199293
-0.0207928
-0.0216824
-0.0201364
-0.014408
-0.00300757
0.0152142
0.0414622
0.0767117
0.121039
0.166112
0.202001
0.227875
0.245768
0.257722
0.265281
0.269553
0.271564
0.272201
0.272183
0.0136898
0.0131326
0.0123827
0.0130604
0.0163215
0.0234697
0.035948
0.0550856
0.0817939
0.116242
0.151787
0.180195
0.200657
0.214715
0.223825
0.229332
0.232395
0.233839
0.234298
0.234292
0.0346196
0.0343581
0.0340228
0.0346332
0.0370422
0.0422023
0.0511696
0.0651859
0.085326
0.111954
0.139808
0.162111
0.178033
0.188807
0.195747
0.199965
0.202292
0.203361
0.203704
0.203701
0.0483239
0.0482009
0.0480662
0.0485917
0.0503778
0.0541674
0.0608468
0.0713998
0.0867158
0.107226
0.128895
0.146298
0.158724
0.167138
0.172532
0.175769
0.177539
0.178352
0.178617
0.178615
0.0569904
0.0569464
0.0569557
0.0574657
0.0589022
0.0617955
0.0668237
0.0748013
0.0865004
0.102327
0.119168
0.132728
0.142395
0.148905
0.153059
0.155551
0.156914
0.157539
0.157743
0.15774
0.0621128
0.0621026
0.0621745
0.0626334
0.0637898
0.0660423
0.0699071
0.0760108
0.0849784
0.0971797
0.11023
0.120759
0.128261
0.133311
0.13653
0.138456
0.139505
0.139983
0.140137
0.140133
0.0646246
0.0646284
0.0647216
0.0651188
0.0660479
0.067806
0.0707888
0.0754836
0.0823857
0.0918047
0.101913
0.11008
0.115899
0.11981
0.122299
0.123784
0.124591
0.124956
0.125072
0.125066
0.065174
0.0651822
0.0652728
0.0656028
0.0663433
0.0677193
0.0700318
0.0736554
0.0789782
0.086253
0.0940759
0.100403
0.104909
0.107936
0.109859
0.111004
0.111623
0.1119
0.111985
0.11198
0.0642124
0.064221
0.0642994
0.0645659
0.0651504
0.066224
0.0680177
0.0708191
0.0749301
0.0805519
0.0866032
0.0914997
0.0949868
0.0973261
0.09881
0.0996915
0.100165
0.100375
0.100438
0.100432
0.0620795
0.0620871
0.0621514
0.0623628
0.06282
0.0636554
0.0650461
0.0672135
0.0703901
0.0747339
0.0794129
0.0831989
0.0858941
0.0877012
0.0888459
0.0895236
0.0898867
0.0900448
0.0900906
0.0900852
0.0590365
0.0590426
0.0590938
0.0592593
0.0596159
0.0602647
0.0613416
0.063017
0.0654709
0.0688267
0.0724415
0.0753671
0.0774492
0.0788425
0.0797228
0.0802427
0.0805196
0.080639
0.0806729
0.0806682
0.0552878
0.0552925
0.0553324
0.055461
0.0557369
0.0562387
0.0570711
0.0583655
0.0602604
0.0628509
0.0656411
0.0678977
0.0695021
0.0705757
0.0712533
0.0716521
0.0718629
0.0719527
0.0719772
0.0719731
0.0509922
0.0509957
0.0510263
0.0511252
0.0513379
0.051725
0.0523668
0.0533643
0.0548245
0.0568204
0.0589703
0.0607086
0.0619433
0.062768
0.063288
0.0635938
0.0637543
0.0638218
0.0638398
0.0638362
0.0462744
0.046277
0.0462998
0.0463751
0.0465378
0.046835
0.0473285
0.0480956
0.049218
0.050752
0.0524039
0.0537389
0.0546868
0.0553194
0.0557166
0.055949
0.0560701
0.0561202
0.0561328
0.0561297
0.0412301
0.0412318
0.0412485
0.0413053
0.0414292
0.0416564
0.0420335
0.0426196
0.0434781
0.0446523
0.0459161
0.046937
0.0476612
0.0481432
0.048445
0.048622
0.0487131
0.0487502
0.0487591
0.0487564
0.0359343
0.0359351
0.035947
0.0359894
0.0360828
0.0362544
0.0365404
0.0369856
0.0376378
0.0385295
0.0394891
0.0402633
0.040811
0.0411749
0.0414027
0.0415362
0.041604
0.0416307
0.0416366
0.0416346
0.0304475
0.0304477
0.030456
0.0304869
0.0305561
0.0306837
0.0308968
0.0312298
0.0317185
0.0323869
0.033106
0.0336859
0.0340965
0.0343693
0.0345393
0.0346372
0.0346865
0.0347052
0.0347087
0.034707
0.0248175
0.0248172
0.0248222
0.0248435
0.024893
0.0249852
0.0251404
0.0253836
0.025741
0.0262308
0.0267585
0.0271847
0.0274863
0.0276861
0.0278096
0.0278797
0.0279144
0.0279266
0.0279281
0.0279266
0.0190797
0.0190791
0.0190815
0.0190952
0.0191285
0.0191924
0.0193016
0.0194735
0.0197257
0.0200718
0.0204445
0.0207438
0.0209535
0.0210908
0.0211755
0.0212239
0.0212473
0.0212549
0.0212555
0.0212544
0.0132624
0.0132615
0.0132615
0.0132692
0.0132903
0.0133317
0.0134019
0.0135124
0.0136763
0.0139006
0.0141431
0.0143357
0.0144716
0.0145614
0.0146159
0.0146453
0.0146586
0.0146617
0.0146607
0.0146598
0.00739136
0.00739074
0.00738982
0.00739278
0.00740281
0.00742354
0.00746013
0.00751859
0.00760483
0.00772371
0.00785224
0.0079566
0.00802989
0.00807679
0.00810468
0.00811947
0.00812475
0.0081241
0.00812238
0.00812183
0.001482
0.00148174
0.00147793
0.0014761
0.00147684
0.00147992
0.00148594
0.00149577
0.00151076
0.00153211
0.00155794
0.001583
0.00160088
0.00161252
0.00161996
0.00162414
0.00162589
0.00162564
0.00162328
0.00162072
-0.92813
-0.63079
-0.314706
-0.0612675
0.140938
0.304077
0.444326
0.565811
0.626542
0.59893
-0.407619
-0.216805
-0.0240339
0.139883
0.278464
0.395479
0.492324
0.562505
0.597705
0.603299
-0.0700191
0.051212
0.175348
0.2859
0.381982
0.463208
0.527396
0.572803
0.601782
0.614634
0.153725
0.233401
0.319003
0.396618
0.464238
0.520749
0.565805
0.599779
0.624727
0.63949
0.312351
0.368935
0.430337
0.48669
0.535978
0.578098
0.613122
0.640671
0.661889
0.677303
0.436126
0.478596
0.524284
0.568156
0.607412
0.641703
0.67063
0.69393
0.712467
0.728379
0.539311
0.57353
0.613197
0.650204
0.684228
0.714436
0.740348
0.761301
0.777212
0.793456
0.634842
0.667143
0.70507
0.740167
0.772281
0.800786
0.825004
0.844144
0.857741
0.874375
0.734428
0.769642
0.808543
0.84408
0.87568
0.903055
0.925742
0.943554
0.955584
0.972806
0.852346
0.891278
0.931263
0.966636
0.996889
1.02236
1.04325
1.05942
1.07107
1.0891
0.998932
1.03835
1.07512
1.1064
1.13262
1.15515
1.17451
1.19028
1.20288
1.22091
1.17512
1.20721
1.23382
1.25654
1.27674
1.29572
1.31369
1.33031
1.34582
1.36397
1.36436
1.38183
1.39709
1.4135
1.42955
1.44422
1.45758
1.47163
1.48924
1.5094
1.54652
1.55607
1.56774
1.57869
1.58819
1.59785
1.60865
1.62007
1.63148
1.64685
1.75361
1.75729
1.74249
1.728
1.72183
1.72749
1.74611
1.77645
1.80857
1.83516
2.06058
1.92581
1.84911
1.80641
1.78888
1.79299
1.82021
1.87671
1.97962
2.20409
0.30634
0.304353
0.300018
0.291773
0.280009
0.268428
0.258772
0.251395
0.246188
0.24313
0.24263
0.244876
0.249308
0.255799
0.264452
0.275287
0.287336
0.297872
0.303717
0.306565
0.230173
0.236154
0.243023
0.248194
0.25132
0.251684
0.249609
0.246314
0.243104
0.240881
0.240524
0.242356
0.245464
0.249058
0.252069
0.253109
0.251406
0.24716
0.241296
0.234307
0.220987
0.223246
0.227527
0.231567
0.23436
0.236254
0.237344
0.237515
0.236985
0.236417
0.236454
0.237199
0.238196
0.238694
0.238232
0.236858
0.23462
0.231282
0.226908
0.22347
0.218036
0.218731
0.221474
0.2251
0.228158
0.230375
0.231829
0.232634
0.232925
0.232957
0.233158
0.233635
0.233892
0.23363
0.232705
0.231023
0.22849
0.225157
0.221737
0.220085
0.218465
0.218677
0.219613
0.221097
0.222594
0.22421
0.225727
0.226931
0.227773
0.228332
0.228712
0.228865
0.228662
0.228
0.226866
0.225425
0.22399
0.222566
0.2213
0.220789
0.217115
0.217196
0.217683
0.218549
0.219471
0.220533
0.221462
0.222342
0.223123
0.223761
0.224231
0.224446
0.224321
0.223893
0.223321
0.222535
0.221655
0.220816
0.220139
0.219909
0.214758
0.214794
0.215009
0.215461
0.216045
0.216752
0.217549
0.218385
0.219197
0.21994
0.220529
0.220808
0.220761
0.220466
0.220003
0.219487
0.21901
0.218567
0.218273
0.218184
0.211578
0.211597
0.211721
0.211988
0.212357
0.212821
0.213385
0.214049
0.214792
0.21557
0.216274
0.21672
0.216876
0.216833
0.216677
0.216469
0.216248
0.21604
0.215902
0.215859
0.208003
0.208015
0.208097
0.208278
0.208552
0.208929
0.209428
0.210057
0.210814
0.211677
0.212539
0.213176
0.213522
0.213662
0.213674
0.21362
0.213539
0.213457
0.213401
0.213382
0.204079
0.204085
0.204146
0.204283
0.204504
0.204831
0.205292
0.205917
0.206725
0.207714
0.208781
0.209653
0.21022
0.210554
0.210737
0.210824
0.210857
0.21086
0.210856
0.210852
0.199839
0.199841
0.199899
0.200024
0.200235
0.200561
0.201042
0.201721
0.202639
0.203816
0.205149
0.206308
0.207105
0.207641
0.207975
0.208177
0.208293
0.208354
0.208382
0.208388
0.195266
0.195266
0.195327
0.195462
0.195691
0.196052
0.196595
0.197383
0.198475
0.199912
0.201589
0.203088
0.204169
0.204913
0.205404
0.205716
0.205906
0.206016
0.206071
0.206085
0.190337
0.190336
0.190404
0.190559
0.190826
0.191252
0.191902
0.192855
0.194193
0.195979
0.198096
0.200021
0.201436
0.202419
0.203079
0.203507
0.203774
0.203931
0.204011
0.204032
0.184971
0.184969
0.185051
0.18524
0.185567
0.186091
0.186893
0.188075
0.189746
0.191989
0.194668
0.19712
0.198932
0.200205
0.201064
0.201625
0.201977
0.202186
0.202294
0.202322
0.179067
0.179063
0.179167
0.179404
0.179814
0.180472
0.181482
0.182972
0.18508
0.187916
0.191307
0.194419
0.196724
0.198346
0.199445
0.200164
0.200615
0.200885
0.201025
0.201061
0.172482
0.172478
0.172611
0.172913
0.173436
0.174275
0.17556
0.177455
0.180133
0.18373
0.188027
0.191964
0.194878
0.196931
0.198322
0.199233
0.199806
0.200149
0.200326
0.200372
0.165027
0.165021
0.165193
0.165584
0.166259
0.167337
0.168987
0.171412
0.174829
0.179404
0.184845
0.189817
0.193489
0.196073
0.197824
0.19897
0.199692
0.200123
0.200346
0.200404
0.156443
0.156435
0.156662
0.157173
0.158051
0.159449
0.161582
0.164705
0.169082
0.174909
0.181796
0.188057
0.192669
0.19591
0.198105
0.199541
0.200446
0.200987
0.201266
0.201338
0.146379
0.146371
0.146674
0.147351
0.148506
0.150337
0.153116
0.15716
0.162788
0.170217
0.178923
0.186787
0.19256
0.196611
0.199353
0.201148
0.20228
0.202957
0.203306
0.203396
0.134349
0.13434
0.134753
0.135668
0.13721
0.139634
0.143288
0.148563
0.155829
0.165307
0.176289
0.186129
0.193326
0.198374
0.201792
0.204033
0.205448
0.206297
0.206736
0.206847
0.119661
0.119655
0.12024
0.121502
0.123594
0.12685
0.131717
0.13866
0.148082
0.160174
0.173978
0.186229
0.19516
0.201427
0.205682
0.20848
0.210255
0.211329
0.211887
0.212025
0.101322
0.101331
0.102196
0.103986
0.106882
0.111348
0.117944
0.127182
0.13945
0.15485
0.172104
0.187249
0.198266
0.206022
0.211317
0.21482
0.217062
0.218436
0.219161
0.219339
0.0778058
0.0778659
0.0792199
0.081853
0.0860121
0.0923507
0.101498
0.113926
0.129927
0.149449
0.170829
0.189374
0.202852
0.212405
0.219001
0.223418
0.226281
0.228065
0.229031
0.229274
0.0465314
0.046734
0.0490236
0.0531787
0.0595625
0.0689935
0.0819842
0.0988386
0.119661
0.144192
0.170366
0.192781
0.209084
0.220773
0.228995
0.234631
0.238368
0.240745
0.242065
0.242413
0.00277219
0.00338815
0.00783994
0.0152327
0.0258907
0.040511
0.059222
0.0820805
0.108946
0.13936
0.170907
0.197569
0.217004
0.231152
0.24138
0.248663
0.253725
0.257116
0.259089
0.259579
-0.0617929
-0.059387
-0.0490587
-0.0345414
-0.0158178
0.00701828
0.0337532
0.0642713
0.0982813
0.135263
0.172563
0.20368
0.226425
0.243261
0.255819
0.265212
0.272202
0.277352
0.280647
0.281153
-0.139807
-0.135055
-0.115927
-0.08964
-0.060305
-0.0279637
0.00748425
0.046064
0.0876326
0.131814
0.175803
0.212508
0.239731
0.260441
0.276523
0.289222
0.299428
0.307651
0.312129
0.313991
-0.219052
-0.206926
-0.178099
-0.14186
-0.102948
-0.0615712
-0.0177137
0.0287232
0.0777057
0.129001
0.179682
0.221964
0.253493
0.277732
0.296863
0.312258
0.324782
0.335019
0.341933
0.34537
-0.275973
-0.262856
-0.229245
-0.186629
-0.140704
-0.0921573
-0.0411159
0.0123414
0.0681196
0.125984
0.182712
0.229731
0.264577
0.291148
0.311842
0.328195
0.341223
0.351621
0.3587
0.362046
-0.320819
-0.307458
-0.270388
-0.223469
-0.172679
-0.118813
-0.0621511
-0.00290172
0.0587252
0.122413
0.184569
0.235754
0.273302
0.301545
0.323217
0.340098
0.35336
0.363795
0.370985
0.374226
-0.356368
-0.343255
-0.304348
-0.254373
-0.20001
-0.142127
-0.081006
-0.0169287
0.0497927
0.11875
0.185908
0.240885
0.280815
0.310478
0.332929
0.350173
0.363552
0.373954
0.381175
0.384397
-0.386266
-0.373354
-0.333243
-0.281107
-0.224014
-0.162909
-0.0981412
-0.03003
0.0410911
0.114767
0.1866
0.245247
0.287523
0.318589
0.341811
0.359436
0.372963
0.383376
0.390673
0.39387
-0.412249
-0.399465
-0.358499
-0.304777
-0.245644
-0.182033
-0.114301
-0.0427928
0.032196
0.110248
0.186677
0.249103
0.293869
0.326468
0.350564
0.368637
0.382363
0.392829
0.400195
0.403362
-0.435574
-0.422838
-0.38121
-0.326254
-0.265506
-0.199906
-0.129774
-0.0554104
0.022977
0.105112
0.186133
0.252577
0.300124
0.334493
0.359633
0.378274
0.392271
0.402833
0.41028
0.413437
-0.457099
-0.444395
-0.402108
-0.346159
-0.284117
-0.216908
-0.144833
-0.0681075
0.0132236
0.0991695
0.184859
0.255697
0.306437
0.342913
0.369337
0.388701
0.403063
0.413767
0.421258
0.424381
-0.477288
-0.464541
-0.421623
-0.364848
-0.301788
-0.233316
-0.159704
-0.0810639
0.00278244
0.0922631
0.182726
0.258415
0.312863
0.35188
0.379896
0.40018
0.415024
0.425954
0.433505
0.436622
-0.496323
-0.483422
-0.440055
-0.382554
-0.318668
-0.249225
-0.174461
-0.0943647
-0.00845524
0.0842387
0.17955
0.260606
0.31938
0.361463
0.391458
0.412907
0.428384
0.439603
0.447245
0.450318
-0.514416
-0.501332
-0.457476
-0.39941
-0.334845
-0.264696
-0.189133
-0.108035
-0.0205648
0.0749668
0.175153
0.262099
0.325889
0.371658
0.40409
0.427013
0.443304
0.454925
0.462684
0.465749
-0.531542
-0.518297
-0.473953
-0.415422
-0.350343
-0.27972
-0.203701
-0.122054
-0.0335671
0.0643293
0.169338
0.262692
0.332225
0.382372
0.417792
0.442572
0.459906
0.472049
0.479974
0.483069
-0.547766
-0.534303
-0.489574
-0.430565
-0.365143
-0.294255
-0.218109
-0.13636
-0.047432
0.0522602
0.161933
0.26216
0.33817
0.393441
0.432486
0.459595
0.47826
0.491066
0.49922
0.502336
-0.563024
-0.549412
-0.504269
-0.444853
-0.379196
-0.308241
-0.23226
-0.150868
-0.0620904
0.038723
0.152768
0.260274
0.343468
0.404623
0.447955
0.477909
0.498305
0.512003
0.520497
0.523539
-0.577411
-0.563542
-0.518015
-0.458269
-0.392456
-0.321612
-0.246066
-0.165451
-0.0774593
0.0237499
0.141713
0.256813
0.347853
0.415533
0.463828
0.497268
0.519856
0.534752
0.54369
0.546587
-0.590722
-0.576799
-0.530791
-0.470776
-0.40489
-0.334285
-0.259431
-0.179981
-0.0934004
0.00738496
0.128684
0.251602
0.351104
0.42574
0.479544
0.517282
0.542679
0.558998
0.568206
0.570846
-0.603168
-0.589061
-0.54261
-0.482362
-0.416476
-0.346225
-0.272246
-0.194337
-0.109764
-0.0102714
0.11365
0.244568
0.352918
0.434711
0.494314
0.537266
0.566735
0.585057
0.593999
0.595687
-0.614669
-0.600339
-0.553508
-0.49302
-0.427177
-0.357377
-0.284433
-0.208364
-0.126385
-0.0291067
0.0965947
0.235602
0.353164
0.441932
0.507348
0.55601
0.591148
0.613394
0.621711
0.619925
-0.625334
-0.610813
-0.563463
-0.502749
-0.437001
-0.367713
-0.295918
-0.221957
-0.143094
-0.0489364
0.0775514
0.224657
0.351726
0.447334
0.517589
0.571367
0.613656
0.64413
0.656266
0.645698
-0.635162
-0.620436
-0.572557
-0.511656
-0.446093
-0.377416
-0.306934
-0.235444
-0.160423
-0.0706567
0.0552726
0.210698
0.348369
0.4508
0.52343
0.580346
0.628816
0.67035
0.690044
0.68907
-0.644197
-0.629119
-0.580769
-0.519754
-0.45448
-0.386504
-0.317442
-0.248752
-0.178293
-0.0943537
0.0292793
0.193198
0.342918
0.451934
0.522827
0.576832