/*--------------------------------*- C++ -*----------------------------------*\
  =========                 |
  \\      /  F ield         | OpenFOAM: The Open Source CFD Toolbox
   \\    /   O peration     | Website:  https://openfoam.org
    \\  /    A nd           | Version:  7
     \\/     M anipulation  |
\*---------------------------------------------------------------------------*/
FoamFile
{
    version     2.0;
    format      ascii;
    class       volVectorField;
    location    "7";
    object      U;
}
// * * * * * * * * * * * * * * * * * * * * * * * * * * * * * * * * * * * * * //

dimensions      [0 1 -1 0 0 0 0];

internalField   nonuniform List<vector> 
8800
(
(0.979716 -0.0914196 0)
(1.00228 -0.0587335 0)
(0.999627 -0.0318078 0)
(0.999628 -0.01582 0)
(0.999665 -0.00812929 0)
(0.999899 -0.00469077 0)
(0.999958 -0.00283068 0)
(0.999963 -0.00166491 0)
(0.999974 -0.000819529 0)
(1.00005 -0.000136813 0)
(0.999987 0.000543874 0)
(0.999963 0.00129595 0)
(0.999962 0.0022746 0)
(0.999947 0.00371819 0)
(0.999745 0.00613996 0)
(0.999576 0.011267 0)
(0.9997 0.0225686 0)
(0.99928 0.0430392 0)
(1.00683 0.0791065 0)
(0.774988 0.0478455 0)
(0.360267 -0.0145785 0)
(1.04747 -0.0714751 0)
(1.08777 -0.0650047 0)
(1.0492 -0.0502886 0)
(1.0261 -0.0373731 0)
(1.01332 -0.0252329 0)
(1.0068 -0.0156583 0)
(1.00375 -0.00916927 0)
(1.0022 -0.00479935 0)
(1.00148 -0.00170518 0)
(1.00137 0.00075483 0)
(1.00175 0.00346954 0)
(1.00282 0.00703399 0)
(1.00496 0.0122925 0)
(1.00944 0.0202521 0)
(1.01871 0.0312765 0)
(1.0362 0.0440623 0)
(1.06649 0.056976 0)
(1.09465 0.0699878 0)
(0.847193 0.0551313 0)
(0.222687 -0.00116094 0)
(1.07878 -0.0467933 0)
(1.10023 -0.0440141 0)
(1.06409 -0.0346584 0)
(1.03947 -0.0273688 0)
(1.0234 -0.0211737 0)
(1.01347 -0.0153977 0)
(1.00788 -0.0100943 0)
(1.0051 -0.00546422 0)
(1.00407 -0.000847762 0)
(1.00436 0.00392635 0)
(1.00615 0.00832065 0)
(1.01012 0.0132087 0)
(1.01762 0.0186861 0)
(1.03025 0.0244508 0)
(1.05035 0.0311408 0)
(1.08031 0.0390114 0)
(1.10805 0.0474856 0)
(0.949585 0.0385375 0)
(0.222453 0.0011689 0)
(0.187853 -0.000283719 0)
(1.02969 -0.0265363 0)
(1.10724 -0.0323663 0)
(1.07678 -0.0292661 0)
(1.05036 -0.0251422 0)
(1.03299 -0.0206552 0)
(1.0218 -0.0159601 0)
(1.01466 -0.0110685 0)
(1.01048 -0.00597637 0)
(1.00881 -0.000796979 0)
(1.00925 0.00425423 0)
(1.01207 0.00933028 0)
(1.01755 0.0142095 0)
(1.02647 0.0188965 0)
(1.04037 0.0234402 0)
(1.06171 0.0275352 0)
(1.09406 0.0314435 0)
(1.09923 0.0318213 0)
(0.851293 0.0162959 0)
(0.187483 0.000290446 0)
(0.179634 4.09729e-05 0)
(0.986076 -0.00983611 0)
(1.09697 -0.018733 0)
(1.07738 -0.0222427 0)
(1.05261 -0.0228661 0)
(1.03618 -0.0210359 0)
(1.02513 -0.0175129 0)
(1.0179 -0.0128171 0)
(1.01351 -0.00723678 0)
(1.01155 -0.000895409 0)
(1.01205 0.00551767 0)
(1.01506 0.011339 0)
(1.02071 0.0163076 0)
(1.02962 0.0202867 0)
(1.04303 0.0228478 0)
(1.06323 0.0233741 0)
(1.09121 0.0212916 0)
(1.07477 0.0154624 0)
(0.800057 0.00408332 0)
(0.179072 -3.31994e-05 0)
(0.17856 1.6458e-05 0)
(0.95771 -0.0045926 0)
(1.07759 -0.0130865 0)
(1.07114 -0.0192149 0)
(1.05387 -0.0211351 0)
(1.04147 -0.0203629 0)
(1.03231 -0.0175175 0)
(1.02562 -0.0130908 0)
(1.02113 -0.00742569 0)
(1.01882 -0.000655268 0)
(1.01941 0.00625377 0)
(1.02254 0.012265 0)
(1.02795 0.0170635 0)
(1.03567 0.0204427 0)
(1.04609 0.0219226 0)
(1.06114 0.0215469 0)
(1.07797 0.0172046 0)
(1.04805 0.00919653 0)
(0.778311 0.00161034 0)
(0.177764 -7.10694e-06 0)
(0.178344 3.23805e-05 0)
(0.94035 -0.00187453 0)
(1.05759 -0.00757702 0)
(1.06025 -0.0131916 0)
(1.05083 -0.0162917 0)
(1.04216 -0.0167442 0)
(1.03495 -0.0150357 0)
(1.02917 -0.0115381 0)
(1.02496 -0.00659394 0)
(1.02275 -0.000252976 0)
(1.02319 0.00634538 0)
(1.02608 0.011784 0)
(1.03079 0.0156884 0)
(1.03708 0.017969 0)
(1.04494 0.0183236 0)
(1.05401 0.0162179 0)
(1.06144 0.0114832 0)
(1.02603 0.00490165 0)
(0.767676 0.000608022 0)
(0.177246 -1.87969e-05 0)
(0.178443 1.33138e-05 0)
(0.931858 -0.000843928 0)
(1.04493 -0.00379785 0)
(1.05194 -0.00731499 0)
(1.04776 -0.00981209 0)
(1.04288 -0.0108268 0)
(1.03806 -0.0102534 0)
(1.03362 -0.00810858 0)
(1.03004 -0.00447582 0)
(1.02812 0.000492517 0)
(1.02831 0.0056504 0)
(1.03063 0.00965754 0)
(1.03413 0.0121131 0)
(1.03854 0.0129661 0)
(1.04323 0.0122493 0)
(1.04774 0.0100214 0)
(1.04962 0.00650924 0)
(1.01311 0.00260762 0)
(0.762648 0.000397204 0)
(0.177 3.49339e-06 0)
(0.178538 1.44916e-05 0)
(0.927974 -0.000285569 0)
(1.03829 -0.00163629 0)
(1.04654 -0.00347351 0)
(1.04475 -0.00503244 0)
(1.04208 -0.00589665 0)
(1.03903 -0.00580887 0)
(1.03587 -0.00458403 0)
(1.03308 -0.00214415 0)
(1.03137 0.00132445 0)
(1.0313 0.00488358 0)
(1.03288 0.00739616 0)
(1.03516 0.00864415 0)
(1.03788 0.00864915 0)
(1.04047 0.00761702 0)
(1.0426 0.00581399 0)
(1.0423 0.0035787 0)
(1.00625 0.00145216 0)
(0.759839 0.000273256 0)
(0.176688 5.63469e-06 0)
(0.178769 1.7757e-05 0)
(0.926435 1.6171e-05 0)
(1.03527 -0.000529279 0)
(1.04381 -0.00135643 0)
(1.04305 -0.00212463 0)
(1.04157 -0.00259077 0)
(1.03965 -0.00254505 0)
(1.03744 -0.00177928 0)
(1.03528 -0.000169869 0)
(1.03372 0.00214472 0)
(1.03335 0.00444579 0)
(1.03417 0.00587276 0)
(1.03547 0.00629102 0)
(1.03697 0.00589995 0)
(1.03828 0.00491919 0)
(1.03922 0.00360845 0)
(1.03811 0.00220658 0)
(1.00251 0.000972153 0)
(0.75805 0.00023837 0)
(0.176396 1.01648e-05 0)
(0.179103 1.91999e-05 0)
(0.926132 0.000220092 0)
(1.0341 9.62743e-05 0)
(1.04267 -0.000172912 0)
(1.04232 -0.000416308 0)
(1.0414 -0.000508905 0)
(1.0401 -0.000317093 0)
(1.03849 0.000303166 0)
(1.03675 0.00144358 0)
(1.03524 0.00300618 0)
(1.03452 0.00442165 0)
(1.0347 0.0050861 0)
(1.03524 0.00505337 0)
(1.03592 0.00450022 0)
(1.0365 0.00362373 0)
(1.03687 0.00262468 0)
(1.03545 0.0016466 0)
(1.00011 0.000806926 0)
(0.756624 0.000247065 0)
(0.17605 1.46386e-05 0)
(0.179534 2.26429e-05 0)
(0.9265 0.000365328 0)
(1.03398 0.000504441 0)
(1.04251 0.000586444 0)
(1.04232 0.000706209 0)
(1.04165 0.000925548 0)
(1.04067 0.00131715 0)
(1.03935 0.00195862 0)
(1.0378 0.00288463 0)
(1.03623 0.00398835 0)
(1.03516 0.0048222 0)
(1.03472 0.00506541 0)
(1.03472 0.00467529 0)
(1.03485 0.00397993 0)
(1.03499 0.00314205 0)
(1.03506 0.00228251 0)
(1.03349 0.00148302 0)
(0.998254 0.000796065 0)
(0.755261 0.00028208 0)
(0.175627 1.95968e-05 0)
(0.180086 2.88924e-05 0)
(0.927459 0.000528262 0)
(1.03455 0.000869771 0)
(1.04303 0.00120151 0)
(1.04289 0.00159489 0)
(1.0423 0.00208194 0)
(1.04142 0.00269197 0)
(1.0402 0.00344638 0)
(1.03865 0.00431976 0)
(1.03689 0.00516638 0)
(1.03539 0.00559423 0)
(1.03448 0.00540525 0)
(1.03396 0.00483895 0)
(1.0337 0.00402968 0)
(1.03355 0.00315202 0)
(1.03343 0.00230664 0)
(1.03175 0.00154342 0)
(0.996531 0.00088177 0)
(0.753781 0.000339897 0)
(0.175097 2.54509e-05 0)
(0.180798 3.64576e-05 0)
(0.928927 0.00070612 0)
(1.03568 0.00123488 0)
(1.04408 0.00178974 0)
(1.04393 0.00243327 0)
(1.04334 0.00318005 0)
(1.04243 0.00403179 0)
(1.04114 0.00496461 0)
(1.03942 0.00589693 0)
(1.03733 0.00662575 0)
(1.03535 0.00677925 0)
(1.03394 0.0063048 0)
(1.03299 0.00548306 0)
(1.0324 0.00450286 0)
(1.03202 0.00350858 0)
(1.03175 0.00258243 0)
(1.02999 0.0017604 0)
(0.994705 0.00104182 0)
(0.75205 0.000419141 0)
(0.174433 3.24717e-05 0)
(0.18171 4.64399e-05 0)
(0.930944 0.000921118 0)
(1.03735 0.00165099 0)
(1.04566 0.00243705 0)
(1.04546 0.00334156 0)
(1.04478 0.00436986 0)
(1.04375 0.00550162 0)
(1.04226 0.00667518 0)
(1.04023 0.00775162 0)
(1.03765 0.00845913 0)
(1.03508 0.0084094 0)
(1.03312 0.00766506 0)
(1.03176 0.0065627 0)
(1.03085 0.00534592 0)
(1.03026 0.00415741 0)
(1.02986 0.00307111 0)
(1.02801 0.00211535 0)
(0.992603 0.00127543 0)
(0.749943 0.000524064 0)
(0.173596 4.11842e-05 0)
(0.182881 5.96553e-05 0)
(0.933607 0.00119336 0)
(1.03963 0.00215957 0)
(1.04782 0.00320997 0)
(1.04752 0.00441475 0)
(1.04671 0.00577231 0)
(1.04546 0.00724286 0)
(1.04364 0.00872678 0)
(1.04113 0.0100242 0)
(1.0379 0.0107794 0)
(1.0346 0.010555 0)
(1.03201 0.00951172 0)
(1.03018 0.00808174 0)
(1.02894 0.00655562 0)
(1.02813 0.00509185 0)
(1.02759 0.00376775 0)
(1.02564 0.00260808 0)
(0.990064 0.00158658 0)
(0.747328 0.000657925 0)
(0.172541 5.19057e-05 0)
(0.18439 7.70605e-05 0)
(0.937071 0.00154343 0)
(1.04263 0.00280291 0)
(1.05067 0.00417631 0)
(1.05023 0.00574682 0)
(1.0492 0.00750758 0)
(1.04763 0.00939766 0)
(1.04535 0.0112758 0)
(1.0422 0.0128717 0)
(1.03812 0.0137257 0)
(1.0339 0.0133237 0)
(1.03056 0.0119274 0)
(1.02818 0.0100922 0)
(1.02656 0.00816721 0)
(1.0255 0.00633893 0)
(1.0248 0.00469345 0)
(1.02274 0.00325535 0)
(0.986923 0.0019877 0)
(0.744054 0.000827127 0)
(0.171214 6.51984e-05 0)
(0.186346 0.000100154 0)
(0.941549 0.00199976 0)
(1.04652 0.00363424 0)
(1.05435 0.00541638 0)
(1.05372 0.00744542 0)
(1.0524 0.0097115 0)
(1.0504 0.0121285 0)
(1.04749 0.0145039 0)
(1.04348 0.0164805 0)
(1.0383 0.0174712 0)
(1.03293 0.0168616 0)
(1.02867 0.0150296 0)
(1.02564 0.0126833 0)
(1.02357 0.0102483 0)
(1.02221 0.0079495 0)
(1.02133 0.00588694 0)
(1.01912 0.0040873 0)
(0.982998 0.00249899 0)
(0.739938 0.00104027 0)
(0.169547 8.1717e-05 0)
(0.188897 0.000131285 0)
(0.947328 0.00260321 0)
(1.05151 0.00472879 0)
(1.05908 0.00703766 0)
(1.0582 0.00964942 0)
(1.05649 0.0125547 0)
(1.05389 0.0156362 0)
(1.05015 0.0186342 0)
(1.04502 0.0210809 0)
(1.03842 0.0222322 0)
(1.03163 0.0213538 0)
(1.02624 0.0189708 0)
(1.02241 0.0159774 0)
(1.01979 0.0128969 0)
(1.01807 0.0100009 0)
(1.01696 0.00740667 0)
(1.01458 0.00514354 0)
(0.978065 0.00314412 0)
(0.734759 0.00130702 0)
(0.167457 0.000102108 0)
(0.192254 0.000175138 0)
(0.954797 0.00341946 0)
(1.05791 0.00620251 0)
(1.06513 0.00919162 0)
(1.06391 0.0125399 0)
(1.06165 0.0162546 0)
(1.05826 0.020177 0)
(1.05341 0.0239502 0)
(1.04683 0.0269614 0)
(1.03844 0.0282763 0)
(1.02987 0.0270315 0)
(1.0231 0.023945 0)
(1.01829 0.0201355 0)
(1.015 0.0162434 0)
(1.01285 0.012597 0)
(1.01147 0.00933497 0)
(1.00888 0.00648389 0)
(0.97186 0.00395868 0)
(0.728238 0.00164149 0)
(0.164838 0.00012771 0)
(0.196741 0.000241525 0)
(0.964519 0.0045668 0)
(1.06616 0.00823476 0)
(1.07295 0.0120741 0)
(1.07122 0.0163345 0)
(1.06819 0.0210824 0)
(1.06369 0.0260791 0)
(1.05736 0.030812 0)
(1.04889 0.0344788 0)
(1.03825 0.0359277 0)
(1.0275 0.0341731 0)
(1.01905 0.030188 0)
(1.01305 0.0253587 0)
(1.00895 0.0204588 0)
(1.00627 0.015885 0)
(1.00456 0.011796 0)
(1.00173 0.00820674 0)
(0.964043 0.00500478 0)
(0.72001 0.00206979 0)
(0.161557 0.000161502 0)
(0.202864 0.000346458 0)
(0.97736 0.00623745 0)
(1.07702 0.0110565 0)
(1.08325 0.0158999 0)
(1.08074 0.0213008 0)
(1.07654 0.0274115 0)
(1.07047 0.033796 0)
(1.06212 0.0396957 0)
(1.0512 0.0440809 0)
(1.03775 0.0455746 0)
(1.02434 0.0431077 0)
(1.01387 0.0379868 0)
(1.00642 0.0319009 0)
(1.00133 0.0257685 0)
(0.997985 0.0200686 0)
(0.995874 0.0149786 0)
(0.992724 0.0104817 0)
(0.954179 0.00640283 0)
(0.709567 0.00264134 0)
(0.157427 0.000209536 0)
(0.211439 0.000511412 0)
(0.994636 0.00873368 0)
(1.09171 0.0149944 0)
(1.0971 0.0210498 0)
(1.09331 0.0280061 0)
(1.08736 0.035971 0)
(1.07905 0.0440891 0)
(1.06794 0.0512997 0)
(1.05381 0.0563534 0)
(1.03685 0.0576813 0)
(1.02025 0.0542174 0)
(1.00736 0.0476843 0)
(0.998169 0.0400833 0)
(0.991819 0.0324708 0)
(0.987611 0.0254228 0)
(0.984936 0.0191495 0)
(0.981362 0.0135774 0)
(0.941716 0.00837793 0)
(0.696261 0.00345247 0)
(0.152198 0.000280512 0)
(0.223844 0.000781812 0)
(1.01808 0.0127023 0)
(1.1115 0.0208082 0)
(1.11557 0.0285744 0)
(1.10982 0.037807 0)
(1.10134 0.0481493 0)
(1.08985 0.0581679 0)
(1.07501 0.0665816 0)
(1.05677 0.0720055 0)
(1.03553 0.0727537 0)
(1.01514 0.0678949 0)
(0.999398 0.0596395 0)
(0.988086 0.0502633 0)
(0.980142 0.0409188 0)
(0.974738 0.0322715 0)
(0.971193 0.0245949 0)
(0.966967 0.0177693 0)
(0.92605 0.0111929 0)
(0.679495 0.00463336 0)
(0.145582 0.000376326 0)
(0.242456 0.00130174 0)
(1.0502 0.0196612 0)
(1.13796 0.0301273 0)
(1.13972 0.0405072 0)
(1.13084 0.052792 0)
(1.11853 0.0656887 0)
(1.10256 0.0773595 0)
(1.08286 0.0864938 0)
(1.05963 0.0916742 0)
(1.03342 0.0912071 0)
(1.00875 0.084443 0)
(0.98976 0.0741364 0)
(0.975952 0.0627644 0)
(0.966018 0.0514865 0)
(0.958986 0.0409923 0)
(0.954116 0.0316237 0)
(0.948838 0.0232473 0)
(0.906469 0.0150063 0)
(0.658777 0.00628656 0)
(0.137284 0.000486246 0)
(0.270575 0.00254944 0)
(1.09648 0.0333453 0)
(1.17394 0.0467807 0)
(1.17064 0.0608269 0)
(1.15613 0.0762252 0)
(1.1378 0.0909083 0)
(1.11574 0.103229 0)
(1.09011 0.112011 0)
(1.06123 0.115911 0)
(1.02968 0.113337 0)
(1.00051 0.104088 0)
(0.978065 0.0914523 0)
(0.961499 0.0779878 0)
(0.949225 0.0647586 0)
(0.940126 0.0523729 0)
(0.933409 0.0411883 0)
(0.926426 0.0310312 0)
(0.88153 0.0207302 0)
(0.632707 0.00858923 0)
(0.127406 0.000579608 0)
(0.311523 0.0105769 -1.54641e-20)
(1.15779 0.0616355 -1.17287e-20)
(1.21914 0.0787443 3.27755e-21)
(1.2061 0.0957669 0)
(1.18337 0.112173 1.36903e-35)
(1.15731 0.126532 -3.43481e-23)
(1.12804 0.137674 -9.26876e-22)
(1.09571 0.144576 0)
(1.06067 0.146063 4.13729e-35)
(1.02338 0.140662 -3.25367e-21)
(0.989328 0.128648 0)
(0.962994 0.113749 -4.81109e-21)
(0.943117 0.0984452 -1.48075e-20)
(0.927796 0.0836703 -7.20043e-21)
(0.91573 0.0700088 -2.28434e-21)
(0.905975 0.0578366 -1.38991e-21)
(0.89585 0.0469989 0)
(0.848595 0.0355899 1.01137e-21)
(0.598007 0.0202154 1.20012e-21)
(0.117347 0.00357857 2.14033e-20)
(0.332666 0.0291358 -2.74076e-20)
(1.20817 0.110396 5.16087e-22)
(1.26009 0.129526 -1.53208e-21)
(1.23834 0.144654 0)
(1.20779 0.159083 2.8309e-21)
(1.17439 0.171377 1.92617e-21)
(1.13816 0.180396 -4.26501e-22)
(1.0992 0.185088 -4.83246e-21)
(1.05769 0.184222 0)
(1.01398 0.176346 1.3646e-20)
(0.97401 0.162146 1.53916e-20)
(0.942585 0.145775 5.00229e-21)
(0.918166 0.129663 2.00808e-20)
(0.898559 0.114535 2.99406e-20)
(0.882315 0.100908 0)
(0.868317 0.0892302 4.50982e-20)
(0.853504 0.0793366 6.65243e-20)
(0.804591 0.0686943 7.46684e-20)
(0.572593 0.0472946 -8.7671e-20)
(0.11606 0.0099746 -1.59683e-21)
(0.320865 0.0468935 0)
(1.23759 0.173517 -7.92704e-21)
(1.29031 0.19289 0)
(1.26276 0.203861 1.29386e-20)
(1.22603 0.214104 0)
(1.18649 0.22246 7.64832e-21)
(1.14428 0.2279 -5.09397e-24)
(1.09952 0.229262 -6.11497e-21)
(1.05233 0.225308 -1.51648e-21)
(1.00292 0.214646 6.43221e-21)
(0.957737 0.198397 3.59182e-20)
(0.922091 0.180975 -2.28289e-22)
(0.894214 0.164689 -1.50878e-20)
(0.871664 0.150149 -2.95486e-20)
(0.852945 0.137661 3.60885e-20)
(0.836966 0.127466 -6.49598e-20)
(0.821247 0.119424 -8.95611e-21)
(0.777455 0.109386 0)
(0.566049 0.0801239 5.23532e-22)
(0.12172 0.0176827 0)
(0.306869 0.0619617 -1.97431e-19)
(1.25019 0.239456 8.07701e-20)
(1.30829 0.260468 4.27251e-20)
(1.27764 0.267517 -8.33197e-21)
(1.23698 0.273109 1.27919e-20)
(1.19313 0.276998 -1.82396e-20)
(1.1464 0.278217 -1.10392e-21)
(1.09698 0.275686 0)
(1.04515 0.268233 -2.32607e-20)
(0.991114 0.254465 0)
(0.941891 0.235971 -1.79864e-20)
(0.903192 0.217395 -2.60388e-20)
(0.873103 0.200815 -1.68318e-20)
(0.849081 0.186547 -2.19377e-20)
(0.829467 0.17466 0)
(0.813065 0.165238 0)
(0.79761 0.158069 -5.98746e-20)
(0.757282 0.147768 1.20088e-20)
(0.557692 0.109261 -7.07335e-21)
(0.12195 0.0242203 -8.28331e-21)
(0.294979 0.0753771 1.43126e-19)
(1.25144 0.304742 0)
(1.31626 0.328279 -1.17761e-19)
(1.28391 0.331658 -3.08093e-20)
(1.24078 0.332781 -2.4316e-20)
(1.19413 0.332244 0)
(1.14431 0.329243 -4.83934e-21)
(1.09154 0.322782 4.14022e-21)
(1.03608 0.311686 9.39397e-21)
(0.97823 0.294677 3.20483e-20)
(0.92566 0.273749 0)
(0.884634 0.253731 -5.63439e-20)
(0.853097 0.236445 -3.64729e-20)
(0.828254 0.221952 -2.2062e-20)
(0.808312 0.210102 1.46307e-19)
(0.791965 0.200774 1.80201e-20)
(0.776983 0.19362 8.64164e-20)
(0.738732 0.182307 -4.20687e-19)
(0.546859 0.135277 2.52501e-19)
(0.120626 0.0301497 -3.05275e-19)
(0.286059 0.0877342 1.48884e-19)
(1.24584 0.367037 -2.75184e-20)
(1.31676 0.394129 2.03804e-20)
(1.28362 0.394116 5.59753e-20)
(1.23898 0.391152 3.51433e-20)
(1.19048 0.386577 1.55233e-21)
(1.13846 0.379649 4.77867e-21)
(1.08317 0.369422 1.40562e-21)
(1.02491 0.354766 -2.02481e-20)
(0.964091 0.334488 0)
(0.90895 0.310971 -2.3894e-20)
(0.866192 0.289233 -1.48587e-21)
(0.83367 0.270853 -4.09067e-20)
(0.808387 0.255676 0)
(0.788388 0.243353 -3.19248e-20)
(0.772239 0.233624 -7.78935e-20)
(0.757675 0.22604 2.16691e-19)
(0.720905 0.213443 -2.17648e-19)
(0.535315 0.158674 3.11238e-19)
(0.118443 0.0354072 -3.24611e-19)
(0.279392 0.099287 -4.96877e-22)
(1.23617 0.425587 3.30671e-20)
(1.31167 0.456676 9.65435e-20)
(1.27831 0.453873 -3.3846e-20)
(1.23286 0.447334 1.99117e-20)
(1.1832 0.439108 0)
(1.12972 0.428589 1.08735e-20)
(1.07265 0.414867 6.04967e-22)
(1.01233 0.396867 -8.43297e-21)
(0.949145 0.373411 0)
(0.891858 0.347238 -2.27034e-20)
(0.847666 0.323537 -3.29696e-20)
(0.814382 0.303717 4.47596e-20)
(0.788828 0.287469 -2.89721e-20)
(0.768865 0.274329 -1.41035e-19)
(0.752953 0.2639 8.71347e-20)
(0.738794 0.255644 2.78822e-20)
(0.703228 0.241696 0)
(0.523168 0.179738 -3.02976e-19)
(0.115697 0.0400354 -1.11494e-20)
(0.274336 0.11037 2.38663e-20)
(1.22421 0.480265 -3.76189e-20)
(1.30259 0.515421 -5.23622e-20)
(1.26931 0.510297 -1.03963e-19)
(1.22355 0.500745 9.52908e-20)
(1.17328 0.489343 -5.34736e-20)
(1.11884 0.475558 -2.34105e-20)
(1.06048 0.458629 2.26238e-21)
(0.99858 0.437563 1.00838e-20)
(0.933487 0.411131 -7.57287e-20)
(0.874357 0.382319 -2.84806e-20)
(0.828868 0.356475 0)
(0.794924 0.334942 4.9104e-20)
(0.769156 0.31732 6.12702e-20)
(0.749283 0.303054 7.58835e-20)
(0.733653 0.291696 -9.55849e-20)
(0.719898 0.282571 -2.89162e-20)
(0.685453 0.267147 3.44387e-20)
(0.510425 0.198543 0)
(0.112514 0.0440295 -2.44958e-20)
(0.270271 0.120995 -2.7289e-19)
(1.21114 0.531193 1.71605e-19)
(1.29084 0.570277 5.69229e-20)
(1.25768 0.563229 -7.85895e-20)
(1.21186 0.551075 5.62523e-20)
(1.16129 0.536886 -3.569e-21)
(1.10631 0.520217 2.39075e-20)
(1.0471 0.500401 4.50118e-22)
(0.984024 0.476576 -1.45468e-20)
(0.917383 0.447462 -2.44528e-23)
(0.856551 0.416115 -8.31893e-20)
(0.809765 0.388042 8.5191e-20)
(0.775114 0.364571 -5.55421e-20)
(0.749108 0.345282 6.98184e-20)
(0.72933 0.329643 0)
(0.714004 0.31713 -5.23634e-20)
(0.700695 0.306983 -1.34488e-21)
(0.667301 0.289964 -1.51917e-19)
(0.497023 0.215249 -2.25232e-20)
(0.10888 0.0473611 0)
(0.266861 0.131047 0)
(1.19755 0.578638 1.83445e-19)
(1.27737 0.621367 1.31554e-19)
(1.24433 0.612701 8.80505e-20)
(1.19857 0.598293 5.48217e-20)
(1.14792 0.581631 0)
(1.09267 0.562397 1.98888e-20)
(1.03297 0.540016 -1.373e-21)
(0.969036 0.513733 2.92629e-20)
(0.901089 0.482296 -8.63589e-21)
(0.838577 0.448671 -6.11549e-20)
(0.790375 0.418365 4.21051e-20)
(0.754837 0.392765 -2.18834e-21)
(0.728482 0.371538 7.3778e-20)
(0.70876 0.354236 4.89379e-20)
(0.693748 0.340325 -1.14694e-19)
(0.68095 0.32892 1.39761e-19)
(0.648588 0.31016 4.21294e-20)
(0.482828 0.229742 1.75016e-19)
(0.104671 0.0499582 -4.6833e-19)
(0.263966 0.140752 -6.84825e-20)
(1.18372 0.622804 1.05154e-19)
(1.26279 0.668956 -8.06714e-20)
(1.22984 0.658808 -1.00947e-19)
(1.18421 0.642414 0)
(1.13361 0.623559 4.46004e-20)
(1.0783 0.602032 -5.9564e-20)
(1.01839 0.577399 -7.33467e-21)
(0.953937 0.548987 0)
(0.884857 0.515613 -1.35631e-19)
(0.820657 0.480065 1.66396e-19)
(0.770755 0.447627 0)
(0.734021 0.419744 6.67878e-20)
(0.70711 0.396288 -2.35411e-21)
(0.687337 0.377013 -1.56353e-19)
(0.672607 0.361415 6.13397e-20)
(0.660333 0.348572 0)
(0.629077 0.327823 2.30093e-19)
(0.467587 0.242159 0)
(0.0999398 0.0517302 -2.25332e-19)
(0.261499 0.150075 7.55649e-20)
(1.17012 0.664158 1.19485e-19)
(1.24748 0.713216 -8.43616e-20)
(1.21462 0.701722 0)
(1.1692 0.683538 7.35334e-20)
(1.11875 0.662723 0)
(1.06353 0.639141 7.50809e-20)
(1.00363 0.61249 1.08371e-20)
(0.938978 0.582311 8.99844e-22)
(0.869017 0.547396 -6.61514e-20)
(0.803011 0.510417 1.56572e-20)
(0.751044 0.476075 0)
(0.712663 0.44579 -1.43059e-19)
(0.684832 0.419811 2.49923e-21)
(0.6648 0.398202 0)
(0.650284 0.380598 2.69316e-21)
(0.638569 0.365999 2.10717e-19)
(0.608359 0.343051 -2.04735e-19)
(0.451126 0.252234 6.05956e-20)
(0.0944805 0.0526606 0)
(0.259132 0.158908 0)
(1.15669 0.702871 1.32406e-19)
(1.23188 0.754354 9.77506e-20)
(1.19894 0.741647 -1.97543e-21)
(1.15381 0.721818 4.50877e-20)
(1.10361 0.699224 1.05007e-19)
(1.04864 0.673775 -2.51356e-20)
(0.988918 0.645314 7.47781e-21)
(0.92433 0.613639 1.04253e-20)
(0.853832 0.577708 -9.85928e-20)
(0.785932 0.539867 -3.067e-21)
(0.731419 0.503987 -5.67847e-20)
(0.690785 0.471302 2.37319e-19)
(0.661513 0.442468 -3.14741e-21)
(0.6409 0.41807 -1.27035e-19)
(0.626493 0.398039 -2.32659e-19)
(0.615297 0.381403 0)
(0.586093 0.355879 0)
(0.433108 0.259936 6.82182e-20)
(0.0881528 0.052651 -3.97339e-20)
(0.257239 0.167407 9.22209e-20)
(1.14346 0.739547 -2.86509e-19)
(1.21617 0.792589 -1.03976e-19)
(1.18311 0.778769 0)
(1.13826 0.757421 -1.22774e-21)
(1.08836 0.733176 1.23767e-19)
(1.03377 0.706007 -8.01916e-20)
(0.974442 0.675904 -5.11278e-20)
(0.910165 0.642958 3.09517e-21)
(0.839474 0.606545 -7.07526e-20)
(0.769761 0.56852 -1.37747e-19)
(0.712093 0.53167 1.51538e-19)
(0.668463 0.496724 0)
(0.637086 0.464791 -5.78299e-20)
(0.615505 0.43704 -1.41575e-19)
(0.600971 0.413839 -1.71699e-19)
(0.590093 0.394719 -2.09785e-19)
(0.561803 0.366226 6.33883e-20)
(0.412987 0.26499 -3.70168e-20)
(0.0807537 0.0514543 8.38044e-22)
(0.255381 0.175518 0)
(1.13048 0.773892 0)
(1.2005 0.828139 1.75724e-21)
(1.16733 0.813264 0)
(1.12272 0.790538 -1.66174e-19)
(1.07316 0.764731 -1.0752e-19)
(1.01902 0.735932 0)
(0.960307 0.704295 -1.00979e-20)
(0.89664 0.670281 -1.30633e-20)
(0.826098 0.633832 -1.58367e-19)
(0.754744 0.596513 0)
(0.693406 0.559443 -9.74692e-20)
(0.645901 0.522569 -3.80089e-21)
(0.611507 0.487328 -3.11532e-21)
(0.588126 0.455574 1.53824e-19)
(0.573108 0.428588 -1.55542e-22)
(0.562407 0.405997 -4.63844e-19)
(0.535435 0.374032 1.40873e-19)
(0.390512 0.266937 4.21228e-20)
(0.0721906 0.0488327 0)
(0.253604 0.183219 -3.3347e-19)
(1.11781 0.806168 -1.72306e-19)
(1.18491 0.86129 -2.54778e-19)
(1.15169 0.845338 3.59014e-19)
(1.10731 0.821318 -3.079e-19)
(1.05811 0.794035 0)
(1.0045 0.763669 -6.60829e-20)
(0.946529 0.730545 2.04696e-20)
(0.883851 0.695596 3.35595e-21)
(0.813865 0.65953 1.28779e-20)
(0.741 0.623937 1.67073e-19)
(0.675736 0.5876 -3.28765e-20)
(0.623304 0.549469 -1.5005e-19)
(0.584465 0.510939 -7.15772e-20)
(0.558013 0.473944 8.73903e-20)
(0.541973 0.442961 -4.64318e-24)
(0.532179 0.415754 1.30366e-19)
(0.506305 0.379357 -3.10313e-19)
(0.364233 0.265132 3.74308e-19)
(0.0622392 0.0445948 5.37722e-20)
(0.251829 0.190569 1.21419e-19)
(1.10556 0.83642 -9.29116e-20)
(1.16958 0.892177 4.8309e-21)
(1.13628 0.875195 1.99811e-19)
(1.09213 0.849941 7.07485e-20)
(1.04327 0.821231 2.12554e-19)
(0.990246 0.789337 -2.77797e-20)
(0.933142 0.754716 9.58392e-20)
(0.871765 0.718865 4.81495e-20)
(0.80291 0.683598 -7.29847e-20)
(0.728839 0.650672 0)
(0.659494 0.616481 -1.52014e-19)
(0.601046 0.577906 2.21686e-19)
(0.55571 0.535731 0)
(0.524822 0.493885 -1.89152e-19)
(0.507069 0.456809 1.19764e-19)
(0.497952 0.424674 -1.435e-19)
(0.472286 0.38224 -1.7504e-19)
(0.333119 0.25933 -3.10631e-19)
(0.0506848 0.0385025 -2.4282e-19)
(0.250314 0.197839 -1.32157e-19)
(1.09347 0.864823 9.93183e-20)
(1.1546 0.920961 2.32393e-19)
(1.12117 0.902996 2.72773e-19)
(1.07724 0.876567 -1.47834e-19)
(1.02871 0.846479 1.44168e-19)
(0.976263 0.813064 -8.74112e-20)
(0.920148 0.776879 1.14762e-19)
(0.860372 0.740079 3.9649e-20)
(0.793288 0.7059 5.39064e-20)
(0.718824 0.676563 3.40912e-19)
(0.645222 0.64625 0)
(0.579575 0.6077 0)
(0.525824 0.562366 -8.37675e-20)
(0.489672 0.516753 0)
(0.469596 0.471236 2.64541e-19)
(0.459123 0.430807 3.20245e-19)
(0.433436 0.379955 0)
(0.296343 0.247452 0)
(0.0374237 0.0302279 2.71522e-19)
(0.248819 0.204593 1.44356e-19)
(1.0817 0.891508 1.1632e-19)
(1.14001 0.947803 1.65961e-19)
(1.10645 0.928912 -2.39707e-19)
(1.0627 0.901358 -1.62835e-19)
(1.01445 0.869923 -1.88343e-19)
(0.962581 0.834991 1.29083e-19)
(0.907514 0.797121 2.19509e-21)
(0.849642 0.759267 -3.98636e-21)
(0.785018 0.726253 -9.81918e-21)
(0.711195 0.70161 1.69044e-19)
(0.63293 0.676678 0)
(0.559317 0.639521 2.3033e-19)
(0.496562 0.593578 1.78776e-19)
(0.453185 0.540997 4.68725e-19)
(0.426817 0.489061 1.44732e-19)
(0.412766 0.438644 -1.82288e-19)
(0.387723 0.372559 -1.08412e-19)
(0.254347 0.227708 0)
(0.0244828 0.0202971 3.02664e-19)
(0.247747 0.211461 -3.14094e-19)
(1.07031 0.916588 0)
(1.12581 0.972852 1.82458e-19)
(1.09216 0.95308 -1.94122e-19)
(1.04855 0.924461 1.80955e-19)
(1.00053 0.891714 2.70764e-19)
(0.949205 0.855248 -2.9415e-19)
(0.895217 0.815576 4.46931e-21)
(0.839486 0.776465 0)
(0.77818 0.744475 -1.80088e-20)
(0.706111 0.725508 -3.28423e-19)
(0.623211 0.707638 1.99905e-20)
(0.540804 0.673242 3.19791e-19)
(0.47067 0.626852 0)
(0.416466 0.573268 3.20327e-19)
(0.379154 0.508913 0)
(0.355536 0.442137 0)
(0.331158 0.353492 -1.2441e-19)
(0.213222 0.190932 0)
(0.0306086 0.0164989 8.30851e-20)
(0.246556 0.217885 -3.39907e-19)
(1.05925 0.940297 0)
(1.11198 0.996306 2.93577e-19)
(1.07828 0.975736 0)
(1.03475 0.946147 -9.66422e-20)
(0.986872 0.91216 0)
(0.936045 0.874198 -2.10599e-20)
(0.883103 0.83262 -2.02748e-20)
(0.829719 0.791975 -7.90052e-21)
(0.772623 0.760765 7.03904e-21)
(0.703424 0.748669 6.89586e-21)
(0.616003 0.740056 1.72983e-19)
(0.525025 0.709949 3.1245e-19)
(0.44562 0.666863 4.62144e-20)
(0.377149 0.607974 2.53429e-19)
(0.321561 0.543534 0)
(0.277343 0.456798 4.06336e-19)
(0.242606 0.317864 -2.47065e-19)
(0.119818 0.147027 2.88987e-19)
(-0.0537574 0.379412 -3.44676e-19)
(0.245641 0.224222 2.7514e-19)
(1.04838 0.962762 4.29398e-19)
(1.09838 1.01847 0)
(1.06467 0.997273 2.49612e-21)
(1.02108 0.966911 2.59855e-19)
(0.973155 0.931825 -5.11774e-19)
(0.922689 0.892452 -1.26724e-19)
(0.870677 0.848828 0)
(0.819848 0.806262 -7.91472e-20)
(0.768102 0.775537 3.89673e-21)
(0.703421 0.771796 0)
(0.61167 0.775189 0)
(0.510319 0.754182 2.78761e-19)
(0.416537 0.714068 -1.47975e-19)
(0.331375 0.660031 -2.54897e-19)
(0.258947 0.589726 0)
(0.173171 0.487854 2.07123e-19)
(0.0706225 0.553796 -2.49673e-19)
(0.0617093 1.7199 -1.35169e-19)
(0.096882 2.72538 -1.70054e-19)
(0.244948 0.229732 -1.98638e-19)
(1.03775 0.984048 -5.35785e-19)
(1.08504 1.03926 1.65701e-19)
(1.05139 1.01762 1.59546e-19)
(1.00764 0.986634 0)
(0.959469 0.950575 -3.62702e-19)
(0.909329 0.909918 -2.08148e-19)
(0.858066 0.864038 1.28886e-20)
(0.809961 0.818997 -1.26097e-20)
(0.764648 0.788154 -5.51947e-20)
(0.707159 0.793407 1.12524e-19)
(0.614225 0.811135 1.77574e-19)
(0.497603 0.804955 2.8039e-19)
(0.387181 0.767394 -3.45844e-19)
(0.283429 0.711806 -3.79886e-19)
(0.200144 0.661994 0)
(0.107849 0.899212 0)
(0.161769 2.41271 1.07143e-19)
(0.167394 3.13485 0)
(0.165877 3.34534 2.50008e-19)
(0.247152 0.23455 0)
(1.02714 1.00406 0)
(1.07195 1.0585 0)
(1.03821 1.03664 4.38111e-20)
(0.994212 1.00522 2.28346e-19)
(0.945674 0.968416 -2.71653e-19)
(0.895966 0.926575 -1.47593e-19)
(0.845211 0.878333 1.42999e-20)
(0.800005 0.830082 -1.47377e-19)
(0.7621 0.798077 -1.95037e-20)
(0.715325 0.81221 1.46596e-19)
(0.623817 0.852821 -2.25744e-20)
(0.490636 0.8635 3.17498e-20)
(0.358771 0.817948 5.0483e-20)
(0.248417 0.782461 2.70311e-22)
(0.169707 1.00005 2.06557e-21)
(0.212695 2.50979 -5.1427e-19)
(0.241712 3.23982 -1.94599e-19)
(0.221198 3.40037 9.06623e-20)
(0.199457 3.43007 -9.20343e-20)
(0.150831 0.183349 1.11392e-19)
(1.01046 1.02458 0)
(1.05968 1.07656 -3.18136e-19)
(1.02574 1.05497 -4.05601e-19)
(0.981465 1.02339 4.66496e-19)
(0.932431 0.985911 2.86565e-19)
(0.882135 0.942668 1.7182e-19)
(0.832067 0.892996 -2.23102e-19)
(0.78867 0.841469 1.44237e-19)
(0.759211 0.805018 0)
(0.729272 0.825505 2.208e-20)
(0.640299 0.891049 -1.26189e-19)
(0.490184 0.924886 0)
(0.327497 0.886225 4.65106e-20)
(0.23827 0.954112 1.06759e-19)
(0.21255 2.11133 -1.26952e-19)
(0.320804 3.26047 1.39368e-19)
(0.299169 3.41783 6.52684e-20)
(0.25296 3.45304 7.37195e-20)
(0.221616 3.46962 8.51509e-20)
(0.297942 0.280714 -1.99713e-19)
(0.988688 1.02924 0)
(1.04215 1.10065 3.1853e-19)
(1.00663 1.08119 4.09315e-19)
(0.96073 1.04917 -4.7085e-19)
(0.910071 1.01023 -2.95334e-19)
(0.857946 0.963672 -2.52856e-19)
(0.807614 0.908053 -1.74464e-20)
(0.769519 0.849047 -1.92592e-19)
(0.759233 0.809352 -1.88967e-19)
(0.757252 0.843467 -5.38741e-21)
(0.678089 0.962481 9.7708e-20)
(0.486379 1.05876 3.01839e-20)
(0.293647 1.1345 -4.53042e-20)
(0.328813 1.99848 -9.52206e-20)
(0.419672 3.22635 6.19289e-20)
(0.415195 3.4529 -4.92195e-20)
(0.367827 3.49598 -2.59836e-20)
(0.315569 3.53592 2.0016e-20)
(0.239426 3.52863 8.00617e-22)
(0.286049 0.277046 0)
(0.985178 1.04946 8.41827e-20)
(1.03126 1.12028 -6.27983e-20)
(0.994332 1.10032 -4.51915e-20)
(0.947289 1.0681 -3.04214e-19)
(0.895607 1.0283 2.86294e-19)
(0.842222 0.979739 1.67039e-19)
(0.791555 0.920854 -1.80105e-20)
(0.756233 0.855601 2.34158e-19)
(0.75893 0.808669 -2.69116e-20)
(0.797123 0.849126 2.23019e-19)
(0.740006 1.02367 1.67844e-20)
(0.510448 1.17188 -2.82791e-20)
(0.329697 1.4086 -4.03722e-20)
(0.46776 2.78297 1.8171e-20)
(0.534823 3.41269 -1.66734e-21)
(0.471211 3.52754 -6.84338e-20)
(0.427423 3.5761 -8.48791e-20)
(0.346687 3.62338 1.15884e-19)
(0.263841 3.60691 5.03748e-20)
(0.267498 0.273319 2.07262e-19)
(0.97925 1.07326 5.59677e-19)
(1.0197 1.14175 -1.76001e-19)
(0.980987 1.12101 -1.69548e-19)
(0.932822 1.08835 0)
(0.879835 1.04746 4.06583e-19)
(0.824879 0.996609 2.49015e-19)
(0.773112 0.93332 -1.85261e-20)
(0.739459 0.859421 2.73212e-20)
(0.753375 0.796898 3.57828e-19)
(0.828795 0.841821 2.11114e-19)
(0.823806 1.06939 -7.00179e-20)
(0.584027 1.29871 -2.34685e-19)
(0.417068 1.78778 2.63038e-19)
(0.612177 3.19755 1.19383e-19)
(0.63336 3.50316 0)
(0.554414 3.58572 0)
(0.485243 3.6724 1.12025e-19)
(0.397179 3.74216 0)
(0.282551 3.71451 1.86193e-19)
(0.254493 0.273565 -2.99582e-19)
(0.971113 1.09889 -4.60989e-19)
(1.00654 1.16484 0)
(0.966171 1.14298 1.8534e-21)
(0.916766 1.10967 -2.87622e-19)
(0.862265 1.06757 5.93029e-19)
(0.80544 1.0143 1.63206e-19)
(0.751825 0.945845 -1.95293e-20)
(0.718791 0.860555 2.40286e-19)
(0.746916 0.776588 -2.37916e-20)
(0.885222 0.810868 0)
(0.963874 1.09423 0)
(0.699752 1.45055 -1.94584e-19)
(0.564221 2.20512 7.73509e-20)
(0.756799 3.37333 1.89819e-20)