/*--------------------------------*- C++ -*----------------------------------*\
  =========                 |
  \\      /  F ield         | OpenFOAM: The Open Source CFD Toolbox
   \\    /   O peration     | Website:  https://openfoam.org
    \\  /    A nd           | Version:  7
     \\/     M anipulation  |
\*---------------------------------------------------------------------------*/
FoamFile
{
    version     2.0;
    format      ascii;
    class       volScalarField;
    location    "3.37";
    object      T;
}
// * * * * * * * * * * * * * * * * * * * * * * * * * * * * * * * * * * * * * //

dimensions      [0 0 0 1 0 0 0];

internalField   nonuniform List<scalar> 
1000
(
1.01548e-182
1.01922e-182
1.03282e-182
1.07096e-182
1.1695e-182
1.41645e-182
2.02742e-182
3.53068e-182
7.21986e-182
1.62616e-181
3.84044e-181
9.26004e-181
2.25188e-180
5.49416e-180
1.34196e-179
3.27846e-179
8.00824e-179
1.95558e-178
4.77372e-178
1.16486e-177
2.8413e-177
6.92769e-177
1.68844e-176
4.11344e-176
1.00173e-175
2.43847e-175
5.93346e-175
1.44318e-174
3.50878e-174
8.52734e-174
2.07153e-173
5.03025e-173
1.22098e-172
2.96242e-172
7.18463e-172
1.74173e-171
4.22061e-171
1.02232e-170
2.47524e-170
5.99051e-170
1.44919e-169
3.50433e-169
8.47031e-169
2.04648e-168
4.94233e-168
1.19308e-167
2.87885e-167
6.94356e-167
1.67401e-166
4.03409e-166
9.71729e-166
2.33967e-165
5.63087e-165
1.35458e-164
3.25721e-164
7.82877e-164
1.88083e-163
4.51664e-163
1.08414e-162
2.60115e-162
6.23808e-162
1.49534e-161
3.58292e-161
8.581e-161
2.0542e-160
4.91531e-160
1.17561e-159
2.81045e-159
6.71571e-159
1.60402e-158
3.82937e-158
9.13788e-158
2.17954e-157
5.19615e-157
1.23822e-156
2.94925e-156
7.02141e-156
1.67083e-155
3.9741e-155
9.448e-155
2.2451e-154
5.33246e-154
1.26594e-153
3.00395e-153
7.12467e-153
1.689e-152
4.00208e-152
9.47837e-152
2.24374e-151
5.30885e-151
1.25551e-150
2.96774e-150
7.01166e-150
1.65578e-149
3.90817e-149
9.21999e-149
2.17407e-148
5.1239e-148
1.20702e-147
2.8419e-147
6.6879e-147
1.57309e-146
3.69826e-146
8.69008e-146
2.04094e-145
4.79092e-145
1.12405e-144
2.63592e-144
6.17814e-144
1.44731e-143
3.38876e-143
7.93043e-143
1.85494e-142
4.33647e-142
1.01325e-141
2.36632e-141
5.52335e-141
1.28856e-140
3.00453e-140
7.00199e-140
1.63093e-139
3.79683e-139
8.83436e-139
2.05446e-138
4.77516e-138
1.10929e-137
2.57554e-137
5.97666e-137
1.38616e-136
3.21316e-136
7.44414e-136
1.72369e-135
3.98903e-135
9.22649e-135
2.13288e-134
4.92784e-134
1.13791e-133
2.62612e-133
6.05731e-133
1.39638e-132
3.21723e-132
7.40829e-132
1.70494e-131
3.9215e-131
9.01469e-131
2.0711e-130
4.75558e-130
1.09133e-129
2.50301e-129
5.73741e-129
1.31437e-128
3.00933e-128
6.88602e-128
1.57476e-127
3.59919e-127
8.22129e-127
1.87681e-126
4.28197e-126
9.76361e-126
2.22494e-125
5.0672e-125
1.15334e-124
2.62353e-124
5.96422e-124
1.35506e-123
3.07682e-123
6.98201e-123
1.58341e-122
3.58875e-122
8.12878e-122
1.8401e-121
4.16282e-121
9.41165e-121
2.12654e-120
4.80189e-120
1.08363e-119
2.44385e-119
5.50801e-119
1.24063e-118
2.79264e-118
6.2822e-118
1.41232e-117
3.17303e-117
7.12425e-117
1.59854e-116
3.58451e-116
8.03254e-116
1.79885e-115
4.02582e-115
9.00387e-115
2.01243e-114
4.49495e-114
1.00333e-113
2.23807e-113
4.98904e-113
1.1114e-112
2.47419e-112
5.50433e-112
1.22372e-111
2.71875e-111
6.03618e-111
1.33924e-110
2.96934e-110
6.57907e-110
1.4567e-109
3.22313e-109
7.12664e-109
1.57468e-108
3.47693e-108
7.6718e-108
1.69159e-107
3.72724e-107
8.2068e-107
1.80573e-106
3.97032e-106
8.72344e-106
1.91532e-105
4.20225e-105
9.21322e-105
2.01849e-104
4.41906e-104
9.66754e-104
2.11342e-103
4.61678e-103
1.0078e-102
2.19831e-102
4.79163e-102
1.04365e-101
2.27146e-101
4.94006e-101
1.07358e-100
2.33135e-100
5.05889e-100
1.09692e-99
2.37665e-99
5.14546e-99
1.11315e-98
2.40628e-98
5.19766e-98
1.12185e-97
2.41949e-97
5.21405e-97
1.12277e-96
2.41581e-96
5.19393e-96
1.1158e-95
2.39516e-95
5.13733e-95
1.10102e-94
2.35779e-94
5.04508e-94
1.07865e-93
2.30433e-93
4.91876e-93
1.04909e-92
2.23572e-92
4.76065e-92
1.01288e-91
2.15324e-91
4.5737e-91
9.70695e-91
2.05843e-90
4.3614e-90
9.23319e-90
1.95304e-89
4.12768e-89
8.71629e-89
1.83903e-88
3.8768e-88
8.16558e-88
1.71841e-87
3.61321e-87
7.59072e-87
1.59329e-86
3.34141e-86
7.00137e-86
1.46574e-85
3.06581e-85
6.40696e-85
1.33774e-84
2.79065e-84
5.81637e-84
1.21118e-83
2.51984e-83
5.23776e-83
1.08774e-82
2.25688e-82
4.67838e-82
9.68914e-82
2.00482e-81
4.14442e-81
8.55954e-81
1.76617e-80
3.64092e-80
7.49864e-80
1.54293e-79
3.17175e-79
6.51389e-79
1.3365e-78
2.73959e-78
5.61029e-78
1.14781e-77
2.34602e-77
4.79045e-77
9.77236e-77
1.99158e-76
4.05484e-76
8.24749e-76
1.67588e-75
3.40199e-75
6.89912e-75
1.39772e-74
2.82889e-74
5.7197e-74
1.1553e-73
2.33118e-73
4.69914e-73
9.46276e-73
1.90359e-72
3.82547e-72
7.67978e-72
1.54015e-71
3.08553e-71
6.17508e-71
1.23453e-70
2.46551e-70
4.91876e-70
9.80269e-70
1.95153e-69
3.88099e-69
7.70987e-69
1.52998e-68
3.0329e-68
6.00567e-68
1.18794e-67
2.34723e-67
4.6328e-67
9.13389e-67
1.79883e-66
3.53872e-66
6.95379e-66
1.36494e-65
2.67623e-65
5.24138e-65
1.02537e-64
2.00367e-64
3.91092e-64
7.62499e-64
1.48493e-63
2.88851e-63
5.61235e-63
1.08922e-62
2.11146e-62
4.08833e-62
7.90686e-62
1.52741e-61
2.9471e-61
5.67969e-61
1.0933e-60
2.10204e-60
4.03669e-60
7.74268e-60
1.48332e-59
2.83829e-59
5.42444e-59
1.03544e-58
1.9741e-58
3.75908e-58
7.14927e-58
1.35803e-57
2.57643e-57
4.88193e-57
9.239e-57
1.74629e-56
3.29658e-56
6.21536e-56
1.17036e-55
2.20103e-55
4.13409e-55
7.75497e-55
1.45286e-54
2.7184e-54
5.07974e-54
9.48001e-54
1.7669e-53
3.28891e-53
6.11397e-53
1.13508e-52
2.10454e-52
3.89686e-52
7.20607e-52
1.33077e-51
2.45432e-51
4.5204e-51
8.31456e-51
1.52727e-50
2.8016e-50
5.13225e-50
9.38895e-50
1.71527e-49
3.12936e-49
5.70137e-49
1.0373e-48
1.88463e-48
3.41938e-48
6.19529e-48
1.12091e-47
2.02519e-47
3.65387e-47
6.58303e-47
1.18436e-46
2.12776e-46
3.81719e-46
6.83821e-46
1.22326e-45
2.18508e-45
3.89752e-45
6.94193e-45
1.23464e-44
2.19264e-44
3.88828e-44
6.88511e-44
1.21737e-43
2.14929e-43
3.78898e-43
6.66966e-43
1.1723e-42
2.05741e-42
3.60539e-42
6.30856e-42
1.10218e-41
1.92272e-41
3.34904e-41
5.82456e-41
1.01144e-40
1.75369e-40
3.03598e-40
5.24775e-40
9.05684e-40
1.56065e-39
2.6851e-39
4.6125e-39
7.91103e-39
1.35472e-38
2.31622e-38
3.95391e-38
6.73886e-38
1.14672e-37
1.94821e-37
3.30463e-37
5.59647e-37
9.46257e-37
1.59737e-36
2.69217e-36
4.52997e-36
7.61002e-36
1.27635e-35
2.1372e-35
3.57283e-35
5.96305e-35
9.93598e-35
1.65287e-34
2.74505e-34
4.55138e-34
7.53382e-34
1.24499e-33
2.05397e-33
3.38296e-33
5.56252e-33
9.13101e-33
1.49636e-32
2.44805e-32
3.99827e-32
6.51911e-32
1.06113e-31
1.72429e-31
2.79712e-31
4.52972e-31
7.323e-31
1.18185e-30
1.9041e-30
3.06245e-30
4.917e-30
7.88099e-30
1.26098e-29
2.01412e-29
3.21149e-29
5.11178e-29
8.12232e-29
1.28834e-28
2.03995e-28
3.22439e-28
5.08761e-28
8.01338e-28
1.25995e-27
1.97753e-27
3.09833e-27
4.84576e-27
7.56532e-27
1.17902e-26
1.83419e-26
2.84835e-26
4.41539e-26
6.83233e-26
1.05534e-25
1.62719e-25
2.50443e-25
3.84767e-25
5.90075e-25
9.03309e-25
1.38033e-24
2.10546e-24
3.20574e-24
4.8722e-24
7.39157e-24
1.11934e-23
1.692e-23
2.55302e-23
3.84519e-23
5.78088e-23
8.67522e-23
1.2995e-22
1.94305e-22
2.90001e-22
4.3204e-22
6.42475e-22
9.53666e-22
1.413e-21
2.08977e-21
3.08502e-21
4.54596e-21
6.68649e-21
9.81694e-21
1.43866e-20
2.10449e-20
3.07284e-20
4.47855e-20
6.51538e-20
9.46119e-20
1.37137e-19
1.98413e-19
2.86542e-19
4.13058e-19
5.94343e-19
8.53625e-19
1.22378e-18
1.75122e-18
2.5014e-18
3.5664e-18
5.07554e-18
7.21006e-18
1.02235e-17
1.447e-17
2.04428e-17
2.88283e-17
4.05792e-17
5.70157e-17
7.99637e-17
1.11943e-16
1.56427e-16
2.18189e-16
3.03783e-16
4.22186e-16
5.85671e-16
8.10987e-16
1.12095e-15
1.54657e-15
2.12992e-15
2.92801e-15
4.01785e-15
5.5034e-15
7.52459e-15
1.02695e-14
1.39906e-14
1.90256e-14
2.58261e-14
3.49945e-14
4.73326e-14
6.39062e-14
8.61286e-14
1.15871e-13
1.55606e-13
2.08595e-13
2.79131e-13
3.72854e-13
4.97163e-13
6.61741e-13
8.79241e-13
1.16617e-12
1.54399e-12
2.04063e-12
2.69228e-12
3.54578e-12
4.66168e-12
6.11804e-12
8.01535e-12
1.04828e-11
1.36858e-11
1.78366e-11
2.3206e-11
3.01394e-11
3.90767e-11
5.0577e-11
6.53491e-11
8.42907e-11
1.08536e-10
1.39517e-10
1.79035e-10
2.29354e-10
2.93318e-10
3.74483e-10
4.77299e-10
6.07318e-10
7.71451e-10
9.78297e-10
1.23852e-09
1.56535e-09
1.97511e-09
2.48799e-09
3.12884e-09
3.92825e-09
4.92375e-09
6.16135e-09
7.69736e-09
9.60051e-09
1.19546e-08
1.48617e-08
1.84456e-08
2.28566e-08
2.82766e-08
3.49254e-08
4.30681e-08
5.30239e-08
6.51766e-08
7.99867e-08
9.80058e-08
1.19893e-07
1.46437e-07
1.78575e-07
2.17423e-07
2.64308e-07
3.20799e-07
3.88757e-07
4.70378e-07
5.68253e-07
6.85433e-07
8.25502e-07
9.92667e-07
1.19186e-06
1.42883e-06
1.71031e-06
2.04413e-06
2.43943e-06
2.90677e-06
3.45844e-06
4.10865e-06
4.87382e-06
5.77289e-06
6.82767e-06
8.06324e-06
9.50838e-06
1.11961e-05
1.31641e-05
1.54554e-05
1.81192e-05
2.12114e-05
2.47954e-05
2.89435e-05
3.3737e-05
3.92684e-05
4.56416e-05
5.29742e-05
6.13979e-05
7.10611e-05
8.213e-05
9.47905e-05
0.000109251
0.000125742
0.000144523
0.000165882
0.000190136
0.000217638
0.000248781
0.000283996
0.000323757
0.000368591
0.000419071
0.000475831
0.000539562
0.000611021
0.000691034
0.0007805
0.000880399
0.000991795
0.00111584
0.00125378
0.00140697
0.00157686
0.00176502
0.00197313
0.00220299
0.00245655
0.00273587
0.00304316
0.00338078
0.00375122
0.00415715
0.00460138
0.0050869
0.00561684
0.00619453
0.00682344
0.00750725
0.00824979
0.00905507
0.00992727
0.0108708
0.0118901
0.01299
0.0141752
0.0154509
0.0168222
0.0182945
0.0198732
0.0215639
0.0233723
0.0253044
0.0273659
0.0295629
0.0319014
0.0343876
0.0370275
0.0398274
0.0427934
0.0459315
0.0492478
0.0527483
0.0564388
0.0603251
0.0644127
0.0687071
0.0732134
0.0779366
0.0828815
0.0880525
0.0934537
0.0990888
0.104961
0.111074
0.11743
0.124032
0.13088
0.137977
0.145323
0.152918
0.160763
0.168855
0.177195
0.18578
0.194607
0.203674
0.212977
0.222512
0.232273
0.242256
0.252455
0.262862
0.273472
0.284276
0.295266
0.306434
0.317771
0.329266
0.34091
0.352693
0.364603
0.376629
0.388761
0.400985
0.41329
0.425664
0.438093
0.450566
0.463069
0.475589
0.488114
0.50063
0.513124
0.525583
0.537995
0.550345
0.562622
0.574812
0.586904
0.598885
0.610743
0.622466
0.634043
0.645462
0.656713
0.667785
0.678667
0.68935
0.699824
0.71008
0.720109
0.729902
0.73945
0.748748
0.757785
0.766557
0.775055
0.783273
0.791205
0.798846
0.806189
0.813229
0.819962
0.826383
0.832487
0.838271
0.843729
0.84886
0.853658
0.858121
0.862246
0.86603
0.869469
0.872563
0.875308
0.877702
0.879743
0.881429
0.882759
0.883731
0.884344
0.884596
0.884488
0.884017
0.883183
0.881987
0.880427
0.878505
0.87622
0.873572
0.870564
0.867195
0.863468
0.859384
0.854946
0.850155
0.845015
0.839529
0.833701
0.827533
0.821032
0.814202
0.807047
0.799574
0.791789
0.783698
0.775308
0.766628
0.757665
0.748426
0.738923
0.729162
0.719155
0.70891
0.69844
0.687754
0.676864
0.665782
0.654519
0.643088
0.631501
0.619771
0.607911
0.595933
0.583852
0.571681
0.559433
0.547121
0.534761
0.522364
0.509944
0.497516
0.485092
0.472685
0.460309
0.447977
0.4357
0.423491
0.411363
0.399326
0.387393
0.375574
0.363879
0.352319
0.340903
0.329641
0.318541
0.307611
0.296859
0.286293
0.275918
0.265741
0.255768
0.246003
0.236452
0.227118
0.218004
0.209114
0.20045
0.192014
0.183808
0.175832
0.168087
0.160572
0.153289
0.146235
0.139409
0.132811
0.126438
0.120287
0.114357
0.108644
0.103145
0.097857
0.0927756
0.0878972
0.0832178
0.0787329
0.0744382
0.0703291
0.0664009
0.0626487
0.0590677
0.0556529
0.0523993
0.0493018
0.0463554
0.0435551
0.0408957
0.0383722
0.0359797
0.0337132
0.0315677
0.0295385
0.0276208
0.0258099
0.0241012
0.0224902
0.0209726
0.0195441
0.0182005
0.0169377
0.0157518
0.014639
0.0135956
0.0126181
0.0117029
0.0108468
0.0100465
0.00929901
0.00860137
0.00795073
0.00734439
0.00677977
0.00625437
0.00576585
0.00531196
0.00489055
0.00449959
0.00413714
0.00380139
0.00349058
0.00320308
0.00293733
0.00269186
0.0024653
0.00225633
0.00206373
0.00188635
0.00172309
0.00157295
0.00143496
0.00130823
0.00119193
0.00108527
0.000987527
0.000898014
0.000816102
0.00074121
0.00067282
0.000610504
0.000554014
0.000503522
0.000460259
0.000428257
)
;

boundaryField
{
    sides
    {
        type            zeroGradient;
    }
    empty
    {
        type            empty;
    }
}


// ************************************************************************* //
