/*--------------------------------*- C++ -*----------------------------------*\
  =========                 |
  \\      /  F ield         | OpenFOAM: The Open Source CFD Toolbox
   \\    /   O peration     | Website:  https://openfoam.org
    \\  /    A nd           | Version:  7
     \\/     M anipulation  |
\*---------------------------------------------------------------------------*/
FoamFile
{
    version     2.0;
    format      ascii;
    class       volScalarField;
    location    "19";
    object      p;
}
// * * * * * * * * * * * * * * * * * * * * * * * * * * * * * * * * * * * * * //

dimensions      [0 2 -2 0 0 0 0];

internalField   nonuniform List<scalar> 
16000
(
8.2688538e-06
-0.00013213878
-0.00044363049
-0.00084595852
-0.0012641298
-0.0016527561
-0.0019809677
-0.0022299262
-0.0023889955
-0.0024524718
-0.0024174157
-0.0022823708
-0.0020467674
-0.0017108496
-0.0012759755
-0.00074515417
-0.00012369671
0.00058013016
0.0013545493
0.0021839072
0.0030485784
0.0039252069
0.0047873141
0.0056063114
0.0063528733
0.0069986179
0.00751799
0.0078902022
0.0081010664
0.0081445443
0.0080238631
0.0077521067
0.007352264
0.0068567955
0.006306591
0.0057491637
0.0052394858
0.00483375
0.0045936798
0.004554754
0.0001527405
7.8194282e-06
-0.00024224958
-0.00055110215
-0.00087326331
-0.0011744263
-0.0014303479
-0.0016248494
-0.0017475712
-0.0017920719
-0.0017544118
-0.001632228
-0.001424267
-0.0011302977
-0.00075131194
-0.00028991569
0.0002491821
0.00085867174
0.0015282198
0.0022441917
0.0029895857
0.0037443745
0.0044858549
0.0051896777
0.0058309955
0.0063859098
0.0068330898
0.0071554293
0.0073415968
0.007387324
0.0072962893
0.0070804999
0.0067601437
0.0063629599
0.0059231805
0.0054798791
0.0050742568
0.0047496429
0.0045510441
0.0045153274
0.00047134803
0.00025347739
-2.3375611e-06
-0.00028135775
-0.00056156973
-0.00081847209
-0.0010342775
-0.0011969289
-0.0012982204
-0.0013326329
-0.0012964484
-0.001187135
-0.001003053
-0.00074344794
-0.00040866685
-5.2731624e-07
0.00047723301
0.0010184984
0.0016143782
0.0022529427
0.0029191884
0.0035951603
0.0042604962
0.0048932007
0.0054707398
0.0059713883
0.0063757387
0.0066682497
0.0068386904
0.0068833277
0.0068057112
0.0066169421
0.006335371
0.0059857659
0.0055980678
0.0052057462
0.0048435086
0.0045456642
0.0043484116
0.0042810001
0.00089292067
0.00056168511
0.00026101883
-2.473782e-05
-0.00029530857
-0.0005344235
-0.00073051877
-0.00087638056
-0.00096693734
-0.00099849449
-0.00096823965
-0.00087388711
-0.00071356578
-0.00048593769
-0.00019049472
0.0001720206
0.0005991282
0.0010861179
0.0016256145
0.0022072716
0.0028176618
0.0034403379
0.0040563367
0.0046448678
0.0051843694
0.0056538299
0.0060342867
0.0063103794
0.006471799
0.0065144727
0.0064413323
0.0062625434
0.0059951191
0.0056619228
0.0052901792
0.004909711
0.0045512205
0.0042447739
0.0040169695
0.0038814237
0.0013436678
0.00088403583
0.00052091434
0.0002106312
-6.7044511e-05
-0.00030306873
-0.00049176571
-0.00063087357
-0.00071873521
-0.00075378535
-0.0007343621
-0.00065856504
-0.00052431213
-0.00032959403
-7.2878043e-05
0.00024638332
0.00062718684
0.0010664093
0.001558293
0.0020940514
0.0026616613
0.0032458954
0.003828679
0.0043897676
0.0049077739
0.0053614968
0.0057314655
0.0060015643
0.0061605644
0.0062033763
0.0061318546
0.0059550309
0.0056887013
0.0053543426
0.0049774122
0.004585378
0.0042064317
0.0038678042
0.0035851717
0.0033616083
0.0017704643
0.0011773844
0.00074276186
0.0003967491
0.00010022236
-0.00014403259
-0.00033570669
-0.00047725232
-0.00057035951
-0.00061560364
-0.00061249554
-0.00055951057
-0.00045429413
-0.00029404876
-7.6055744e-05
0.00020170835
0.00053990139
0.00093713998
0.0013893748
0.001889382
0.0024264408
0.0029862784
0.003551321
0.0041013351
0.0046144351
0.005068443
0.0054425118
0.0057188733
0.0058845219
0.0059326172
0.0058634007
0.0056844806
0.0054104286
0.0050616716
0.004662671
0.0042397823
0.003820333
0.0034307756
0.0030782014
0.0027509335
0.0021281104
0.0014031934
0.00089365251
0.00050546083
0.00018222816
-7.8713801e-05
-0.0002818792
-0.0004340482
-0.00054000306
-0.00060228806
-0.00062145387
-0.00059622712
-0.00052384518
-0.00040056731
-0.00022231411
1.460007e-05
0.00031267812
0.00067243966
0.001091665
0.0015647498
0.0020822472
0.0026306956
0.0031927541
0.0037477912
0.0042728687
0.0047441394
0.0051385699
0.0054358457
0.0056202638
0.005682371
0.0056200985
0.0054391964
0.0051528897
0.0047807714
0.0043469111
0.0038776294
0.0034009685
0.0029445014
0.0025082544
0.002066712
0.0023780459
0.001526713
0.0009426912
0.00050955852
0.00015501326
-0.00012850267
-0.00034985546
-0.0005197299
-0.00064565745
-0.00073187388
-0.00077973685
-0.00078801836
-0.00075335412
-0.00067086727
-0.00053491902
-0.00033995526
-8.1417849e-05
0.00024332169
0.00063406114
0.0010869669
0.0015939567
0.0021423899
0.0027150471
0.0032906462
0.0038447758
0.0043513229
0.0047843024
0.0051199463
0.0053388514
0.0054279296
0.0053818771
0.0052038993
0.0049055503
0.0045056727
0.004028434
0.0035010405
0.0029536603
0.0024168068
0.0018854205
0.0013229046
0.0024864676
0.0015162548
0.00086058065
0.0003821647
-6.0962894e-06
-0.00031627723
-0.00056121371
-0.00075509095
-0.00090782574
-0.001025027
-0.0011085799
-0.0011570534
-0.0011662534
-0.0011299461
-0.0010407088
-0.0008908816
-0.0006735966
-0.00038384546
-1.9532857e-05
0.00041755055
0.00092092597
0.0014789567
0.0020746123
0.0026858826
0.0032866085
0.0038479079
0.0043401019
0.0047350093
0.0050084001
0.0051423362
0.0051270874
0.004962307
0.0046572346
0.0042298142
0.0037046753
0.0031107379
0.0024815876
0.0018523874
0.001214507
0.00052104544
0.002422907
0.0013427418
0.0006197598
9.723741e-05
-0.00032575253
-0.00066555421
-0.00093866628
-0.001162411
-0.001348745
-0.0015043348
-0.0016313089
-0.0017277762
-0.0017884735
-0.001805576
-0.0017696312
-0.0016706027
-0.0014990045
-0.0012470977
-0.0009100988
-0.00048734155
1.6707255e-05
0.0005918284
0.001221428
0.0018829021
0.0025482499
0.0031854387
0.003760392
0.0042394893
0.0045923783
0.0047948036
0.0048311011
0.004695991
0.0043953499
0.0039457127
0.0033722982
0.0027064635
0.0019864611
0.0012537572
0.00049730336
-0.00033979536
0.0021595914
0.00097954207
0.00019463282
-0.00036987173
-0.00082776962
-0.0011994971
-0.0015049655
-0.0017643157
-0.0019912357
-0.0021931665
-0.0023722197
-0.0025258061
-0.0026473667
-0.0027272539
-0.0027537303
-0.0027140825
-0.002595845
-0.0023881127
-0.0020829032
-0.0016765188
-0.0011708112
-0.0005738983
9.8517381e-05
0.00082363455
0.0015717494
0.0023074773
0.0029917303
0.0035843904
0.0040475108
0.0043487405
0.0044645667
0.0043829323
0.0041048125
0.0036443452
0.0030270895
0.0022873592
0.0014692973
0.00062236261
-0.00026609543
-0.0012632163
0.0016713276
0.00040254051
-0.00043815081
-0.0010419354
-0.0015344677
-0.0019401257
-0.0022820184
-0.0025828267
-0.0028577099
-0.0031146472
-0.0033555211
-0.0035768472
-0.0037705776
-0.0039250323
-0.004025939
-0.0040575916
-0.0040041386
-0.0038509945
-0.0035863462
-0.0032026886
-0.0026983142
-0.0020788379
-0.0013577824
-0.00055755759
0.00029083924
0.0011487267
0.0019715662
0.0027117274
0.0033220673
0.0037600362
0.0039918629
0.0039962687
0.0037671532
0.0033146594
0.0026639182
0.0018523867
0.00093124585
-4.0261311e-05
-0.0010758204
-0.0022536089
0.00093571843
-0.0004095969
-0.0012993216
-0.0019393388
-0.0024660234
-0.0029075392
-0.0032899969
-0.0036383751
-0.0039690938
-0.0042904957
-0.0046040834
-0.0049053416
-0.0051845934
-0.0054279594
-0.0056184092
-0.0057369328
-0.0057638627
-0.0056803568
-0.0054700319
-0.0051206919
-0.0046260962
-0.0039878857
-0.0032165555
-0.0023329821
-0.0013686093
-0.00036499278
0.00062773139
0.0015535683
0.0023545462
0.0029755399
0.0033695786
0.0035029798
0.003359558
0.0029430438
0.002276667
0.0014007262
0.00037442302
-0.00073129577
-0.0019307207
-0.0033142857
-6.6412615e-05
-0.0014750261
-0.0024065415
-0.0030795329
-0.003639802
-0.004119119
-0.0045464081
-0.0049487355
-0.005343627
-0.0057396815
-0.0061379469
-0.0065328163
-0.0069129169
-0.0072620669
-0.0075603045
-0.0077850367
-0.0079123555
-0.0079185565
-0.0077818718
-0.00748439
-0.0070141226
-0.0063671913
-0.0055496538
-0.0045793231
-0.0034867685
-0.0023154979
-0.0011209389
3.2027158e-05
0.001073096
0.0019320348
0.0025452387
0.0028626196
0.0028538496
0.0025127273
0.0018581255
0.00093217115
-0.00019723115
-0.0014454004
-0.002826842
-0.0044457502
-0.0013504834
-0.0028082626
-0.0037739278
-0.0044764849
-0.0050697008
-0.0055887375
-0.0060651502
-0.0065279174
-0.0069955745
-0.0074769461
-0.007972635
-0.0084759724
-0.008973911
-0.0094479476
-0.009875093
-0.010228955
-0.010481003
-0.010602081
-0.010564198
-0.010342611
-0.0099181685
-0.0092798763
-0.0084274175
-0.0073735919
-0.0061462183
-0.0047891979
-0.0033622985
-0.0019392464
-0.00060381677
0.00055617077
0.0014566832
0.0020264059
0.0022156004
0.0020031942
0.0013998838
0.00044755711
-0.00077702339
-0.0021733758
-0.0037558011
-0.0056439008
-0.0029275883
-0.004419723
-0.0054116054
-0.0061401747
-0.006765542
-0.0073260119
-0.0078555971
-0.0083850551
-0.0089339027
-0.0095112436
-0.01011734
-0.010744591
-0.011378398
-0.01199802
-0.012577443
-0.013086355
-0.013491308
-0.013757173
-0.013848937
-0.013733902
-0.013384275
-0.012780132
-0.011912602
-0.010787072
-0.0094261354
-0.0078717818
-0.0061863256
-0.0044514588
-0.0027648705
-0.0012340647
3.2606452e-05
0.00093709334
0.0014036943
0.0013898141
0.00089233224
-5.0709317e-05
-0.0013544377
-0.0029006447
-0.0047029547
-0.0068980266
-0.0048039854
-0.0063153384
-0.0073253485
-0.0080761899
-0.0087325681
-0.0093356525
-0.0099217622
-0.010523357
-0.011160987
-0.011844185
-0.012573082
-0.013339379
-0.014127159
-0.014913642
-0.015669914
-0.01636174
-0.016950589
-0.017394959
-0.017652129
-0.017680407
-0.017441913
-0.016905908
-0.016052622
-0.014877275
-0.013394195
-0.01164037
-0.0096778748
-0.0075943702
-0.0055008145
-0.0035256517
-0.0018050987
-0.00046981963
0.0003707758
0.00064399855
0.0003249656
-0.00055789921
-0.0019138303
-0.0036054522
-0.0056452487
-0.0081884593
-0.0069807117
-0.0084963153
-0.009516381
-0.010285487
-0.010971101
-0.011616969
-0.012261609
-0.012939186
-0.013671443
-0.014468597
-0.015330966
-0.016249905
-0.017208525
-0.018182323
-0.019139728
-0.02004273
-0.020847694
-0.021506523
-0.021968286
-0.022181439
-0.022096727
-0.021670811
-0.020870627
-0.019678317
-0.018096463
-0.016153237
-0.013906642
-0.011446974
-0.008896328
-0.0064039463
-0.0041364758
-0.0022628729
-0.00093484553
-0.00026568372
-0.00031271275
-0.0010657961
-0.0024327539
-0.0042566625
-0.0065486159
-0.0094837336
-0.0094534009
-0.010959113
-0.011981405
-0.012764383
-0.013476435
-0.014163604
-0.01486658
-0.015621364
-0.016451173
-0.017367304
-0.018370705
-0.019452842
-0.020596313
-0.021775312
-0.022955984
-0.024096821
-0.025149243
-0.026058531
-0.026765279
-0.02720751
-0.027323589
-0.02705604
-0.026356323
-0.025190623
-0.023546103
-0.021437774
-0.018914778
-0.016065307
-0.013018659
-0.0099427586
-0.0070354854
-0.0045087092
-0.0025651703
-0.001370892
-0.0010292956
-0.0015608567
-0.0028797315
-0.0048110075
-0.0073647823
-0.010737105
-0.012212372
-0.013695714
-0.014712931
-0.015504849
-0.016239014
-0.016963542
-0.017721408
-0.01855075
-0.019476732
-0.02051228
-0.021659549
-0.022910691
-0.024248341
-0.025645904
-0.027067706
-0.028469139
-0.029796985
-0.030990092
-0.03198058
-0.032695781
-0.033061071
-0.0330037
-0.032457833
-0.031371382
-0.029712331
-0.02747803
-0.024703314
-0.021468259
-0.017903524
-0.014191173
-0.010558534
-0.0072628655
-0.0045657078
-0.0026987885
-0.0018281101
-0.0020213709
-0.0032112632
-0.0052096194
-0.0080273276
-0.011882273
-0.015243054
-0.01669425
-0.017699974
-0.018495167
-0.019244969
-0.019999468
-0.020804256
-0.021700181
-0.022715069
-0.023864232
-0.025151765
-0.026571186
-0.028105786
-0.029728753
-0.031403108
-0.033081621
-0.034706859
-0.036211588
-0.037519713
-0.038547963
-0.039208542
-0.039412843
-0.03907647
-0.038127651
-0.036511608
-0.034203861
-0.031219327
-0.027623094
-0.023539625
-0.019157974
-0.014729878
-0.010557147
-0.006965439
-0.0042646302
-0.0027018753
-0.0024132435
-0.0033678104
-0.0053736645
-0.0084468453
-0.012828168
-0.018526807
-0.019940069
-0.020929188
-0.021720994
-0.022477019
-0.023249455
-0.024087194
-0.025034756
-0.026123689
-0.02737271
-0.028788758
-0.030367498
-0.032093541
-0.033940423
-0.035870376
-0.037834021
-0.039770179
-0.041605996
-0.043257607
-0.04463153
-0.045627061
-0.04613995
-0.046067577
-0.045314182
-0.043803184
-0.041484049
-0.03834638
-0.034433191
-0.029854045
-0.024795507
-0.019525141
-0.014384153
-0.0097635463
-0.0060613248
-0.0036249157
-0.0026840013
-0.0032684833
-0.0051988794
-0.0085050398
-0.013452675
-0.022042199
-0.023417317
-0.024386515
-0.025166888
-0.025915776
-0.026687998
-0.027536985
-0.028512459
-0.029651215
-0.030976719
-0.032499863
-0.034219316
-0.036121662
-0.038181299
-0.040360089
-0.042606896
-0.0448572
-0.047032995
-0.049043177
-0.050784657
-0.052144446
-0.053003009
-0.053239081
-0.052735795
-0.051390768
-0.049125705
-0.045900927
-0.041730958
-0.036701547
-0.030985749
-0.024855173
-0.018680474
-0.012913646
-0.0080460516
-0.0045426732
-0.0027546816
-0.0028041535
-0.0045488048
-0.0080475924
-0.013595164
-0.025766824
-0.027111154
-0.02805944
-0.028818344
-0.029541412
-0.03028732
-0.031116106
-0.032085026
-0.033238267
-0.034605797
-0.036203768
-0.038034756
-0.040087905
-0.042338833
-0.044749267
-0.047266513
-0.049822953
-0.052335764
-0.054707095
-0.056824909
-0.058564766
-0.059792798
-0.060370106
-0.060158859
-0.059031777
-0.056881619
-0.053636876
-0.049278658
-0.043860921
-0.037531931
-0.030553416
-0.023311111
-0.016307217
-0.010124749
-0.0053586475
-0.002509422
-0.0018287511
-0.0032464987
-0.006875597
-0.013047713
-0.029679789
-0.031010795
-0.03193999
-0.032664357
-0.033335675
-0.034018848
-0.034783851
-0.035698917
-0.036818553
-0.038181441
-0.039810478
-0.041713027
-0.043881201
-0.046291946
-0.048906791
-0.051671377
-0.054514931
-0.057349906
-0.060071998
-0.06256077
-0.064681156
-0.066286062
-0.067220341
-0.067326472
-0.066453317
-0.064465552
-0.061259079
-0.056778778
-0.05104088
-0.044158866
-0.036370262
-0.028058446
-0.019758903
-0.012136177
-0.0059195191
-0.0017828514
-0.00014858049
-0.0010644908
-0.0047352988
-0.011544809
-0.033765141
-0.03511369
-0.036028702
-0.036700622
-0.037284152
-0.037854706
-0.038497354
-0.03929622
-0.04032
-0.041618748
-0.043223685
-0.045147671
-0.047385892
-0.049916329
-0.052699827
-0.055679826
-0.058781951
-0.061913647
-0.064964129
-0.067804834
-0.070290703
-0.072262432
-0.073550099
-0.073978458
-0.073373288
-0.07157401
-0.068444791
-0.063893796
-0.057896411
-0.050524065
-0.041977429
-0.032619323
-0.022997084
-0.013838173
-0.0059999879
-0.0003458441
0.0024903801
0.0022873086
-0.0013057039
-0.0087511746
-0.038016738
-0.03943141
-0.040339951
-0.040933458
-0.041378736
-0.041769049
-0.042212316
-0.042815313
-0.043665789
-0.044828158
-0.046343416
-0.048230245
-0.050486476
-0.053090269
-0.056000739
-0.059158065
-0.062483319
-0.065878211
-0.069225028
-0.072386957
-0.07520923
-0.077521045
-0.079138767
-0.07987066
-0.079523241
-0.07791138
-0.07487026
-0.070273116
-0.064054352
-0.056239745
-0.046983998
-0.036613132
-0.025663285
-0.014899474
-0.0052897136
0.002109247
0.0064170024
0.0071761438
0.0038166984
-0.0042469149
-0.042445579
-0.043998265
-0.044909261
-0.045384666
-0.045620172
-0.045739012
-0.045883225
-0.04619112
-0.046775215
-0.047717243
-0.049068909
-0.050854295
-0.053072644
-0.055700669
-0.058694015
-0.061987917
-0.06549741
-0.069117242
-0.072721889
-0.076165707
-0.079284066
-0.081894908
-0.083801609
-0.084797228
-0.084670507
-0.083214536
-0.080238339
-0.075583217
-0.069144912
-0.060903648
-0.050963683
-0.039602355
-0.02732343
-0.014900783
-0.0033855989
0.0059819495
0.012050947
0.014064016
0.011137489
0.0024917093
-0.047091594
-0.048884431
-0.049803642
-0.050097623
-0.050020581
-0.049745066
-0.049462905
-0.049354911
-0.049564373
-0.050192578
-0.051301709
-0.052919572
-0.055044431
-0.057648925
-0.060682686
-0.06407366
-0.067728808
-0.071534196
-0.075355512
-0.07903675
-0.082403127
-0.08526103
-0.087400943
-0.088601328
-0.088634333
-0.087272948
-0.084302731
-0.079536376
-0.072834562
-0.064134824
-0.053490931
-0.041125247
-0.027492867
-0.013348733
0.0002065054
0.011772653
0.019919084
0.023529336
0.021290689
0.012119562
-0.052043785
-0.054216754
-0.055136576
-0.055145008
-0.054605823
-0.053770532
-0.052901294
-0.052233687
-0.051946822
-0.052161842
-0.052949059
-0.054336423
-0.056317257
-0.058856275
-0.061893872
-0.0653474
-0.069113396
-0.073067019
-0.077065091
-0.080937341
-0.084499434
-0.087545311
-0.08985204
-0.091183335
-0.091295749
-0.08994185
-0.086885724
-0.081914125
-0.074856022
-0.065610072
-0.054182329
-0.040738851
-0.025675921
-0.0097061807
0.0060555739
0.020082526
0.030670321
0.03629392
0.035076408
0.025465674
-0.057476493
-0.06021264
-0.061089971
-0.060638453
-0.059417273
-0.057799905
-0.056143328
-0.054749233
-0.053834356
-0.053536219
-0.053927536
-0.055030159
-0.056826556
-0.059268226
-0.062283012
-0.06577265
-0.069621656
-0.073692334
-0.077826928
-0.081846059
-0.085550836
-0.088722239
-0.091123438
-0.092502872
-0.092599107
-0.091146977
-0.087888092
-0.082583671
-0.07503282
-0.065097981
-0.052740277
-0.038070379
-0.021420202
-0.0034421636
0.014768414
0.031597267
0.04508451
0.053256373
0.053516675
0.04360733
-0.063717412
-0.067236302
-0.067946023
-0.066739781
-0.064511877
-0.061815043
-0.059125373
-0.056816491
-0.055137561
-0.054232682
-0.054166371
-0.054944777
-0.056531537
-0.058858786
-0.06183444
-0.065344741
-0.069256913
-0.073418474
-0.07765724
-0.081780727
-0.085576043
-0.088810178
-0.091231433
-0.092572005
-0.09255224
-0.090886888
-0.087294226
-0.081508912
-0.073299031
-0.062490012
-0.048997787
-0.032876151
-0.014386837
0.0058943851
0.026923974
0.047044427
0.064067194
0.0755309
0.077939059
0.068004828
-0.071379726
-0.075892556
-0.076131539
-0.073671516
-0.069957547
-0.065786843
-0.061768361
-0.058339669
-0.05576463
-0.054174622
-0.053608938
-0.054044642
-0.055415619
-0.057627467
-0.060563733
-0.064089795
-0.068054002
-0.072287253
-0.076602087
-0.080791551
-0.084628508
-0.087865429
-0.090235175
-0.091453006
-0.091220226
-0.089229794
-0.085174455
-0.078759417
-0.069717509
-0.057831749
-0.042965922
-0.025108674
-0.0044398282
0.01856938
0.042964091
0.067104325
0.088610159
0.1044827
0.11010424
0.10076001
-0.081630536
-0.087180867
-0.086269504
-0.081715689
-0.075814168
-0.069654482
-0.063961013
-0.059200362
-0.055613423
-0.053286505
-0.052209007
-0.052310294
-0.053483331
-0.055598349
-0.058509692
-0.062058444
-0.066072504
-0.070365198
-0.074733432
-0.078955794
-0.082791117
-0.085977606
-0.088232917
-0.089255434
-0.088727136
-0.086318152
-0.081693318
-0.074524666
-0.064503144
-0.051359298
-0.034890262
-0.014998623
0.0082477278
0.03451433
0.063012461
0.092225019
0.11965909
0.14172175
0.15240371
0.14512382
-0.096759121
-0.10273752
-0.099197405
-0.091154876
-0.082062322
-0.073261457
-0.065507945
-0.059217191
-0.05454036
-0.051469471
-0.049910101
-0.049722678
-0.050745257
-0.05280515
-0.055723381
-0.059314923
-0.063386787
-0.067735096
-0.072141991
-0.07637276
-0.080173534
-0.083269666
-0.085365032
-0.086142452
-0.085265664
-0.082382194
-0.077128027
-0.06913867
-0.058056088
-0.043545521
-0.025316247
-0.0031520014
0.023040149
0.053140477
0.086632506
0.12228218
0.1577801
0.18895099
0.20809723
0.20632699
-0.12133892
-0.12518662
-0.1158725
-0.10208078
-0.088417105
-0.076198274
-0.066005878
-0.058052413
-0.052291479
-0.0485503
-0.046608277
-0.046232677
-0.047194187
-0.049271824
-0.052251863
-0.055923907
-0.060075917
-0.064489169
-0.068933621
-0.073163952
-0.076916367
-0.079906233
-0.081826584
-0.082347629
-0.081117858
-0.077763891
-0.071895654
-0.063110461
-0.050996627
-0.03514254
-0.015146415
0.0093683231
0.038724587
0.073128741
0.11251878
0.1562616
0.20262993
0.24752226
0.2813001
0.29235565
-0.16445659
-0.15843234
-0.13714796
-0.11415722
-0.094107291
-0.077631391
-0.06473821
-0.055162186
-0.048490282
-0.044291831
-0.04217296
-0.0417873
-0.042832074
-0.045039035
-0.048163849
-0.051975916
-0.056249424
-0.060755806
-0.065257519
-0.069503029
-0.073222898
-0.076126797
-0.077901407
-0.078209392
-0.076689659
-0.072947242
-0.06657749
-0.057140744
-0.044172789
-0.027181096
-0.0056370451
0.02103407
0.053463222
0.092330596
0.13829517
0.19182579
0.25266692
0.31751037
0.37626756
0.4153697
-0.24629359
-0.20631763
-0.16213004
-0.12552888
-0.097143879
-0.075878601
-0.060488127
-0.04975298
-0.042660857
-0.038436707
-0.036490658
-0.036365464
-0.037697159
-0.040184679
-0.043566495
-0.047603214
-0.052064681
-0.056720297
-0.061331628
-0.065646731
-0.069395783
-0.07228781
-0.074008336
-0.07421877
-0.072557687
-0.068605029
-0.06196146
-0.052155973
-0.038683311
-0.020981813
0.0015952824
0.029824626
0.064685625
0.10746403
0.15987018
0.22417692
0.30290456
0.39553131
0.49624256
0.60321142
-0.4254384
-0.26572973
-0.17722107
-0.1246359
-0.089116769
-0.06510312
-0.049324482
-0.039186029
-0.032984401
-0.029674688
-0.028571153
-0.029186966
-0.031156768
-0.034189554
-0.03803698
-0.042472429
-0.047277034
-0.052229874
-0.057100801
-0.06164504
-0.065599087
-0.068677539
-0.070570359
-0.070939445
-0.069406998
-0.06562914
-0.059132002
-0.049452781
-0.036075021
-0.018403752
0.0042710639
0.03284679
0.068542072
0.11314138
0.16943588
0.24201639
0.33806525
0.46591499
0.64305381
0.92086138
-0.79331229
-0.32444149
-0.14899685
-0.087725033
-0.0553457
-0.035999642
-0.02509186
-0.019201409
-0.016355945
-0.015619437
-0.016494509
-0.018654097
-0.021852945
-0.025888015
-0.030574729
-0.035732838
-0.0411778
-0.046714839
-0.052134395
-0.057208494
-0.061687799
-0.065299248
-0.067744374
-0.06869959
-0.067823422
-0.064707131
-0.058941255
-0.050072235
-0.037593492
-0.020927561
0.00061001569
0.027880473
0.062057976
0.10491243
0.15945028
0.23152688
0.33385031
0.49409106
0.79001521
1.3837772
1.1639078e-05
-0.00013121444
-0.0004433783
-0.00084590014
-0.0012642606
-0.0016530153
-0.0019813112
-0.0022303293
-0.002389441
-0.0024529456
-0.0024179056
-0.0022828659
-0.0020472572
-0.0017113238
-0.0012764233
-0.00074556425
-0.0001240574
0.00057983059
0.0013543225
0.002183764
0.0030485275
0.0039252543
0.0047874628
0.0056065605
0.0063532174
0.0069990468
0.0075184887
0.0078907505
0.0081016387
0.0081451118
0.0080243986
0.0077525887
0.0073526733
0.0068571034
0.0063067604
0.0057491863
0.0052393746
0.0048335561
0.0045934478
0.0045548351
0.00015356792
8.306711e-06
-0.00024182256
-0.00055064792
-0.00087276868
-0.0011738785
-0.0014297505
-0.0016242161
-0.0017469178
-0.001791414
-0.001753764
-0.0016316042
-0.0014236801
-0.0011297606
-0.00075083719
-0.00028951567
0.00024949547
0.00085888686
0.0015283268
0.0022441833
0.0029894571
0.0037441224
0.0044854815
0.0051891892
0.0058304024
0.0063852274
0.0068323385
0.0071546339
0.0073407841
0.0073865187
0.0072955126
0.007079776
0.0067595081
0.006362452
0.0059228129
0.0054796159
0.0050740514
0.0047494202
0.0045508106
0.0045154963
0.00047181127
0.00025372728
-2.0416747e-06
-0.00028110964
-0.00056138928
-0.00081832876
-0.0010341581
-0.0011968292
-0.0012981372
-0.0013325644
-0.0012963941
-0.0011870951
-0.0010030276
-0.00074343734
-0.00040867119
-5.4643554e-07
0.00047719968
0.0010184515
0.0016143188
0.0022528725
0.002919109
0.0035950736
0.0042604047
0.0048931066
0.0054706449
0.0059712933
0.0063756438
0.0066681564
0.0068386021
0.0068832467
0.0068056319
0.0066168499
0.0063352557
0.0059856427
0.0055979748
0.0052057015
0.0048434707
0.0045455307
0.004348143
0.0042809539
0.00089339418
0.00056173058
0.00026125214
-2.4525895e-05
-0.00029518633
-0.00053434706
-0.00073047268
-0.00087636165
-0.00096694075
-0.00099851592
-0.00096827622
-0.00087393666
-0.00071362648
-0.00048600774
-0.00019057224
0.00017193774
0.00059904251
0.0010860321
0.0016255315
0.0022071943
0.0028175923
0.0034402791
0.0040562911
0.0046448371
0.0051843548
0.0056538305
0.0060342991
0.0063103982
0.0064718207
0.0065144986
0.0064413637
0.0062625699
0.0059951127
0.0056618593
0.0052900737
0.0049096154
0.0045511577
0.0042446889
0.0040167968
0.0038812521
0.0013441984
0.00088387625
0.00052111854
0.0002108737
-6.6883564e-05
-0.00030293245
-0.00049164089
-0.00063076463
-0.00071864193
-0.00075370655
-0.00073429756
-0.0006585149
-0.00052427664
-0.00032957345
-7.2872578e-05
0.00024637364
0.00062716235
0.0010663707
0.0015582413
0.0020939879
0.0026615874
0.0032458132
0.0038285903
0.0043896746
0.0049076794
0.0053614037
0.0057313752
0.0060014745
0.0061604702
0.0062032767
0.0061317583
0.0059549507
0.0056886331
0.0053542566
0.0049772817
0.0045852185
0.0042062837
0.0038677133
0.0035851697
0.0033613751
0.0017710878
0.0011770391
0.00074293394
0.00039699597
0.00010037572
-0.00014389834
-0.00033557633
-0.00047713422
-0.0005702551
-0.00061551243
-0.00061241788
-0.00055944708
-0.00045424535
-0.0002940152
-7.6037857e-05
0.00020171021
0.00053988715
0.00093710989
0.0013893295
0.0018893226
0.0024263689
0.0029861957
0.0035512294
0.0041012361
0.0046143307
0.0050683364
0.0054424072
0.005718773
0.0058844224
0.0059325099
0.0058632817
0.0056843616
0.0054103284
0.0050615901
0.004662579
0.0042396466
0.0038201481
0.0034306484
0.0030782827
0.0027506233
0.0021288367
0.001402683
0.00089379947
0.00050571021
0.00018236675
-7.859329e-05
-0.00028175822
-0.00043393778
-0.00053990538
-0.00060220269
-0.00062138126
-0.00059616795
-0.00052380002
-0.00040053661
-0.00022229823
1.4600866e-05
0.00031266376
0.00067241033
0.0010916212
0.0015646925
0.0020821779
0.0026306162
0.0031926669
0.003747698
0.0042727705
0.0047440374
0.0051384668
0.0054357469
0.0056201729
0.0056822834
0.0056200015
0.0054390822
0.0051527703
0.0047806695
0.00434683
0.0038775281
0.003400786
0.0029443585
0.0025084166
0.0020663306
0.0023788757
0.0015260553
0.00094282179
0.00050981724
0.00015514516
-0.00012838728
-0.00034973485
-0.00051961758
-0.0006455564
-0.00073178391
-0.00077965868
-0.00078795294
-0.00075330226
-0.00067082967
-0.00053489624
-0.00033994772
-8.1425774e-05
0.00024329828
0.00063402247
0.0010869136
0.00159389
0.0021423112
0.002714959
0.0032905516
0.0038446766
0.0043512196
0.0047841948
0.0051198367
0.0053387462
0.0054278347
0.0053817877
0.0052038
0.0049054316
0.0045055496
0.0040283331
0.0035009434
0.0029534816
0.0024166705
0.0018856756
0.0013224278
0.0024873982
0.001515465
0.00086070052
0.00038243594
-5.967422e-06
-0.00031616373
-0.00056109074
-0.00075497419
-0.00090771883
-0.0010249299
-0.0011084936
-0.0011569792
-0.0011661922
-0.0011298989
-0.0010406765
-0.00089086485
-0.00067359588
-0.00038386102
-1.9564698e-05
0.00041750285
0.00092086341
0.0014788798
0.0020745231
0.0026857843
0.0032865048
0.0038478013
0.0043399925
0.0047348954
0.0050082831
0.0051422235
0.005126986
0.0049622118
0.0046571287
0.0042296926
0.0037045608
0.0031106285
0.0024813969
0.0018522607
0.0012148671
0.00052047113
0.0024239336
0.0013418341
0.0006198731
9.7522878e-05
-0.00032562431
-0.00066544095
-0.00093854013
-0.0011622895
-0.001348632
-0.0015042305
-0.0016312145
-0.001727693
-0.0017884027
-0.0018055187
-0.0017695886
-0.0016705757
-0.001498994
-0.0012471042
-0.00091012255
-0.00048738202
1.6651449e-05
0.00059175613
0.0012213409
0.0018828025
0.0025481414
0.0031853258
0.0037602782
0.0042393745
0.0045922597
0.004794682
0.004830984
0.0046958849
0.0043952477
0.0039456018
0.0033721871
0.0027063457
0.0019862475
0.001253633
0.00049777742
-0.00034046947
0.0021607075
0.00097853034
0.00019474298
-0.00036957081
-0.00082763963
-0.001199382
-0.0015048347
-0.001764188
-0.0019911156
-0.0021930539
-0.002372116
-0.0025257128
-0.0026472851
-0.0027271853
-0.002753676
-0.0027140437
-0.0025958228
-0.0023881081
-0.0020829168
-0.0016765501
-0.001170858
-0.0005739641
9.84351e-05
0.00082353748
0.0015716396
0.0023073587
0.0029916084
0.0035842696
0.0040473909
0.0043486182
0.0044644427
0.0043828135
0.0041047021
0.0036442379
0.003026988
0.0022872425
0.0014690598
0.00062223585
-0.00026549837
-0.0012640006
0.0016725251
0.00040143875
-0.00043804094
-0.0010416183
-0.0015343339
-0.0019400066
-0.0022818811
-0.0025826916
-0.0028575814
-0.0031145252
-0.003355407
-0.0035767426
-0.003770484
-0.0039249511
-0.0040258715
-0.0040575393
-0.0040041027
-0.0038509764
-0.0035863469
-0.0032027092
-0.0026983559
-0.002078897
-0.0013578586
-0.00055765002
0.00029073198
0.0011486068
0.001971438
0.0027115972
0.0033219401
0.0037599118
0.0039917384
0.0039961445
0.0037670336
0.003314548
0.002663823
0.0018522751
0.00093098546
-4.0391618e-05
-0.0010750866
-0.00225452
0.00093698777
-0.00041077416
-0.0012992097
-0.0019390057
-0.002465884
-0.0029074146
-0.0032898519
-0.0036382313
-0.0039689558
-0.0042903633
-0.0046039578
-0.0049052245
-0.0051844865
-0.0054278643
-0.0056183272
-0.0057368655
-0.0057638115
-0.0056803231
-0.0054700172
-0.005120698
-0.0046261255
-0.0039879344
-0.0032166239
-0.0023330688
-0.0013687124
-0.00036511044
0.00062760168
0.0015534315
0.0023544093
0.0029754081
0.0033694517
0.0035028551
0.0033594346
0.0029429278
0.0022765746
0.0014006188
0.00037413819
-0.00073142912
-0.0019298303
-0.0033153447
-6.5082413e-05
-0.0014762636
-0.0024064257
-0.0030791842
-0.0036396556
-0.0041189874
-0.0045462543
-0.004948582
-0.0053434786
-0.0057395378
-0.0061378091
-0.0065326861
-0.006912796
-0.0072619568
-0.007560207
-0.0077849534
-0.007912288
-0.0079185062
-0.0077818403
-0.0074843791
-0.0070141345
-0.0063672256
-0.0055497109
-0.0045794018
-0.0034868664
-0.0023156122
-0.0011210673
3.1888249e-05
0.0010729524
0.001931894
0.0025451055
0.0028624932
0.0028537258
0.0025126101
0.0018580363
0.00093206679
-0.00019754495
-0.001445537
-0.0028257697
-0.0044469822
-0.0013491046
-0.0028095446
-0.0037738068
-0.0044761218
-0.0050695465
-0.0055885978
-0.0060649868
-0.0065277535
-0.006995415
-0.0074767905
-0.0079724846
-0.0084758288
-0.0089737757
-0.0094478222
-0.0098749795
-0.010228855
-0.010480918
-0.010602013
-0.010564149
-0.010342582
-0.0099181625
-0.009279894
-0.00842746
-0.0073736591
-0.0061463085
-0.004789308
-0.0033624248
-0.0019393853
-0.00060396353
0.00055602327
0.0014565426
0.0020262754
0.0022154762
0.0020030786
0.001399801
0.00044745668
-0.00077737169
-0.0021735169
-0.0037545173
-0.0056453351
-0.0029261743
-0.0044210327
-0.0054114781
-0.0061397988
-0.006765379
-0.0073258632
-0.0078554236
-0.0083848803
-0.0089337316
-0.0095110757