/*--------------------------------*- C++ -*----------------------------------*\
  =========                 |
  \\      /  F ield         | OpenFOAM: The Open Source CFD Toolbox
   \\    /   O peration     | Website:  https://openfoam.org
    \\  /    A nd           | Version:  7
     \\/     M anipulation  |
\*---------------------------------------------------------------------------*/
FoamFile
{
    version     2.0;
    format      ascii;
    class       surfaceScalarField;
    location    "19";
    object      phi;
}
// * * * * * * * * * * * * * * * * * * * * * * * * * * * * * * * * * * * * * //

dimensions      [0 3 -1 0 0 0 0];

internalField   nonuniform List<scalar> 
45600
(
2.751486e-07
-2.8220551e-07
-7.9226713e-11
4.032824e-07
-1.2810864e-07
-2.495528e-11
1.3250663e-07
2.7078334e-07
-6.8086099e-12
-5.6233278e-07
6.9484126e-07
-1.5761363e-12
-1.639275e-06
1.0769388e-06
3.531371e-12
-3.0275007e-06
1.3882185e-06
6.9985016e-12
-4.6522386e-06
1.6247284e-06
9.2739194e-12
-6.4447519e-06
1.7925024e-06
1.0882704e-11
-8.3449497e-06
1.900186e-06
1.2027762e-11
-1.0300835e-05
1.9558725e-06
1.2792299e-11
-1.2266658e-05
1.9658099e-06
1.3227879e-11
-1.4200702e-05
1.934031e-06
1.3367044e-11
-1.606323e-05
1.8625137e-06
1.3224899e-11
-1.7814896e-05
1.751653e-06
1.2802084e-11
-1.9415813e-05
1.600904e-06
1.208889e-11
-2.0825323e-05
1.4094977e-06
1.1071259e-11
-2.2002497e-05
1.1771626e-06
9.7378899e-12
-2.2907306e-05
9.0479899e-07
8.0877736e-12
-2.3502378e-05
5.9506309e-07
6.1207953e-12
-2.3755211e-05
2.5282734e-07
3.8657561e-12
-2.3640681e-05
-1.1453417e-07
1.3759664e-12
-2.3143611e-05
-4.9707111e-07
-1.2791181e-12
-2.2261267e-05
-8.8234188e-07
-4.015519e-12
-2.1005426e-05
-1.2558365e-06
-6.7248278e-12
-1.9403809e-05
-1.6016099e-06
-9.2899763e-12
-1.7500656e-05
-1.9031444e-06
-1.1580551e-11
-1.5356236e-05
-2.1444097e-06
-1.3465806e-11
-1.3045191e-05
-2.3110324e-06
-1.4803263e-11
-1.0653701e-05
-2.391476e-06
-1.5451143e-11
-8.2755707e-06
-2.3781157e-06
-1.5322134e-11
-6.007457e-06
-2.2680993e-06
-1.4457779e-11
-3.9435329e-06
-2.0639143e-06
-1.3012356e-11
-2.1698714e-06
-1.7736589e-06
-1.1049099e-11
-7.5868276e-07
-1.4111881e-06
-8.3128977e-12
2.380442e-07
-9.9671745e-07
-4.5741263e-12
7.963958e-07
-5.5833023e-07
-6.1081275e-13
9.2917708e-07
-1.3276967e-07
3.0015842e-12
7.0553984e-07
2.2360286e-07
5.2335956e-12
2.9046001e-07
4.1499703e-07
6.2614561e-12
2.9040039e-07
-2.0491095e-12
1.3286443e-07
-4.1504744e-07
-2.2338862e-11
-3.0170836e-07
3.0647804e-07
-1.4132407e-11
-1.6153678e-06
1.5844557e-06
-1.2384506e-11
-3.8745455e-06
2.9540327e-06
-1.3173829e-11
-7.0069809e-06
4.2093895e-06
-1.4345451e-11
-1.0879131e-05
5.2603851e-06
-1.5887136e-11
-1.5334236e-05
6.0798518e-06
-1.7325924e-11
-2.0214731e-05
6.6730154e-06
-1.8365618e-11
-2.5372423e-05
7.0578965e-06
-1.8947734e-11
-3.0671258e-05
7.2547251e-06
-1.9080043e-11
-3.5986144e-05
7.2807147e-06
-1.8786726e-11
-4.120006e-05
7.1479634e-06
-1.8094022e-11
-4.6200848e-05
6.8633178e-06
-1.7020982e-11
-5.0878649e-05
6.4294672e-06
-1.55775e-11
-5.512449e-05
5.8467566e-06
-1.3768828e-11
-5.8830332e-05
5.1153488e-06
-1.1601398e-11
-6.1890626e-05
4.2374631e-06
-9.0885715e-12
-6.4205306e-05
3.2194817e-06
-6.2390855e-12
-6.5683999e-05
2.073756e-06
-3.1054125e-12
-6.6251128e-05
8.1995192e-07
2.4481311e-13
-6.5851739e-05
-5.1393096e-07
3.7324536e-12
-6.4456737e-05
-1.8920844e-06
7.3114946e-12
-6.2068653e-05
-3.2704422e-06
1.0829242e-11
-5.8725577e-05
-4.5989311e-06
1.416816e-11
-5.4503933e-05
-5.8232752e-06
1.720063e-11
-4.9519174e-05
-6.887927e-06
1.9790403e-11
-4.3924104e-05
-7.7395046e-06
2.178941e-11
-3.7904605e-05
-8.3305585e-06
2.3066442e-11
-3.1672738e-05
-8.6233726e-06
2.3568141e-11
-2.545741e-05
-8.5934732e-06
2.335759e-11
-1.9492993e-05
-8.2325401e-06
2.252758e-11
-1.4006413e-05
-7.5505098e-06
2.0993228e-11
-9.2032219e-06
-6.5768629e-06
1.8433288e-11
-5.2530035e-06
-5.3614336e-06
1.4731996e-11
-2.2741873e-06
-3.9755787e-06
1.0661612e-11
-3.1752111e-07
-2.5150309e-06
7.6350406e-12
6.5683829e-07
-1.1071011e-06
5.959344e-12
8.0355125e-07
7.6990315e-08
6.459346e-12
4.1784963e-07
8.0081239e-07
6.7739927e-12
7.0821029e-07
-4.5603622e-12
-2.7358243e-07
-1.4145173e-07
-1.250651e-11
-1.6274128e-06
1.6603158e-06
-7.2474324e-12
-4.289173e-06
4.2462248e-06
-8.5814379e-12
-8.2741836e-06
6.9390504e-06
-7.195971e-12
-1.3473564e-05
9.4087755e-06
-5.2334171e-12
-1.9707424e-05
1.149425e-05
-4.1568671e-12
-2.6763943e-05
1.3136375e-05
-3.4635914e-12
-3.4424251e-05
1.4333326e-05
-2.8918207e-12
-4.2475676e-05
1.5109324e-05
-2.4131846e-12
-5.0716892e-05
1.5495943e-05
-1.9865114e-12
-5.8958136e-05
1.552196e-05
-1.5742794e-12
-6.7018949e-05
1.5208776e-05
-1.1594642e-12
-7.4725241e-05
1.4569609e-05
-7.3725274e-13
-8.1906926e-05
1.3611151e-05
-3.0741291e-13
-8.8396915e-05
1.2336743e-05
1.2573869e-13
-9.4031879e-05
1.075031e-05
5.5450705e-13
-9.8654924e-05
8.8605039e-06
9.666059e-13
-0.00010212005
6.6846012e-06
1.3602076e-12
-0.00010429811
4.2518155e-06
1.7215141e-12
-0.00010508394
1.6057717e-06
2.0367758e-12
-0.00010440374
-1.1941349e-06
2.3047859e-12
-0.00010222284
-4.0729961e-06
2.5146803e-12
-9.8552284e-05
-6.9409993e-06
2.6540977e-12
-9.3454252e-05
-9.6969707e-06
2.7277392e-12
-8.7045207e-05
-1.2232327e-05
2.7526026e-12
-7.949644e-05
-1.4436701e-05
2.7568909e-12
-7.1031391e-05
-1.6204559e-05
2.7527578e-12
-6.1919516e-05
-1.7442438e-05
2.7061483e-12
-5.2466607e-05
-1.8076286e-05
2.5607988e-12
-4.3001775e-05
-1.8058315e-05
2.3508296e-12
-3.3861501e-05
-1.7372826e-05
2.2994203e-12
-2.537141e-05
-1.6040607e-05
2.6732161e-12
-1.7826468e-05
-1.4121797e-05
3.3443758e-12
-1.1470276e-05
-1.171761e-05
3.5727053e-12
-6.473917e-06
-8.971944e-06
2.6985914e-12
-2.9142021e-06
-6.0747972e-06
1.2951364e-12
-7.5142317e-07
-3.2699539e-06
1.0994756e-12
1.942022e-07
-8.6866697e-07
3.8731766e-12
2.6547129e-07
7.2960246e-07
7.7910725e-12
9.736718e-07
1.2491885e-12
-7.4580668e-07
6.0436828e-07
-1.2783694e-11
-3.1794392e-06
4.0939503e-06
-1.3186384e-12
-7.3456202e-06
8.4124134e-06
-6.7666469e-12
-1.3162156e-05
1.2755592e-05
-6.1463558e-12
-2.0454383e-05
1.6701006e-05
-3.5454509e-12
-2.8990565e-05
2.0030434e-05
-2.2169542e-12
-3.8511095e-05
2.2656905e-05
-1.3367804e-12
-4.8749126e-05
2.4571358e-05
-5.4828813e-13
-5.9442633e-05
2.580283e-05
9.8883307e-14
-7.0339674e-05
2.6392984e-05
6.2146989e-13
-8.1199168e-05
2.6381452e-05
1.060427e-12
-9.1789253e-05
2.5798858e-05
1.4372392e-12
-0.00010188496
2.4665318e-05
1.7603494e-12
-0.00011126653
2.2992716e-05
2.0317721e-12
-0.00011971912
2.0789328e-05
2.2483217e-12
-0.00012703449
1.8065674e-05
2.4032629e-12
-0.0001330147
1.484071e-05
2.4852707e-12
-0.00013747775
1.1147646e-05
2.4891524e-12
-0.00014026479
7.0388427e-06
2.4080699e-12
-0.00014124841
2.5893866e-06
2.2441106e-12
-0.00014034136
-2.1011901e-06
2.0170039e-12
-0.00013750534
-6.9090162e-06
1.705742e-12
-0.00013275849
-1.1687857e-05
1.3250558e-12
-0.0001261814
-1.6274062e-05
8.8951702e-13
-0.00011792071
-2.0493023e-05
4.2322446e-13
-0.00010818954
-2.4167871e-05
-1.9666325e-14
-9.7264367e-05
-2.7129739e-05
-3.5936286e-13
-8.5477787e-05
-2.9229019e-05
-5.4505292e-13
-7.3207194e-05
-3.0346877e-05
-6.3014541e-13
-6.0859342e-05
-3.0406166e-05
-7.5047528e-13
-4.8851293e-05
-2.9380882e-05
-9.1291399e-13
-3.7588422e-05
-2.7303492e-05
-7.6793767e-13
-2.7440401e-05
-2.4269828e-05
1.8509384e-13
-1.8716212e-05
-2.0441785e-05
1.8396943e-12
-1.1639272e-05
-1.6048849e-05
3.0601179e-12
-6.3235634e-06
-1.1390486e-05
2.7722417e-12
-2.7516216e-06
-6.8419259e-06
1.819694e-12
-7.5725546e-07
-2.86309e-06
2.4641694e-12
-9.5628152e-09
-1.8084057e-08
5.0080817e-12
9.6411494e-07
4.6334325e-12
-1.2278838e-06
1.8322666e-06
-1.4326339e-11
-4.7877676e-06
7.6538297e-06
4.6280051e-12
-1.0520769e-05
1.4145422e-05
-5.9221624e-12
-1.8212972e-05
2.0447803e-05
-7.0332641e-12
-2.7601853e-05
2.6089893e-05
-4.667869e-12
-3.8393381e-05
3.0821966e-05
-3.952377e-12
-5.0279224e-05
3.4542752e-05
-3.6202717e-12
-6.2949983e-05
3.724212e-05
-3.1596067e-12
-7.610324e-05
3.8956089e-05
-2.7053703e-12
-8.9446976e-05
3.9736722e-05
-2.2853039e-12
-0.0001026997
3.9634174e-05
-1.8719799e-12
-0.00011558882
3.8687985e-05
-1.4540732e-12
-0.00012784877
3.6925267e-05
-1.029374e-12
-0.00013921985
3.4363796e-05
-5.9688578e-13
-0.00014944874
3.1018214e-05
-1.584945e-13
-0.00015829094
2.6907867e-05
2.8066134e-13
-0.00016551532
2.2065085e-05
7.1034882e-13
-0.0001709106
1.6542924e-05
1.1208149e-12
-0.00017429339
1.0421627e-05
1.501187e-12
-0.00017551726
3.8132595e-06
1.8424198e-12
-0.00017448233
-3.1361329e-06
2.1409043e-12
-0.00017114454
-1.0246808e-05
2.3850679e-12
-0.00016552407
-1.7308332e-05
2.57361e-12
-0.00015771193
-2.4086215e-05
2.6983583e-12
-0.00014787409
-3.0330865e-05
2.7421055e-12
-0.00013625245
-3.5789516e-05
2.700249e-12
-0.00012316184
-4.022036e-05
2.6197214e-12
-0.00010898265
-4.3408216e-05
2.6059371e-12
-9.4148779e-05
-4.518075e-05
2.7327303e-12
-7.9130838e-05
-4.5424106e-05
2.8909272e-12
-6.4414981e-05
-4.4096736e-05
2.7929183e-12
-5.0478123e-05
-4.124036e-05
2.3283662e-12
-3.7760621e-05
-3.6987355e-05
1.9760934e-12
-2.6637896e-05
-3.1564536e-05
2.4926185e-12
-1.739268e-05
-2.5294063e-05
3.7850507e-12
-1.0189703e-05
-1.8593432e-05
4.6251342e-12
-5.0546847e-06
-1.1976929e-05
4.293679e-12
-1.8598725e-06
-6.0579334e-06
2.6349456e-12
-3.2226279e-07
-1.555712e-06
5.7435816e-14
6.418543e-07
6.2955601e-12
-1.693039e-06
3.5253228e-06
-1.683302e-11
-6.3709136e-06
1.2331694e-05
1.0015044e-11
-1.3670376e-05
2.144489e-05
-4.990776e-12
-2.3232222e-05
3.0009656e-05
-7.159822e-12
-3.4692495e-05
3.7550171e-05
-4.4479746e-12
-4.7686049e-05
4.3815523e-05
-3.8934609e-12
-6.1852643e-05
4.8709351e-05
-3.7806879e-12
-7.6842029e-05
5.2231509e-05
-3.4251668e-12
-9.2316654e-05
5.4430717e-05
-3.0281409e-12
-0.00010795189
5.5371956e-05
-2.6452875e-12
-0.00012343445
5.5116737e-05
-2.252193e-12
-0.0001384601
5.371364e-05
-1.8414516e-12
-0.00015273165
5.1196813e-05
-1.4146014e-12
-0.00016595809
4.7590234e-05
-9.7339016e-13
-0.00017785554
4.291567e-05
-5.1878107e-13
-0.00018815027
3.7202587e-05
-5.4139969e-14
-0.00019658368
3.0498502e-05
4.1295675e-13
-0.00020291939
2.2878628e-05
8.7284014e-13
-0.00020695165
1.4453878e-05
1.313868e-12
-0.00020851495
5.3765538e-06
1.7224895e-12
-0.00020749411
-4.1569777e-06
2.0850893e-12
-0.00020383419
-1.3906731e-05
2.3976924e-12
-0.00019754967
-2.3592853e-05
2.6582584e-12
-0.00018873202
-3.2903871e-05
2.8709367e-12
-0.00017755493
-4.1507967e-05
3.0262303e-12
-0.00016427638
-4.9068067e-05
3.0897873e-12
-0.00014923679
-5.5259955e-05
3.0330825e-12
-0.00013285238
-5.9792635e-05
2.9087949e-12
-0.00011560335
-6.2429784e-05
2.8857147e-12
-9.8016609e-05
-6.3010855e-05
3.1121671e-12
-8.0643173e-05
-6.1470168e-05
3.4500388e-12
-6.4031119e-05
-5.7852404e-05
3.4538586e-12
-4.8695262e-05
-5.2323216e-05
2.9052395e-12
-3.5085456e-05
-4.5174366e-05
2.3612536e-12
-2.3555812e-05
-3.6823733e-05
2.668592e-12
-1.4337416e-05
-2.7811828e-05
3.9367769e-12
-7.5172865e-06
-1.8797036e-05
5.3649456e-12
-3.0266738e-06
-1.0548548e-05
3.6889252e-12
-6.424998e-07
-3.939899e-06
-2.3558901e-12
-6.5275913e-10
8.3750111e-12
-2.1327625e-06
5.6581056e-06
-1.960896e-11
-7.8904282e-06
1.8089345e-05
1.4801639e-11
-1.6716032e-05
3.0270499e-05
-4.2624272e-12
-2.810344e-05
4.139707e-05
-7.2326599e-12
-4.1581699e-05
5.1028435e-05
-4.019381e-12
-5.670954e-05
5.8943367e-05
-3.495106e-12
-7.3072398e-05
6.5072212e-05
-3.508897e-12
-9.0279878e-05
6.9438992e-05
-3.2026317e-12
-0.00010796277
7.2113613e-05
-2.8330968e-12
-0.0001257694
7.3178582e-05
-2.4760352e-12
-0.0001433616
7.2708941e-05
-2.1058396e-12
-0.00016041108
7.0763123e-05
-1.7159669e-12
-0.00017659677
6.7382496e-05
-1.3096791e-12
-0.00019160376
6.2597224e-05
-8.9043955e-13
-0.00020512432
5.6436236e-05
-4.6047e-13
-0.00021686101
4.8939275e-05
-2.3094764e-14
-0.00022653187
4.0169356e-05
4.1639924e-13
-0.00023387754
3.0224294e-05
8.5071671e-13
-0.00023866993
1.9246264e-05
1.2702666e-12
-0.00024072201
7.4286326e-06
1.661753e-12
-0.00023989833
-4.9806665e-06
2.0076252e-12
-0.00023612555
-1.7679512e-05
2.3005088e-12
-0.00022940276
-3.0315656e-05
2.5280147e-12
-0.00021981036
-4.2496269e-05
2.7023371e-12
-0.00020751719
-5.3801144e-05
2.846357e-12
-0.00019278455
-6.3800711e-05
2.9595552e-12
-0.00017596642
-7.2078088e-05
2.9885757e-12
-0.00015750468
-7.8254383e-05
2.8653853e-12
-0.0001379185
-8.2015968e-05
2.6353923e-12
-0.00011778742
-8.3141952e-05
2.5381426e-12
-9.7727899e-05
-8.1529695e-05
2.8144216e-12
-7.8364225e-05
-7.7216075e-05
3.3119391e-12
-6.0294986e-05
-7.0392443e-05
3.4618681e-12
-4.4057524e-05
-6.1411829e-05
2.9532091e-12
-3.0093154e-05
-5.0788124e-05
2.3521254e-12
-1.871654e-05
-3.9188462e-05
2.9395285e-12
-1.0092697e-05
-2.7420876e-05
5.2935663e-12
-4.2251788e-06
-1.6416059e-05
4.1452799e-12
-9.5846428e-07
-7.2066122e-06
-4.7061939e-12
-9.5913018e-07
1.0295872e-11
-2.5448375e-06
8.2029659e-06
-2.2401957e-11
-9.3280561e-06
2.4872545e-05
1.9075743e-11
-1.9613713e-05
4.0556159e-05
-3.7873821e-12
-3.2754114e-05
5.4537479e-05
-7.5036025e-12
-4.8171899e-05
6.6446224e-05
-3.825383e-12
-6.5348732e-05
7.6120204e-05
-3.346475e-12
-8.3815336e-05
8.3538819e-05
-3.4982122e-12
-0.00010314234
8.8765998e-05
-3.2576169e-12
-0.00012293186
9.1903133e-05
-2.9305569e-12
-0.00014280974
9.3056472e-05
-2.6094462e-12
-0.00016241875
9.2317948e-05
-2.2670845e-12
-0.00018141299
8.9757368e-05
-1.8973529e-12
-0.00019945419
8.5423696e-05
-1.5039181e-12
-0.00021620996
7.9352994e-05
-1.0904089e-12
-0.00023135437
7.1580636e-05
-6.6053072e-13
-0.00024457071
6.2155618e-05
-2.1866677e-13
-0.00025555651
5.1155153e-05
2.2984273e-13
-0.00026403033
3.8698109e-05
6.7906727e-13
-0.00026974028
2.4956215e-05
1.1217023e-12
-0.00027247387
1.016222e-05
1.5463368e-12
-0.00027206885
-5.3856993e-06
1.9352355e-12
-0.00026842448
-2.1323882e-05
2.2823104e-12
-0.00026151329
-3.7226848e-05
2.5547632e-12
-0.0002513919
-5.2617668e-05
2.7450205e-12
-0.00023821061
-6.6982441e-05
2.8766906e-12
-0.00022222052
-7.9790808e-05
2.9964189e-12
-0.00020377687
-9.0521743e-05
3.1218492e-12
-0.00018333727
-9.869398e-05
3.1801603e-12
-0.0001614535
-0.00010389974
3.0500187e-12
-0.0001387558
-0.00010583966
2.754662e-12
-0.00011592928
-0.00010435624
2.5931634e-12
-9.3682784e-05
-9.9462578e-05
2.8808693e-12
-7.2711851e-05
-9.1363374e-05
3.4402746e-12
-5.3658186e-05
-8.0465483e-05
3.5719717e-12
-3.7069385e-05
-6.7376926e-05
2.9267214e-12
-2.3362934e-05
-5.2894931e-05
2.815563e-12
-1.2798796e-05
-3.7985026e-05
5.1821119e-12
-5.4646704e-06
-2.3750182e-05
3.9530391e-12
-1.2772107e-06
-1.139406e-05
-7.399365e-12
-2.2363555e-06
1.2871292e-11
-2.9282273e-06
1.1131219e-05
-2.5123957e-11
-1.0672756e-05
3.261705e-05
2.2905665e-11
-2.2334278e-05
5.2217685e-05
-3.476588e-12
-3.7132857e-05
6.9336067e-05
-7.8666632e-12
-5.4389596e-05
8.3702966e-05
-3.7374717e-12
-7.35116e-05
9.5242211e-05
-3.2917824e-12
-9.397669e-05
0.00010400391
-3.5664414e-12
-0.00011531874
0.00011010805
-3.3861215e-12
-0.00013711436
0.00011369876
-3.1007234e-12
-0.00015897117
0.00011491328
-2.8158393e-12
-0.00018051795
0.00011386473
-2.5021017e-12
-0.00020139695
0.00011063637
-2.1540498e-12
-0.00022125861
0.00010528535
-1.7756126e-12
-0.00023975868
9.7853071e-05
-1.3689549e-12
-0.00025655798
8.8379934e-05
-9.3752515e-13
-0.00027132437
7.6922e-05
-4.8595272e-13
-0.000283737
6.3567782e-05
-2.0833255e-14
-0.00029349256
4.8453674e-05
4.512966e-13
-0.0003003133
3.1776944e-05
9.2346922e-13
-0.0003039566
1.380552e-05
1.3834837e-12
-0.0003042262
-5.1161044e-06
1.8144128e-12
-0.0003009842
-2.4565888e-05
2.2301935e-12
-0.00029416454
-4.4046511e-05
2.584488e-12
-0.00028378625
-6.2995956e-05
2.848688e-12
-0.00026996636
-8.0802341e-05
3.0077407e-12
-0.00025293093
-9.6826244e-05
3.0908226e-12
-0.00023302284
-0.00011042984
3.1741387e-12
-0.00021070434
-0.00012101249
3.3033798e-12
-0.00018655254
-0.00012805154
3.3918821e-12
-0.00016124624
-0.00013114596
3.2682235e-12
-0.0001355429
-0.00013005958
2.9403851e-12
-0.00011024585
-0.00012475964
2.7614468e-12
-8.6163087e-05
-0.00011544614
3.0686866e-12
-6.4060613e-05
-0.00010256795
3.527511e-12
-4.4614548e-05
-8.6822984e-05
3.3204077e-12
-2.8367222e-05
-6.9142261e-05
3.1722913e-12
-1.5692458e-05
-5.0659803e-05
5.5298917e-12
-6.7749339e-06
-3.266771e-05
3.676354e-12
-1.6069683e-06
-1.6562012e-05
-1.0445109e-11
-3.8433389e-06
1.5505073e-11
-3.2814137e-06
1.441266e-05
-2.7715713e-11
-1.1914849e-05
4.125046e-05
2.6324721e-11
-2.4853411e-05
6.5156251e-05
-3.2861424e-12
-4.1196484e-05
8.5679148e-05
-8.2792691e-12
-6.0171363e-05
0.00010267785
-3.7187526e-12
-8.1115675e-05
0.00011618653
-3.2846587e-12
-0.00010345804
0.00012634628
-3.658701e-12
-0.00012669891
0.00013334893
-3.5259688e-12
-0.000150393
0.00013739284
-3.2763415e-12
-0.00017413387
0.00013865415
-3.0251628e-12
-0.00019754114
0.000137272
-2.7394585e-12
-0.00022025047
0.0001333457
-2.4141856e-12
-0.0002419064
0.00012694128
-2.0544285e-12
-0.00026215809
0.00011810476
-1.6613169e-12
-0.00028065766
0.0001068795
-1.2359208e-12
-0.00029706107
9.3325409e-05
-7.8156502e-13
-0.00031103121
7.7537922e-05
-3.0417128e-13
-0.0003222431
5.9665564e-05
1.889717e-13
-0.00033039108
3.9924927e-05
6.8883015e-13
-0.000335198
1.8612434e-05
1.1738801e-12
-0.00033642652
-3.8875862e-06
1.6185285e-12
-0.0003338917
-2.7100713e-05
2.0960574e-12
-0.00032747672
-5.0461503e-05
2.5241827e-12
-0.0003171486
-7.3324077e-05
2.8860663e-12
-0.00030297516
-9.4975782e-05
3.146176e-12
-0.00028514099
-0.00011466043
3.2727194e-12
-0.00026396077
-0.00013161006
3.2981125e-12
-0.00023988774
-0.00014508552
3.3285594e-12
-0.00021351455
-0.00015442473
3.4381191e-12
-0.00018556413
-0.00015909638
3.5277956e-12
-0.00015686854
-0.00015875517
3.39562e-12
-0.00012833516
-0.00015329303
3.0758651e-12
-0.00010090106
-0.00014288026
2.9648879e-12
-7.547879e-05
-0.00012799023
3.2161082e-12
-5.2898605e-05
-0.00010940317
3.2228178e-12
-3.3853514e-05
-8.818735e-05
3.4153385e-12
-1.8853912e-05
-6.5659413e-05
6.1923506e-12
-8.1978936e-06
-4.3323735e-05
3.6026013e-12
-1.9610769e-06
-2.2798814e-05
-1.3748921e-11
-5.8044329e-06
1.8199522e-11
-3.6019928e-06
1.8014683e-05
-3.0131098e-11
-1.3043772e-05
5.0692209e-05
2.9342563e-11
-2.7147035e-05
7.9259517e-05
-3.1951282e-12
-4.4903498e-05
0.00010343562
-8.727424e-12
-6.5456236e-05
0.00012323059
-3.7699939e-12
-8.8080255e-05
0.00013881055
-3.3389655e-12
-0.00011216006
0.00015042609
-3.7958146e-12
-0.00013716691
0.00015835578
-3.7013062e-12
-0.00016263764
0.00016286357
-3.482974e-12
-0.00018815602
0.00016417254
-3.2641289e-12
-0.00021333717
0.00016245315
-3.0067534e-12
-0.00023781511
0.00015782365
-2.7048115e-12
-0.0002612337
0.00015035988
-2.3647046e-12
-0.00028324051
0.00014011156
-1.9883831e-12
-0.00030348357
0.00012712256
-1.57528e-12
-0.00032161067
0.00011145251
-1.1261862e-12
-0.00033727093
9.3198178e-05
-6.4369885e-13
-0.00035011855
7.2513188e-05
-1.3346223e-13
-0.00035981886
4.9625237e-05
3.9435235e-13
-0.00036605662
2.4850186e-05
9.0837578e-13
-0.00036854749
-1.3967196e-06
1.3555652e-12
-0.0003670504
-2.8597802e-05
1.9082821e-12
-0.00036138617
-5.6125744e-05
2.3863504e-12
-0.00035145531
-8.3254942e-05
2.8151226e-12
-0.00033725966
-0.00010917143
3.184092e-12
-0.00031892401
-0.00013299608
3.4394868e-12
-0.00029671627
-0.00015381781
3.5339581e-12
-0.00027106332
-0.00017073848
3.5024744e-12
-0.00024255931
-0.00018292874
3.4766742e-12
-0.00021196264
-0.00018969305
3.5458751e-12
-0.00018017866
-0.00019053915
3.5959531e-12
-0.00014822604
-0.00018524565
3.444544e-12
-0.00011718706
-0.00017391924
3.2014143e-12
-8.8144711e-05
-0.00015703259
3.1113605e-12
-6.2112424e-05
-0.00013543546
2.943748e-12
-3.9964602e-05
-0.00011033517
3.384092e-12
-2.2376562e-05
-8.3247457e-05
6.8894046e-12
-9.7822362e-06
-5.5918064e-05
3.6763816e-12
-2.354588e-06
-3.0226445e-05
-1.7316298e-11
-8.1590412e-06
2.1174216e-11
-3.8867246e-06
2.190144e-05
-3.232928e-11
-1.4047509e-05
6.0852961e-05
3.1953568e-11
-2.9189702e-05
9.4401714e-05
-3.1866052e-12
-4.8211446e-05
0.00012245737
-9.1942598e-12
-7.0182377e-05
0.00014520153
-3.8825046e-12
-9.4322842e-05
0.00016295102
-3.4524609e-12
-0.00011997919
0.00017608245
-3.9805218e-12
-0.00014659826
0.00018497485
-3.9175421e-12
-0.00017370331
0.00018996862
-3.7263989e-12
-0.0002008726
0.00019134184
-3.538425e-12
-0.00022772126
0.00018930181
-3.3105138e-12
-0.00025388654
0.00018398894
-3.0338631e-12
-0.00027901665
0.00017548998
-2.7143652e-12
-0.00030276266
0.00016385757
-2.3553465e-12
-0.00032477338
0.00014913329
-1.9572321e-12
-0.00034469272
0.00013137186
-1.5194276e-12
-0.00036215941
0.00011066486
-1.0419456e-12
-0.00037680896
8.7162739e-05
-5.2685386e-13
-0.00038827812
6.1094397e-05
2.0080095e-14
-0.00039621206
3.2784124e-05
5.9843118e-13
-0.00040027445
2.6656709e-06
1.2091475e-12
-0.00040016243
-2.8709828e-05
1.7131913e-12
-0.00039562328
-6.0664899e-05
2.2118414e-12
-0.00038647745
-9.2400782e-05
2.6806414e-12
-0.00037264375
-0.00012300513
3.1105816e-12
-0.00035416731
-0.00015147253
3.4778824e-12
-0.0003312475
-0.00017673762
3.7189842e-12
-0.00030426304
-0.00019772294
3.7755873e-12
-0.00027378981
-0.00021340198
3.6891388e-12
-0.00024060682
-0.00022287605
3.6075353e-12
-0.00020568545
-0.00022546053
3.6134738e-12
-0.00017015837
-0.00022077273
3.5998548e-12
-0.00013526684
-0.00020881077
3.4668805e-12
-0.00010228855
-0.00019001088
3.229968e-12
-7.2452567e-05
-0.00016527145
2.7616293e-12
-4.6851122e-05
-0.00013593662
3.2371061e-12
-2.6360142e-05
-0.00010373844
7.5519467e-12
-1.1579904e-05
-7.0698304e-05
3.7792182e-12
-2.8031838e-06
-3.9003144e-05
-2.1282283e-11
-1.0962249e-05
2.4598402e-11
-4.1317849e-06
2.6033259e-05
-3.4269536e-11
-1.4912927e-05
7.1634068e-05
3.4143445e-11
-3.0954746e-05
0.00011044354
-3.2450087e-12
-5.1076788e-05
0.00014257942
-9.6617006e-12
-7.4286749e-05
0.00016841149
-4.0443688e-12
-9.9758842e-05
0.00018842311
-3.6150369e-12
-0.00012680761
0.00020313122
-4.2050976e-12
-0.00015486043
0.00021302768
-4.169285e-12
-0.00018343132
0.00021853952
-4.0014181e-12
-0.00021209723
0.00022000775
-3.8413882e-12
-0.00024047763
0.00021768221
-3.64296e-12
-0.00026821771
0.00021172902
-3.3945554e-12
-0.00029497504
0.00020224732
-3.0992535e-12
-0.00032040949
0.00018929203
-2.7592737e-12
-0.00034417594
0.00017289974
-2.3763958e-12
-0.00036591957
0.00015311548
-1.9513751e-12
-0.00038527335
0.00013001865
-1.4845886e-12
-0.00040185798
0.00010374737
-9.7631846e-13
-0.00041528427
7.4520683e-05
-4.2668792e-13
-0.00042515865
4.2658501e-05
1.7789856e-13
-0.00043109207
8.5990955e-06
8.4905577e-13
-0.00043271474
-2.7087163e-05
1.413381e-12
-0.00042969327
-6.3686369e-05
1.9836056e-12
-0.00042175606
-0.000100338
2.514527e-12
-0.00040872254
-0.00013603865
2.9892197e-12
-0.00039053731
-0.00016965775
3.4123753e-12
-0.00036730671
-0.00019996823
3.7618474e-12
-0.00033933443
-0.00022569522
3.9672217e-12
-0.00030715155
-0.00024558485
3.9693939e-12
-0.00027153468
-0.00025849293
3.8235318e-12
-0.0002335056
-0.00026348962
3.6801878e-12
-0.00019430633
-0.00025997199
3.6184536e-12
-0.000155346
-0.0002477711
3.579434e-12
-0.00011812001
-0.00022723687
3.3643907e-12
-8.410808e-05
-0.00019928338
2.6816674e-12
-5.4663036e-05
-0.00016538167
3.1151812e-12
-3.0905951e-05
-0.00012749553
8.2606231e-12
-1.3644078e-05
-8.7960179e-05
3.8674665e-12
-3.3228384e-06
-4.9324357e-05
-2.5825109e-11
-1.4285115e-05
2.8591006e-11
-4.3331261e-06
3.0366421e-05
-3.5912735e-11
-1.5626639e-05
8.2927544e-05
3.5892514e-11
-3.2415559e-05
0.00012723246
-3.3562155e-12
-5.3456497e-05
0.00016362037
-1.011253e-11
-7.7707021e-05
0.00019266202
-4.2450744e-12
-0.00010430384
0.00021501994
-3.8173537e-12
-0.00013253599
0.00023136337
-4.4609157e-12
-0.00016181627
0.00024230796
-4.4503848e-12
-0.00019165352
0.00024837678
-4.3033927e-12
-0.00022162729
0.00024998152
-4.1673424e-12
-0.00025136553
0.00024742045
-3.9952669e-12
-0.00028052586
0.00024088936
-3.7752232e-12
-0.00030878024
0.0002305017
-3.5080418e-12
-0.00033580277
0.00021631457
-3.1922749e-12
-0.00036126032
0.00019835728
-2.8278425e-12
-0.00038480542
0.00017666058
-2.4159828e-12
-0.00040607152
0.00015128475
-1.9587878e-12
-0.00042467042
0.00012234627
-1.4588203e-12
-0.00044019233
9.0042595e-05
-9.1474981e-13
-0.00045220915
5.4675316e-05
-3.1614477e-13
-0.00046028171
1.6671657e-05
3.4268086e-13
-0.00046397259
-2.3396287e-05
9.9430132e-13
-0.000462864
-6.4794963e-05
1.655882e-12
-0.00045658358
-0.00010661842
2.2824473e-12
-0.00044483707
-0.00014778516
2.838456e-12
-0.00042744809
-0.00018704674
3.3165842e-12
-0.00040440332
-0.00022301301
3.7218228e-12
-0.00037590001
-0.00025419854
4.0287165e-12
-0.00034239042
-0.00027909444
4.1648526e-12
-0.00030461605
-0.00029626731
4.0842307e-12
-0.00026362249
-0.00030448318
3.8626625e-12
-0.00022074599
-0.0003028485
3.6658619e-12
-0.00017756425
-0.00029095284
3.591313e-12
-0.00013580933
-0.00026899179
3.3994342e-12
-9.7247838e-05
-0.00023784487
2.5870728e-12
-6.3542141e-05
-0.00019908737
3.0266872e-12
-3.611314e-05
-0.00015492454
9.1009877e-12
-1.602786e-05
-0.00010804546
3.9625367e-12
-3.9296596e-06
-6.1422524e-05
-3.1099124e-11
-1.8214808e-05
3.3260475e-11
-4.4869097e-06
3.4853368e-05
-3.7223764e-11
-1.6176219e-05
9.4616815e-05
3.7179158e-11
-3.3547649e-05
0.00014460389
-3.507975e-12
-5.5310909e-05
0.00018538364
-1.0530639e-11
-8.0385163e-05
0.00021773628
-4.4751382e-12
-0.00010787795
0.00024251273
-4.0514153e-12
-0.00013705872
0.00026054415
-4.7391919e-12
-0.00016733008
0.00027257933
-4.753197e-12
-0.00019819941
0.0002792461
-4.6267725e-12
-0.00022925232
0.00028103443
-4.5117265e-12
-0.00026012899
0.00027829713
-4.3608544e-12
-0.00029050372
0.0002712641
-4.1639033e-12
-0.00032006778
0.00026006576
-3.9229161e-12
-0.00034851518
0.00024476197
-3.6344102e-12
-0.00037553116
0.00022537326
-3.2944559e-12
-0.00040078279
0.00020191221
-2.9010585e-12
-0.00042391175
0.00017441372
-2.4547839e-12
-0.00044452915
0.00014296368
-1.9594287e-12
-0.00046221292
0.00010772636
-1.4174329e-12
-0.00047650832
6.8970719e-05
-8.2415964e-13
-0.00048693271
2.7096043e-05
-1.747138e-13
-0.00049298574
-1.734326e-05
5.1321382e-13
-0.00049416613
-6.3614571e-05
1.2328993e-12
-0.00048999684
-0.00011078771
1.9502715e-12
-0.00048005943
-0.00015772257
2.6168035e-12
-0.00046403816
-0.00020306801
3.1923192e-12
-0.00044177322
-0.00024527796
3.6632351e-12
-0.00041332034
-0.00028265142
4.0288292e-12
-0.00037901183
-0.00031340295
4.2565393e-12
-0.00033951065
-0.00033576849
4.2777742e-12
-0.0002958464
-0.00034814743
4.076412e-12
-0.00024942035
-0.00034927455
3.7842316e-12
-0.00020196725
-0.00033840595
3.6027737e-12
-0.00015546683
-0.00031549221
3.3525615e-12
-0.00011200721
-0.0002813045
2.4014058e-12
-7.3614573e-05
-0.00023748
2.9125021e-12
-4.2075305e-05
-0.00018646382
1.0101695e-11
-1.8783228e-05
-0.00013133754
4.0923344e-12
-4.6398121e-06
-7.5565901e-05
-3.7232689e-11
-2.2854658e-05
3.8722144e-11
-4.5899936e-06
3.94434e-05
-3.8174163e-11
-1.6551668e-05
0.00010657845
3.7984688e-11
-3.4331267e-05
0.00016238349
-3.6906517e-12
-5.660751e-05
0.0002076599
-1.0902352e-11
-8.2272361e-05
0.00024340113
-4.7273513e-12
-0.00011041183
0.0002706522
-4.3119726e-12
-0.00014028101
0.00029041333
-5.0341557e-12
-0.00017127607
0.00030357439
-5.0703855e-12
-0.00020290597
0.00031087601
-4.9640697e-12
-0.00023476539
0.00031289385
-4.8683546e-12
-0.00026651002
0.00031004176
-4.7344915e-12
-0.00029783476
0.00030258884
-4.5528932e-12
-0.00032845492
0.00029068593
-4.3286958e-12
-0.0003580902
0.00027439725
-4.0608108e-12
-0.00038645105
0.00025373411
-3.7446099e-12
-0.00041322712
0.00022868829
-3.3746231e-12
-0.00043807755
0.00019926415
-2.9461737e-12
-0.00046062315
0.00016550928
-2.4589733e-12
-0.00048044082
0.00012754403
-1.9170352e-12
-0.00049706095
8.5590852e-05
-1.3218583e-12
-0.00050996878
4.0003877e-05
-6.7222408e-13
-0.00051861117
-8.7008696e-06
3.0220128e-14
-0.00052241042
-5.9815315e-05
7.7469262e-13
-0.00052078711
-0.00011241102
1.5491968e-12
-0.00051319389
-0.0001653158
2.3124461e-12
-0.00049916183
-0.00021710007
3.0067073e-12
-0.00047835986
-0.00026607993
3.5827345e-12
-0.00045066587
-0.00031034542
4.0197632e-12
-0.00041624525
-0.00034782357
4.306312e-12
-0.00037562843
-0.00037638531
4.3991352e-12
-0.00032977428
-0.00039400158
4.2481693e-12
-0.00028010239
-0.00039894644
3.9228498e-12
-0.00022847584
-0.0003900325
3.6422488e-12
-0.00017711994
-0.00036684811
3.2708095e-12
-0.00012847306
-0.00032995138
2.112051e-12
-8.498248e-05
-0.00028097058
2.7221018e-12
-4.8876813e-05
-0.0002225695
1.1256895e-11
-2.195998e-05
-0.00015825438
4.2649828e-12
-5.4694582e-06
-9.2056377e-05
-4.4345797e-11
-2.832416e-05
4.5099843e-11
-4.6404638e-06
4.4083903e-05
-3.8746047e-11
-1.6747084e-05
0.00011868503
3.8299336e-11
-3.4754463e-05
0.00018039088
-3.8971782e-12
-5.7325457e-05
0.0002302309
-1.1217191e-11
-8.3334962e-05
0.00026941064
-4.9956091e-12
-0.00011185404
0.00029917129
-4.5962331e-12
-0.00014212768
0.00032068697
-5.3442626e-12
-0.00017354859
0.0003349953
-5.398455e-12
-0.00020562969
0.00034295712
-5.3088172e-12
-0.00023797713
0.0003452413
-5.2288073e-12
-0.00027026493
0.00034232957
-5.1081898e-12
-0.00030221214
0.00033453605
-4.9356913e-12
-0.00033356263
0.00032203642
-4.7170782e-12
-0.00036406746
0.00030490209
-4.4549431e-12
-0.00039346943
0.00028313609
-4.1486257e-12
-0.00042148942
0.00025670829
-3.7943372e-12
-0.00044781444
0.00022558917
-3.3844378e-12
-0.00047208717
0.000189782
-2.9115861e-12
-0.00049389739
0.00014935426
-2.3743903e-12
-0.00051277595
0.00010446941
-1.7756268e-12
-0.00052819203
5.5419963e-05
-1.1175041e-12
-0.0005395555
2.6626001e-06
-3.9961797e-13
-0.00054622614
-5.3144667e-05
3.5504848e-13
-0.00054753199
-0.00011110517
1.1571616e-12
-0.00054279992
-0.00017004787
1.9811188e-12
-0.00053140114
-0.00022849884
2.7745636e-12
-0.0005128139
-0.00028466717
3.4689418e-12
-0.00048670387
-0.00033645545
4.0077534e-12
-0.00045301976
-0.00038150769
4.3613368e-12
-0.0004120965
-0.00041730858
4.500119e-12
-0.00036475215
-0.00044134593
4.3798781e-12
-0.00031235753
-0.00045134106
4.0410811e-12
-0.00025685298
-0.00044553705
3.6871168e-12
-0.00020068753
-0.00042301356
3.1684097e-12
-0.00014666643
-0.00038397249
1.7234075e-12
-9.7714181e-05
-0.00032992282
2.4281047e-12
-5.6588407e-05
-0.00026369528
1.2555979e-11
-2.5604425e-05
-0.00018923836
4.4728056e-12