/*--------------------------------*- C++ -*----------------------------------*\
  =========                 |
  \\      /  F ield         | OpenFOAM: The Open Source CFD Toolbox
   \\    /   O peration     | Website:  https://openfoam.org
    \\  /    A nd           | Version:  7
     \\/     M anipulation  |
\*---------------------------------------------------------------------------*/
FoamFile
{
    version     2.0;
    format      ascii;
    class       surfaceScalarField;
    location    "19";
    object      phi_0;
}
// * * * * * * * * * * * * * * * * * * * * * * * * * * * * * * * * * * * * * //

dimensions      [0 3 -1 0 0 0 0];

internalField   nonuniform List<scalar> 
45600
(
2.7514819e-07
-2.8220605e-07
-7.9218631e-11
4.0328265e-07
-1.2810945e-07
-2.4953979e-11
1.3250648e-07
2.7078257e-07
-6.7599416e-12
-5.6233245e-07
6.9484071e-07
-1.5471957e-12
-1.6392742e-06
1.0769385e-06
3.5327377e-12
-3.0274989e-06
1.3882183e-06
7.0005568e-12
-4.6522358e-06
1.624728e-06
9.2863737e-12
-6.4447481e-06
1.7925016e-06
1.0895895e-11
-8.3449452e-06
1.9001848e-06
1.2030913e-11
-1.030083e-05
1.9558711e-06
1.2783907e-11
-1.2266652e-05
1.9658086e-06
1.3215553e-11
-1.4200696e-05
1.9340299e-06
1.3358941e-11
-1.6063223e-05
1.8625127e-06
1.322454e-11
-1.7814889e-05
1.7516521e-06
1.2808242e-11
-1.9415806e-05
1.6009032e-06
1.2098453e-11
-2.0825315e-05
1.4094971e-06
1.1081688e-11
-2.2002489e-05
1.1771623e-06
9.7470562e-12
-2.2907297e-05
9.0479889e-07
8.0887544e-12
-2.3502368e-05
5.9506325e-07
6.1228551e-12
-2.3755201e-05
2.5282774e-07
3.8720926e-12
-2.3640671e-05
-1.1453362e-07
1.3848791e-12
-2.3143601e-05
-4.9707052e-07
-1.2718604e-12
-2.2261258e-05
-8.8234133e-07
-4.0163994e-12
-2.1005417e-05
-1.255836e-06
-6.7422421e-12
-1.9403801e-05
-1.6016091e-06
-9.3104436e-12
-1.7500649e-05
-1.903143e-06
-1.1584384e-11
-1.5356229e-05
-2.1444079e-06
-1.3426772e-11
-1.3045185e-05
-2.3110313e-06
-1.4730175e-11
-1.0653695e-05
-2.3914769e-06
-1.5426625e-11
-8.2755659e-06
-2.378118e-06
-1.5453808e-11
-6.0074561e-06
-2.2680991e-06
-1.4701605e-11
-3.9435364e-06
-2.0639073e-06
-1.3035562e-11
-2.1698733e-06
-1.7736481e-06
-1.0477594e-11
-7.5867378e-07
-1.4111882e-06
-7.4103332e-12
2.3806296e-07
-9.9674138e-07
-4.5642255e-12
7.9640319e-07
-5.5836317e-07
-2.5556274e-12
9.2914547e-07
-1.3276158e-07
3.0446847e-13
7.0548107e-07
2.236855e-07
5.778874e-12
2.9041643e-07
4.1512842e-07
1.2981567e-11
2.9046954e-07
8.4126566e-12
1.3286381e-07
-4.1504738e-07
-2.2361004e-11
-3.0170786e-07
3.0647768e-07
-1.4199109e-11
-1.6153672e-06
1.5844546e-06
-1.2397869e-11
-3.8745438e-06
2.9540307e-06
-1.3165317e-11
-7.0069781e-06
4.209387e-06
-1.4356043e-11
-1.0879127e-05
5.2603824e-06
-1.5910255e-11
-1.533423e-05
6.0798491e-06
-1.7341736e-11
-2.0214723e-05
6.6730127e-06
-1.8366128e-11
-2.5372413e-05
7.0578936e-06
-1.8936657e-11
-3.0671245e-05
7.2547219e-06
-1.9067074e-11
-3.598613e-05
7.2807114e-06
-1.8777147e-11
-4.1200044e-05
7.1479601e-06
-1.8087947e-11
-4.620083e-05
6.8633146e-06
-1.7016403e-11
-5.0878629e-05
6.4294641e-06
-1.557322e-11
-5.5124468e-05
5.8467538e-06
-1.3764876e-11
-5.8830309e-05
5.1153464e-06
-1.1596976e-11
-6.1890602e-05
4.2374611e-06
-9.0778229e-12
-6.4205281e-05
3.2194802e-06
-6.2418813e-12
-6.5683973e-05
2.0737552e-06
-3.1155801e-12
-6.6251102e-05
8.1995186e-07
2.3498947e-13
-6.5851713e-05
-5.1393021e-07
3.7290226e-12
-6.4456712e-05
-1.8920829e-06
7.3195796e-12
-6.2068628e-05
-3.2704401e-06
1.0849462e-11
-5.8725553e-05
-4.5989289e-06
1.4183552e-11
-5.4503911e-05
-5.823273e-06
1.7190794e-11
-4.9519154e-05
-6.8879246e-06
1.9744545e-11
-4.3924088e-05
-7.7395013e-06
2.1748129e-11
-3.7904592e-05
-8.330554e-06
2.3124826e-11
-3.1672726e-05
-8.6233682e-06
2.3772855e-11
-2.5457397e-05
-8.5934722e-06
2.3540366e-11
-1.949298e-05
-8.2325441e-06
2.2320812e-11
-1.4006407e-05
-7.5505138e-06
2.0272574e-11
-9.20323e-06
-6.5768559e-06
1.7898353e-11
-5.2530165e-06
-5.361412e-06
1.5636018e-11
-2.2741807e-06
-3.975562e-06
1.3137721e-11
-3.1747887e-07
-2.5150534e-06
9.1784663e-12
6.5688687e-07
-1.1071728e-06
2.9951248e-12
8.0354394e-07
7.6910746e-08
-9.3997772e-13
4.1774193e-07
8.0079655e-07
1.1122474e-12
7.0825582e-07
-6.7220937e-13
-2.7358306e-07
-1.4145222e-07
-1.2470895e-11
-1.6274123e-06
1.6603151e-06
-7.2723298e-12
-4.2891716e-06
4.2462231e-06
-8.6002564e-12
-8.2741804e-06
6.9390475e-06
-7.1855992e-12
-1.3473559e-05
9.4087712e-06
-5.2253585e-12
-1.9707416e-05
1.1494244e-05
-4.1661402e-12
-2.6763933e-05
1.3136369e-05
-3.4833996e-12
-3.4424237e-05
1.4333319e-05
-2.9122656e-12
-4.2475659e-05
1.5109317e-05
-2.4247134e-12
-5.0716872e-05
1.5495936e-05
-1.9886791e-12
-5.8958113e-05
1.5521953e-05
-1.5701076e-12
-6.7018922e-05
1.5208769e-05
-1.1519991e-12
-7.4725211e-05
1.4569603e-05
-7.2853297e-13
-8.1906894e-05
1.3611145e-05
-2.9880079e-13
-8.8396881e-05
1.2336738e-05
1.3303236e-13
-9.4031843e-05
1.0750306e-05
5.6012252e-13
-9.8654886e-05
8.8605006e-06
9.7734827e-13
-0.00010212001
6.6845989e-06
1.3677712e-12
-0.00010429807
4.2518144e-06
1.7226049e-12
-0.0001050839
1.6057718e-06
2.0316212e-12
-0.0001044037
-1.1941336e-06
2.2952318e-12
-0.0001022228
-4.0729934e-06
2.5072844e-12
-9.8552247e-05
-6.9409952e-06
2.6628679e-12
-9.3454216e-05
-9.6969657e-06
2.7595585e-12
-8.7045174e-05
-1.2232321e-05
2.792336e-12
-7.949641e-05
-1.4436695e-05
2.7531973e-12
-7.1031365e-05
-1.6204554e-05
2.6589528e-12
-6.1919494e-05
-1.7442432e-05
2.5790863e-12
-5.2466591e-05
-1.8076277e-05
2.6080817e-12
-4.3001761e-05
-1.8058305e-05
2.7473305e-12
-3.3861484e-05
-1.7372821e-05
2.7978221e-12
-2.537139e-05
-1.6040613e-05
2.5029963e-12
-1.7826457e-05
-1.4121809e-05
2.0005805e-12
-1.147029e-05
-1.1717607e-05
2.0709962e-12
-6.4739476e-06
-8.9719102e-06
3.4316241e-12
-2.9142099e-06
-6.0747499e-06
5.319645e-12
-7.5137924e-07
-3.2699381e-06
5.3974506e-12
1.9425672e-07
-8.687045e-07
3.4680894e-12
2.6542021e-07
7.2955482e-07
2.8025581e-12
9.7368204e-07
4.8692658e-13
-7.4580676e-07
6.0436725e-07
-1.2757223e-11
-3.1794379e-06
4.093948e-06
-1.326412e-12
-7.3456177e-06
8.4124098e-06
-6.796629e-12
-1.3162151e-05
1.2755587e-05
-6.1561635e-12
-2.0454375e-05
1.6701e-05
-3.5415255e-12
-2.8990553e-05
2.0030426e-05
-2.2148273e-12
-3.8511079e-05
2.2656896e-05
-1.3428858e-12
-4.8749107e-05
2.4571348e-05
-5.6063375e-13
-5.9442608e-05
2.5802819e-05
8.6777403e-14
-7.0339645e-05
2.6392972e-05
6.1352629e-13
-8.1199136e-05
2.6381441e-05
1.05752e-12
-9.1789216e-05
2.5798847e-05
1.4385378e-12
-0.00010188492
2.4665307e-05
1.763978e-12
-0.00011126649
2.2992707e-05
2.0354474e-12
-0.00011971908
2.0789319e-05
2.2499968e-12
-0.00012703444
1.8065667e-05
2.4019466e-12
-0.00013301465
1.4840705e-05
2.4871997e-12
-0.0001374777
1.1147642e-05
2.4949002e-12
-0.00014026473
7.0388411e-06
2.4163995e-12
-0.00014124835
2.589387e-06
2.2526387e-12
-0.0001403413
-2.1011878e-06
2.0203913e-12
-0.00013750529
-6.909012e-06
1.6984954e-12
-0.00013275844
-1.1687851e-05
1.3131064e-12
-0.00012618136
-1.6274054e-05
8.9581616e-13
-0.00011792067
-2.0493013e-05
4.7674129e-13
-0.0001081895
-2.4167861e-05
6.7733029e-14
-9.7264331e-05
-2.712973e-05
-3.3670623e-13
-8.5477755e-05
-2.9229011e-05
-7.1114701e-13
-7.3207171e-05
-3.0346868e-05
-9.3062435e-13
-6.0859327e-05
-3.0406153e-05
-7.9958925e-13
-4.8851282e-05
-2.9380864e-05
-2.7451168e-13
-3.7588404e-05
-2.7303481e-05
2.9385195e-13
-2.7440373e-05
-2.4269835e-05
3.6493706e-13
-1.8716193e-05
-2.0441809e-05
-1.6791307e-14
-1.1639286e-05
-1.6048864e-05
2.1873645e-13
-6.3235998e-06
-1.1390468e-05
2.1230395e-12
-2.7516294e-06
-6.8418888e-06
4.8564316e-12
-7.5720948e-07
-2.8630777e-06
5.7502677e-12
-9.5650794e-09
-1.8109641e-08
4.0630435e-12
9.6410093e-07
2.925142e-12
-1.2278836e-06
1.8322655e-06
-1.4316774e-11
-4.7877653e-06
7.6538261e-06
4.6369537e-12
-1.0520765e-05
1.4145415e-05
-5.9458908e-12
-1.8212965e-05
2.0447794e-05
-7.057849e-12
-2.7601842e-05
2.6089882e-05
-4.6824588e-12
-3.8393364e-05
3.0821953e-05
-3.9608838e-12
-5.0279203e-05
3.4542738e-05
-3.6272041e-12
-6.2949956e-05
3.7242104e-05
-3.1681155e-12
-7.6103208e-05
3.8956073e-05
-2.7136003e-12
-8.9446939e-05
3.9736705e-05
-2.2909692e-12
-0.00010269965
3.9634158e-05
-1.8742918e-12
-0.00011558878
3.8687969e-05
-1.4529424e-12
-0.00012784872
3.6925252e-05
-1.0254866e-12
-0.0001392198
3.4363782e-05
-5.9204027e-13
-0.00014944868
3.1018201e-05
-1.5558688e-13
-0.00015829087
2.6907857e-05
2.7862774e-13
-0.00016551525
2.2065078e-05
7.0631321e-13
-0.00017091053
1.6542919e-05
1.1187661e-12
-0.00017429332
1.0421625e-05
1.5049254e-12
-0.0001755172
3.8132603e-06
1.8547734e-12
-0.00017448226
-3.1361293e-06
2.1595527e-12
-0.00017114448
-1.0246802e-05
2.3978932e-12
-0.00016552401
-1.7308323e-05
2.5641892e-12
-0.00015771187
-2.4086204e-05
2.6658609e-12
-0.00014787404
-3.0330852e-05
2.7282951e-12
-0.0001362524
-3.57895e-05
2.7760762e-12
-0.00012316179
-4.0220343e-05
2.7930789e-12
-0.00010898261
-4.3408201e-05
2.7117448e-12
-9.4148743e-05
-4.5180739e-05
2.4986503e-12
-7.9130812e-05
-4.5424095e-05
2.3036105e-12
-6.4414969e-05
-4.4096719e-05
2.452455e-12
-5.0478118e-05
-4.1240334e-05
3.0822461e-12
-3.7760605e-05
-3.6987332e-05
3.7087213e-12
-2.6637865e-05
-3.1564534e-05
3.4937186e-12
-1.7392658e-05
-2.5294084e-05
2.3973345e-12
-1.0189718e-05
-1.859345e-05
1.9535947e-12
-5.0547162e-06
-1.1976919e-05
3.6840677e-12
-1.8598606e-06
-6.0579122e-06
4.8665506e-12
-3.2224283e-07
-1.5557133e-06
1.2092995e-12
6.4184204e-07
5.6953911e-12
-1.6930388e-06
3.5253214e-06
-1.6847108e-11
-6.3709106e-06
1.2331689e-05
1.0026193e-11
-1.367037e-05
2.1444881e-05
-5.0004131e-12
-2.3232212e-05
3.0009643e-05
-7.180875e-12
-3.469248e-05
3.7550155e-05
-4.4690578e-12
-4.7686028e-05
4.3815505e-05
-3.9101175e-12
-6.1852617e-05
4.870933e-05
-3.7933277e-12
-7.6841996e-05
5.2231487e-05
-3.4355416e-12
-9.2316614e-05
5.4430694e-05
-3.0362645e-12
-0.00010795184
5.5371933e-05
-2.6501756e-12
-0.0001234344
5.5116714e-05
-2.2543877e-12
-0.00013846004
5.3713618e-05
-1.8417963e-12
-0.00015273158
5.1196793e-05
-1.413288e-12
-0.00016595802
4.7590215e-05
-9.7015954e-13
-0.00017785547
4.2915654e-05
-5.1456007e-13
-0.00018815019
3.7202574e-05
-5.2108339e-14
-0.00019658361
3.0498491e-05
4.116091e-13
-0.00020291931
2.2878621e-05
8.6917152e-13
-0.00020695157
1.4453875e-05
1.3111773e-12
-0.00020851487
5.3765549e-06
1.7270124e-12
-0.00020749403
-4.1569725e-06
2.1040391e-12
-0.00020383411
-1.3906722e-05
2.4307245e-12
-0.0001975496
-2.3592841e-05
2.6859748e-12
-0.00018873195
-3.2903857e-05
2.8560149e-12
-0.00017755486
-4.150795e-05
2.9515614e-12
-0.00016427632
-4.9068047e-05
3.0193338e-12
-0.00014923674
-5.5259932e-05
3.1119762e-12
-0.00013285233
-5.9792611e-05
3.2101592e-12
-0.00011560331
-6.2429763e-05
3.1812111e-12
-9.801657e-05
-6.3010841e-05
2.9094863e-12
-8.0643145e-05
-6.1470159e-05
2.5640037e-12
-6.403111e-05
-5.7852389e-05
2.6302626e-12
-4.8695261e-05
-5.2323189e-05
3.3643047e-12
-3.5085442e-05
-4.517434e-05
4.1283246e-12
-2.3555782e-05
-3.6823727e-05
3.8307923e-12
-1.43374e-05
-2.7811844e-05
2.8622348e-12
-7.5173053e-06
-1.8797049e-05
3.4907901e-12
-3.0266838e-06
-1.0548542e-05
3.7438384e-12
-6.4248872e-07
-3.9398936e-06
-1.3358184e-12
-6.5748813e-10
8.5774622e-12
-2.1327621e-06
5.6581032e-06
-1.963981e-11
-7.8904246e-06
1.8089338e-05
1.4799575e-11
-1.6716025e-05
3.0270486e-05
-4.2677471e-12
-2.8103427e-05
4.1397053e-05
-7.2460738e-12
-4.1581681e-05
5.1028414e-05
-4.0364279e-12
-5.6709515e-05
5.8943343e-05
-3.5127004e-12
-7.3072366e-05
6.5072185e-05
-3.5235939e-12
-9.0279839e-05
6.9438964e-05
-3.2139099e-12
-0.00010796273
7.2113583e-05
-2.8413238e-12
-0.00012576934
7.3178553e-05
-2.4802515e-12
-0.00014336154
7.2708911e-05
-2.1069092e-12
-0.00016041102
7.0763095e-05
-1.7161819e-12
-0.00017659669
6.7382469e-05
-1.3108936e-12
-0.00019160368
6.25972e-05
-8.9214823e-13
-0.00020512424
5.6436215e-05
-4.6062724e-13
-0.00021686093
4.8939258e-05
-2.1324169e-14
-0.00022653178
4.0169343e-05
4.1889564e-13
-0.00023387745
3.0224286e-05
8.5178357e-13
-0.00023866984
1.9246261e-05
1.2678808e-12
-0.00024072192
7.4286342e-06
1.6567343e-12
-0.00023989824
-4.9806599e-06
2.0078118e-12
-0.00023612547
-1.7679501e-05
2.3209614e-12
-0.00022940267
-3.031564e-05
2.5774905e-12
-0.00021981029
-4.249625e-05
2.75557e-12
-0.00020751712
-5.3801122e-05
2.8341456e-12
-0.00019278449
-6.3800688e-05
2.8256947e-12
-0.00017596636
-7.2078062e-05
2.8074711e-12
-0.00015750463
-7.8254352e-05
2.8832031e-12
-0.00013791846
-8.2015935e-05
3.0498704e-12
-0.00011778737
-8.3141923e-05
3.1046366e-12
-9.7727858e-05
-8.1529675e-05
2.8293895e-12
-7.8364196e-05
-7.7216064e-05
2.4053722e-12
-6.0294978e-05
-7.0392428e-05
2.4556713e-12
-4.4057524e-05
-6.1411804e-05
3.2253483e-12
-3.009314e-05
-5.0788099e-05
3.8448153e-12
-1.8716515e-05
-3.9188457e-05
3.7477918e-12
-1.0092693e-05
-2.7420887e-05
4.4294873e-12
-4.2251888e-06
-1.6416065e-05
3.337185e-12
-9.5846513e-07
-7.2066112e-06
-4.5070856e-12
-9.5913092e-07
1.0656672e-11
-2.5448367e-06
8.2029625e-06
-2.2433504e-11
-9.3280519e-06
2.4872535e-05
1.9059947e-11
-1.9613704e-05
4.0556143e-05
-3.7974689e-12
-3.2754099e-05
5.4537457e-05
-7.5137693e-12
-4.8171877e-05
6.6446196e-05
-3.8380977e-12
-6.5348703e-05
7.6120172e-05
-3.3604096e-12
-8.3815299e-05
8.3538784e-05
-3.5106587e-12
-0.00010314229
8.8765962e-05
-3.2665443e-12
-0.0001229318
9.1903096e-05
-2.9370584e-12
-0.00014280968
9.3056435e-05
-2.6126636e-12
-0.00016241868
9.2317911e-05
-2.2668101e-12
-0.00018141292
8.9757334e-05
-1.8954351e-12
-0.00019945411
8.5423664e-05
-1.503744e-12
-0.00021620988
7.9352965e-05
-1.0939382e-12
-0.00023135427
7.1580611e-05
-6.6593467e-13
-0.00024457062
6.2155598e-05
-2.2211699e-13
-0.00025555641
5.1155137e-05
2.3125796e-13
-0.00026403023
3.86981e-05
6.8517286e-13
-0.00026974018
2.4956211e-05
1.1283607e-12
-0.00027247377
1.0162223e-05
1.5461974e-12
-0.00027206875
-5.3856912e-06
1.923026e-12
-0.00026842439
-2.1323868e-05
2.2661064e-12
-0.0002615132
-3.7226828e-05
2.5631684e-12
-0.00025139182
-5.2617642e-05
2.8080735e-12
-0.00023821053
-6.6982412e-05
2.9741022e-12
-0.00022222044
-7.9790777e-05
3.0206792e-12
-0.0002037768
-9.0521711e-05
2.9482786e-12
-0.00018333721
-9.8693947e-05
2.8606223e-12
-0.00016145346
-0.0001038997
2.9224374e-12
-0.00013875576
-0.00010583962
3.1571603e-12
-0.00011592924
-0.0001043562
3.2969917e-12
-9.3682744e-05
-9.9462553e-05
3.04962e-12
-7.2711824e-05
-9.1363359e-05
2.6383018e-12
-5.365818e-05
-8.0465468e-05
2.6811204e-12
-3.7069384e-05
-6.7376903e-05
3.1862362e-12
-2.3362919e-05
-5.2894913e-05
3.8559106e-12
-1.2798783e-05
-3.7985023e-05
5.4557215e-12
-5.4646711e-06
-2.3750188e-05
3.470987e-12
-1.2772147e-06
-1.1394065e-05
-7.6608363e-12
-2.236357e-06
1.2981072e-11
-2.928226e-06
1.1131214e-05
-2.5145746e-11
-1.0672751e-05
3.2617037e-05
2.2884758e-11
-2.2334268e-05
5.2217664e-05
-3.4921298e-12
-3.713284e-05
6.9336038e-05
-7.8768706e-12
-5.4389571e-05
8.3702931e-05
-3.7539072e-12
-7.3511567e-05
9.5242172e-05
-3.3049964e-12
-9.3976649e-05
0.00010400387
-3.5772911e-12
-0.00011531869
0.00011010801
-3.3921274e-12
-0.0001371143
0.00011369871
-3.1043093e-12
-0.0001589711
0.00011491324
-2.8179573e-12
-0.00018051787
0.00011386468
-2.502225e-12
-0.00020139687
0.00011063633
-2.152008e-12
-0.00022125852
0.00010528531
-1.7735107e-12
-0.00023975859
9.7853037e-05
-1.3705348e-12
-0.00025655788
8.8379904e-05
-9.4447612e-13
-0.00027132426
7.6921976e-05
-4.9552795e-13
-0.00028373689
6.3567764e-05
-2.7372178e-14
-0.00029349246
4.8453663e-05
4.5289817e-13
-0.00030031319
3.177694e-05
9.3459949e-13
-0.00030395649
1.3805523e-05
1.3983128e-12
-0.00030422609
-5.1160944e-06
1.8180476e-12
-0.00030098409
-2.4565872e-05
2.2062588e-12
-0.00029416444
-4.4046488e-05
2.5367667e-12
-0.00028378616
-6.2995927e-05
2.8214418e-12
-0.00026996627
-8.0802306e-05
3.066292e-12
-0.00025293085
-9.6826203e-05
3.2397218e-12
-0.00023302276
-0.0001104298
3.2768145e-12
-0.00021070427
-0.00012101245
3.1558818e-12
-0.00018655248
-0.00012805149
3.0005918e-12
-0.0001612462
-0.00013114591
3.0313017e-12
-0.00013554286
-0.00013005954
3.2874882e-12
-0.00011024581
-0.0001247596
3.457798e-12
-8.6163051e-05
-0.00011544612
3.252146e-12
-6.4060592e-05
-0.00010256794
2.8788102e-12
-4.4614543e-05
-8.6822967e-05
2.742425e-12
-2.8367217e-05
-6.9142242e-05
3.4713749e-12
-1.5692448e-05
-5.0659791e-05
6.0549437e-12
-6.7749289e-06
-3.266771e-05
3.7256225e-12
-1.6069696e-06
-1.6562017e-05
-1.0630019e-11
-3.8433421e-06
1.5456901e-11
-3.2814121e-06
1.4412654e-05
-2.7726817e-11
-1.1914844e-05
4.1250442e-05
2.6306752e-11
-2.48534e-05
6.5156224e-05
-3.304481e-12
-4.1196465e-05
8.5679112e-05
-8.2860881e-12
-6.0171336e-05
0.00010267781
-3.731951e-12
-8.1115639e-05
0.00011618648
-3.2954293e-12
-0.000103458
0.00012634623
-3.6681565e-12
-0.00012669886
0.00013334888
-3.5299241e-12
-0.00015039294
0.00013739279
-3.2765977e-12
-0.0001741338
0.0001386541
-3.0249174e-12
-0.00019754106
0.00013727195
-2.7399788e-12
-0.00022025038
0.00013334565
-2.4144372e-12
-0.00024190631
0.00012694124
-2.053246e-12
-0.00026215799
0.00011810472
-1.6603059e-12
-0.00028065755
0.00010687947
-1.2390546e-12
-0.00029706096
9.3325381e-05
-7.9091336e-13
-0.0003110311
7.7537901e-05
-3.1732647e-13
-0.00032224299
5.9665551e-05
1.7799741e-13
-0.00033039097
3.9924922e-05
6.8768605e-13
-0.00033519789
1.8612438e-05
1.1880083e-12
-0.00033642641
-3.8875738e-06
1.6432727e-12
-0.00033389159
-2.7100693e-05
2.1094702e-12
-0.00032747661
-5.0461475e-05
2.4940766e-12
-0.0003171485
-7.3324043e-05
2.8029546e-12
-0.00030297507
-9.4975741e-05
3.0638735e-12
-0.0002851409
-0.00011466038
3.2962554e-12
-0.00026396069
-0.00013161001
3.4704799e-12
-0.00023988766
-0.00014508547
3.499024e-12
-0.00021351448
-0.00015442468
3.3385315e-12
-0.00018556407
-0.00015909633
3.13047e-12
-0.0001568685
-0.00015875512
3.1297767e-12
-0.00012833512
-0.00015329298
3.371398e-12
-0.00010090102
-0.00014288021
3.5353934e-12
-7.547876e-05
-0.0001279902
3.3019487e-12
-5.289859e-05
-0.00010940315
2.757859e-12
-3.3853509e-05
-8.8187333e-05
3.1726909e-12
-1.8853906e-05
-6.5659399e-05
6.3983987e-12
-8.1978884e-06
-4.3323729e-05
3.8093213e-12
-1.9610756e-06
-2.2798816e-05
-1.3748612e-11
-5.8044363e-06
1.8148461e-11
-3.6019911e-06
1.8014676e-05
-3.0135977e-11
-1.3043766e-05
5.0692188e-05
2.9331535e-11
-2.7147023e-05
7.9259484e-05
-3.2154725e-12
-4.4903478e-05
0.00010343558
-8.7329029e-12
-6.5456208e-05
0.00012323054
-3.7792497e-12
-8.8080217e-05
0.00013881049
-3.345702e-12
-0.00011216002
0.00015042603
-3.8033943e-12
-0.00013716685
0.00015835572
-3.7049325e-12
-0.00016263757
0.00016286351
-3.4815436e-12
-0.00018815595
0.00016417248
-3.2610982e-12
-0.00021333708
0.00016245309
-3.0059812e-12
-0.00023781502
0.0001578236
-2.7074072e-12
-0.0002612336
0.00015035982
-2.3681169e-12
-0.0002832404
0.00014011152
-1.9894377e-12
-0.00030348346
0.00012712252
-1.5747828e-12
-0.00032161056
0.00011145248
-1.1283171e-12
-0.00033727081
9.3198155e-05
-6.5219897e-13
-0.00035011843
7.2513173e-05
-1.491604e-13
-0.00035981874
4.9625232e-05
3.7560832e-13
-0.0003660565
2.4850191e-05
8.9709011e-13
-0.00036854737
-1.3967052e-06
1.3645908e-12
-0.00036705029
-2.8597778e-05
1.9400151e-12
-0.00036138605
-5.6125712e-05
2.4165078e-12
-0.0003514552
-8.3254903e-05
2.794929e-12
-0.00033725956
-0.00010917139
3.0833813e-12
-0.00031892392
-0.00013299602
3.3122959e-12
-0.00029671618
-0.00015381775
3.5185643e-12
-0.00027106324
-0.00017073841
3.6772176e-12
-0.00024255924
-0.00018292868
3.6834143e-12
-0.00021196258
-0.000189693
3.4849912e-12
-0.0001801786
-0.0001905391
3.2451601e-12
-0.000148226
-0.0001852456
3.2335179e-12
-0.00011718703
-0.00017391918
3.4589486e-12
-8.8144681e-05
-0.00015703255
3.4912148e-12
-6.2112403e-05
-0.00013543543
2.9244077e-12
-3.9964592e-05
-0.00011033515
3.1364342e-12
-2.2376557e-05
-8.3247442e-05
6.8235304e-12
-9.7822327e-06
-5.5918056e-05
3.7799056e-12
-2.3545861e-06
-3.0226444e-05
-1.7244581e-11
-8.1590435e-06
2.1174283e-11
-3.886723e-06
2.1901432e-05
-3.2332921e-11
-1.4047502e-05
6.0852936e-05
3.1951702e-11
-2.918969e-05
9.4401675e-05
-3.2062468e-12
-4.8211426e-05
0.00012245732
-9.2001689e-12
-7.0182348e-05
0.00014520147
-3.8906334e-12
-9.4322803e-05
0.00016295095
-3.4557111e-12
-0.00011997914
0.00017608238
-3.9854083e-12
-0.0001465982
0.00018497478
-3.922011e-12
-0.00017370324
0.00018996855
-3.7263414e-12
-0.00020087252
0.00019134177
-3.5345845e-12
-0.00022772117
0.00018930174
-3.307024e-12
-0.00025388645
0.00018398888
-3.0352234e-12
-0.00027901655
0.00017548992
-2.7213768e-12
-0.00030276255
0.00016385752
-2.3634054e-12
-0.00032477327
0.00014913324
-1.9612283e-12
-0.00034469261
0.00013137182
-1.5184356e-12
-0.00036215929
0.00011066484
-1.0395319e-12
-0.00037680884
8.7162723e-05
-5.297723e-13
-0.000388278
6.1094391e-05
5.0215937e-15
-0.00039621194
3.278413e-05
5.7072373e-13
-0.00040027434
2.6656868e-06
1.1806999e-12
-0.00040016232
-2.8709801e-05
1.7061563e-12
-0.00039562317
-6.0664862e-05
2.2411496e-12
-0.00038647734
-9.2400737e-05
2.7260806e-12
-0.00037264365
-0.00012300508
3.1098109e-12
-0.00035416721
-0.00015147247
3.3782814e-12
-0.00033124741
-0.00017673756
3.5689928e-12
-0.00030426296
-0.00019772287
3.734139e-12
-0.00027378974
-0.0002134019
3.8507529e-12
-0.00024060675
-0.00022287598
3.8057822e-12
-0.00020568539
-0.00022546047
3.5630036e-12
-0.00017015832
-0.00022077267
3.3267887e-12
-0.0001352668
-0.00020881071
3.3546006e-12
-0.00010228852
-0.00019001083
3.4361256e-12
-7.2452544e-05
-0.00016527141
2.9491367e-12
-4.6851107e-05
-0.00013593659
3.1955809e-12
-2.6360135e-05
-0.00010373842
7.4498362e-12
-1.1579901e-05
-7.0698293e-05
3.7708009e-12
-2.8031825e-06
-3.9003141e-05
-2.1236702e-11
-1.096225e-05
2.4626677e-11
-4.1317835e-06
2.6033249e-05
-3.4276338e-11
-1.491292e-05
7.1634039e-05
3.4149629e-11
-3.0954734e-05
0.00011044349
-3.260799e-12
-5.1076768e-05
0.00014257937
-9.6670527e-12
-7.428672e-05
0.00016841142
-4.0533208e-12
-9.9758803e-05
0.00018842304
-3.6170386e-12
-0.00012680756
0.00020313114
-4.2068587e-12
-0.00015486037
0.0002130276
-4.1740543e-12
-0.00018343126
0.00021853943
-4.0049593e-12
-0.00021209715
0.00022000767
-3.840985e-12
-0.00024047754
0.00021768213
-3.6391864e-12
-0.00026821761
0.00021172895
-3.3917463e-12
-0.00029497494
0.00020224726
-3.1029072e-12
-0.00032040939
0.00018929197
-2.7700984e-12
-0.00034417583
0.00017289969
-2.3893353e-12
-0.00036591945
0.00015311544
-1.9598193e-12
-0.00038527323
0.00013001862
-1.4841954e-12
-0.00040185786
0.00010374735
-9.6842817e-13
-0.00041528415
7.4520677e-05
-4.2045034e-13
-0.00042515853
4.2658507e-05
1.6882648e-13
-0.00043109195
8.5991128e-06
8.1681677e-13
-0.00043271462
-2.7087135e-05
1.3680939e-12
-0.00042969316
-6.3686329e-05
1.9557818e-12
-0.00042175595
-0.00010033795
2.5337951e-12
-0.00040872243
-0.00013603859
3.043896e-12
-0.00039053721
-0.00016965769
3.4318441e-12
-0.00036730661
-0.00019996816
3.6769239e-12
-0.00033933434
-0.00022569515
3.8221865e-12
-0.00030715148
-0.00024558477
3.927654e-12
-0.00027153461
-0.00025849285
3.965863e-12
-0.00023350553
-0.00026348954
3.8333207e-12
-0.00019430628
-0.00025997192
3.5605833e-12
-0.00015534596
-0.00024777104
3.3999567e-12
-0.00011811998
-0.00022723681
3.3408928e-12
-8.4108058e-05
-0.00019928333
2.8086146e-12
-5.466302e-05
-0.00016538163
3.1910034e-12
-3.0905942e-05
-0.00012749551
8.2366365e-12
-1.3644074e-05
-8.7960165e-05
3.8349609e-12
-3.3228374e-06
-4.9324351e-05
-2.5817409e-11
-1.4285115e-05
2.8618448e-11
-4.333125e-06
3.036641e-05
-3.5924473e-11
-1.5626633e-05
8.2927511e-05
3.5902812e-11
-3.2415546e-05
0.00012723241
-3.3674887e-12
-5.3456477e-05
0.00016362031
-1.0115285e-11
-7.7706993e-05
0.00019266194
-4.255244e-12
-0.0001043038
0.00021501985
-3.8211697e-12
-0.00013253594
0.00023136328
-4.4609995e-12
-0.00016181621
0.00024230787
-4.4537257e-12
-0.00019165346
0.00024837668
-4.3091738e-12
-0.00022162721
0.00024998143
-4.1727166e-12
-0.00025136545
0.00024742037
-3.9968811e-12
-0.00028052577
0.00024088928
-3.7723297e-12
-0.00030878014
0.00023050163
-3.5050226e-12
-0.00033580267
0.0002163145
-3.195241e-12
-0.00036126021
0.00019835723
-2.8391703e-12
-0.00038480531
0.00017666054
-2.4327604e-12
-0.0004060714
0.00015128472
-1.9735498e-12
-0.00042467031
0.00012234626
-1.4627921e-12
-0.00044019222
9.0042589e-05
-9.0488488e-13
-0.00045220903
5.4675322e-05
-3.0123765e-13
-0.0004602816
1.6671676e-05
3.4383784e-13
-0.00046397247
-2.3396256e-05
9.657066e-13
-0.00046286388
-6.479492e-05
1.6030078e-12
-0.00045658347
-0.00010661837
2.240228e-12
-0.00044483697
-0.0001477851
2.8479669e-12
-0.00042744799
-0.00018704667
3.3734999e-12
-0.00040440322
-0.00022301293
3.7521603e-12
-0.00037589992
-0.00025419845
3.959749e-12
-0.00034239034
-0.00027909435
4.044736e-12
-0.00030461598
-0.00029626722
4.0625174e-12
-0.00026362243
-0.0003044831
3.9798374e-12
-0.00022074593
-0.00030284842
3.7575985e-12
-0.00017756421
-0.00029095277
3.5321956e-12
-0.0001358093
-0.00026899172
3.3109529e-12
-9.7247814e-05
-0.00023784482
2.5991053e-12
-6.3542125e-05
-0.00019908732
3.0929002e-12
-3.611313e-05
-0.00015492451
9.1330829e-12
-1.6027855e-05
-0.00010804544
3.9567327e-12
-3.9296586e-06
-6.1422515e-05
-3.1102044e-11
-1.8214806e-05
3.327973e-11
-4.4869087e-06
3.4853356e-05
-3.7238645e-11
-1.6176213e-05
9.4616779e-05
3.7189987e-11
-3.3547637e-05
0.00014460384
-3.516861e-12
-5.531089e-05
0.00018538357
-1.0529498e-11
-8.0385136e-05
0.00021773619
-4.4858709e-12
-0.00010787791
0.00024251263
-4.0598477e-12
-0.00013705868
0.00026054405
-4.7421544e-12
-0.00016733003
0.00027257923
-4.7555764e-12
-0.00019819935
0.00027924601
-4.6312953e-12
-0.00022925225
0.00028103433
-4.5195617e-12
-0.00026012891
0.00027829704
-4.3694749e-12
-0.00029050364
0.00027126401
-4.1686596e-12
-0.00032006769
0.00026006568
-3.921392e-12
-0.00034851509
0.00024476191
-3.6296701e-12
-0.00037553106
0.00022537321
-3.2928847e-12
-0.00040078269
0.00020191217
-2.9086097e-12
-0.00042391164
0.00017441368
-2.4728219e-12
-0.00044452904
0.00014296366
-1.9809657e-12
-0.00046221281
0.00010772635
-1.4297131e-12
-0.00047650821
6.8970726e-05
-8.18565e-13
-0.0004869326
2.7096063e-05
-1.5693299e-13
-0.00049298563
-1.7343227e-05
5.2228155e-13
-0.00049416602
-6.3614526e-05
1.2111749e-12
-0.00048999674
-0.00011078765
1.8983998e-12
-0.00048005933
-0.00015772251
2.5709157e-12
-0.00046403807
-0.00020306794
3.198182e-12
-0.00044177312
-0.00024527787
3.7174649e-12
-0.00041332025
-0.00028265133
4.0576529e-12
-0.00037901175
-0.00031340286
4.1994202e-12
-0.00033951057
-0.0003357684
4.1924883e-12
-0.00029584634
-0.00034814734
4.0790315e-12
-0.0002494203
-0.00034927446
3.8684721e-12
-0.0002019672
-0.00033840586
3.6410026e-12
-0.00015546679
-0.00031549213
3.3135174e-12
-0.00011200718
-0.00028130443
2.3689179e-12
-7.3614556e-05
-0.00023747995
2.9314249e-12
-4.2075294e-05
-0.00018646378
1.0138602e-11
-1.8783223e-05
-0.00013133752
4.111508e-12
-4.6398108e-06
-7.5565889e-05
-3.7226969e-11
-2.2854655e-05
3.8739017e-11
-4.5899928e-06
3.9443386e-05
-3.8188463e-11
-1.6551663e-05
0.00010657841
3.7995574e-11
-3.4331256e-05
0.00016238343
-3.7000629e-12
-5.6607492e-05
0.00020765982
-1.0897078e-11
-8.2272336e-05
0.00024340104
-4.7351974e-12
-0.0001104118
0.0002706521
-4.3242725e-12
-0.00014028097
0.00029041322
-5.0432905e-12
-0.00017127602
0.00030357429
-5.0751499e-12
-0.00020290591
0.0003108759
-4.966471e-12
-0.00023476533
0.00031289375
-4.8728138e-12
-0.00026650995
0.00031004166
-4.7431747e-12
-0.00029783468
0.00030258875
-4.5643464e-12
-0.00032845484
0.00029068585
-4.3374651e-12
-0.00035809011
0.00027439718
-4.0620741e-12
-0.00038645095
0.00025373405
-3.7382816e-12
-0.00041322702
0.00022868824
-3.3666601e-12
-0.00043807745
0.00019926412
-2.9467775e-12
-0.00046062305
0.00016550926
-2.4746226e-12
-0.00048044072
0.00012754402
-1.9425081e-12
-0.00049706085
8.5590859e-05
-1.3416849e-12
-0.00050996868
4.0003898e-05
-6.7266077e-13
-0.00051861107
-8.700835e-06
4.7294091e-14
-0.00052241033
-5.9815268e-05
7.8823332e-13
-0.00052078701
-0.00011241096
1.5338766e-12
-0.00051319379
-0.00016531573
2.2665076e-12
-0.00049916174
-0.00021709999
2.9661472e-12
-0.00047835978
-0.00026607984
3.5907021e-12
-0.00045066578
-0.00031034532
4.0666576e-12
-0.00041624517
-0.00034782347
4.3239095e-12
-0.00037562836
-0.00037638521
4.3520273e-12
-0.00032977422
-0.00039400148
4.1982036e-12
-0.00028010234
-0.00039894634
3.9399377e-12
-0.0002284758
-0.0003900324
3.6907365e-12
-0.00017711991
-0.00036684803
3.2841791e-12
-0.00012847303
-0.00032995131
2.0946841e-12
-8.4982462e-05
-0.00028097052
2.7174619e-12
-4.8876802e-05
-0.00022256945
1.1277697e-11
-2.1959975e-05
-0.00015825435
4.2907253e-12
-5.4694568e-06
-9.2056362e-05
-4.4330295e-11
-2.8324157e-05
4.511927e-11
-4.6404633e-06
4.4083888e-05
-3.8757125e-11
-1.6747079e-05
0.00011868499
3.8312793e-11
-3.4754455e-05
0.00018039081
-3.9091506e-12
-5.7325442e-05
0.00023023082
-1.1210171e-11
-8.333494e-05
0.00026941054
-4.9973853e-12
-0.00011185401
0.00029917118
-4.6083241e-12
-0.00014212765
0.00032068686
-5.3584676e-12
-0.00017354854
0.00033499519
-5.4090104e-12
-0.00020562964
0.00034295701
-5.3133687e-12
-0.00023797707
0.00034524119
-5.2301415e-12
-0.00027026487
0.00034232946
-5.1099301e-12
-0.00030221207
0.00033453596
-4.9426824e-12
-0.00033356255
0.00032203634
-4.7301365e-12
-0.00036406738
0.00030490202
-4.4688369e-12
-0.00039346935
0.00028313602
-4.1554731e-12
-0.00042148934
0.00025670824
-3.7891581e-12
-0.00044781436
0.00022558914
-3.3720523e-12
-0.00047208708
0.00018978198
-2.9058039e-12
-0.00049389731
0.00014935426
-2.3865386e-12
-0.00051277586
0.00010446941
-1.8027666e-12
-0.00052819194
5.5419984e-05
-1.1425702e-12
-0.00053955541
2.6626355e-06
-4.0513027e-13
-0.00054622606
-5.3144618e-05
3.6997628e-13
-0.00054753191
-0.00011110511
1.1716619e-12
-0.00054279984
-0.0001700478
1.9693738e-12
-0.00053140106
-0.00022849876
2.7359237e-12
-0.00051281382
-0.00028466708
3.4385481e-12
-0.0004867038
-0.00033645535
4.0193581e-12
-0.00045301969
-0.00038150759
4.395729e-12
-0.00041209643
-0.00041730847
4.5035075e-12
-0.00036475209
-0.00044134582
4.3441311e-12
-0.00031235748
-0.00045134095
4.0185205e-12
-0.00025685294
-0.00044553695
3.7039744e-12
-0.0002006875
-0.00042301347
3.1941422e-12
-0.0001466664
-0.00038397241
1.7304446e-12
-9.7714162e-05
-0.00032992275
2.4265872e-12
-5.6588395e-05
-0.00026369523
1.2566397e-11
-2.5604419e-05