/*--------------------------------*- C++ -*----------------------------------*\
  =========                 |
  \\      /  F ield         | OpenFOAM: The Open Source CFD Toolbox
   \\    /   O peration     | Website:  https://openfoam.org
    \\  /    A nd           | Version:  7
     \\/     M anipulation  |
\*---------------------------------------------------------------------------*/
FoamFile
{
    version     2.0;
    format      ascii;
    class       volVectorField;
    location    "19";
    object      U;
}
// * * * * * * * * * * * * * * * * * * * * * * * * * * * * * * * * * * * * * //

dimensions      [0 1 -1 0 0 0 0];

internalField   nonuniform List<vector> 
16000
(
(6.6050012e-05 -6.7315231e-05 -4.0299466e-07)
(0.00016275433 -5.6340852e-05 5.7002862e-06)
(0.00014190884 4.7063042e-07 1.9199324e-05)
(-5.0630995e-05 6.189203e-05 3.6620317e-05)
(-0.00040996804 0.00011562693 5.4727064e-05)
(-0.0009089937 0.00015773567 7.1553495e-05)
(-0.0015176418 0.00018849379 8.5763612e-05)
(-0.0022067719 0.00020959619 9.6542325e-05)
(-0.0029504374 0.0002228626 0.00010342936)
(-0.003726248 0.00022979615 0.00010617787)
(-0.0045147793 0.00023146175 0.00010466063)
(-0.0052986875 0.00022848853 9.8814646e-05)
(-0.0060618141 0.00022113224 8.8615251e-05)
(-0.0067884344 0.00020936853 7.4073018e-05)
(-0.0074627398 0.00019300025 5.5246727e-05)
(-0.0080685998 0.00017176868 3.2266633e-05)
(-0.0085896183 0.00014546178 5.3626429e-06)
(-0.0090094726 0.00011401451 -2.5107375e-05)
(-0.0093125089 7.7596924e-05 -5.8633589e-05)
(-0.0094845496 3.6686251e-05 -9.4538339e-05)
(-0.0095138556 -7.8839201e-06 -0.00013197199)
(-0.0093921552 -5.4917837e-05 -0.0001699234)
(-0.0091156795 -0.00010283368 -0.00020724625)
(-0.0086860989 -0.00014973641 -0.00024270286)
(-0.0081112397 -0.00019349635 -0.00027502361)
(-0.0074055027 -0.00023186813 -0.00030297975)
(-0.0065898926 -0.00026264092 -0.00032546491)
(-0.005691594 -0.00028380639 -0.00034157906)
(-0.0047430681 -0.00029372818 -0.0003507079)
(-0.0037806905 -0.00029129392 -0.00035258996)
(-0.0028429953 -0.00027603177 -0.00034736497)
(-0.0019686347 -0.00024817699 -0.00033559947)
(-0.0011941662 -0.00020868902 -0.00031828869)
(-0.00055171563 -0.00015925631 -0.00029683764)
(-6.6570094e-05 -0.00010240555 -0.00027301627)
(0.00024485648 -4.1758199e-05 -0.00024888203)
(0.00037888884 1.7839691e-05 -0.00022681516)
(0.00034975433 6.7056961e-05 -0.00020924905)
(0.00020617833 8.9838351e-05 -0.00019885558)
(5.7465144e-05 5.7402986e-05 -0.00018440464)
(5.8003101e-05 -0.00016699231 -6.6300524e-06)
(4.088173e-05 -3.9925339e-05 -3.7502649e-07)
(-0.00029496824 0.00024857385 1.1257492e-05)
(-0.0010109849 0.00056210492 2.5622095e-05)
(-0.002099126 0.00084745246 4.0605395e-05)
(-0.0035138954 0.0010830557 5.4611741e-05)
(-0.0051943806 0.0012642203 6.6513918e-05)
(-0.007076194 0.0013939753 7.5559662e-05)
(-0.0090975724 0.0014778604 8.1267186e-05)
(-0.011201578 0.0015214224 8.333688e-05)
(-0.013336155 0.0015291047 8.1585484e-05)
(-0.015453147 0.0015038704 7.5903074e-05)
(-0.017506972 0.0014472559 6.6231329e-05)
(-0.019453401 0.0013596831 5.2559495e-05)
(-0.021248716 0.0012409164 3.4933701e-05)
(-0.022849427 0.0010905851 1.3475148e-05)
(-0.02421259 0.00090871638 -1.1597153e-05)
(-0.025296732 0.00069623452 -3.9943223e-05)
(-0.026063318 0.00045539296 -7.108248e-05)
(-0.026478651 0.00019010701 -0.00010438081)
(-0.026516091 -9.3842263e-05 -0.00013904751)
(-0.026158317 -0.00038872961 -0.00017415109)
(-0.025399583 -0.00068502268 -0.00020863573)
(-0.024247696 -0.00097167121 -0.000241369)
(-0.022725415 -0.0012365892 -0.0002711953)
(-0.020871171 -0.0014673105 -0.00029700319)
(-0.018738907 -0.0016517792 -0.00031780066)
(-0.016396891 -0.0017792206 -0.00033279217)
(-0.013925479 -0.0018410184 -0.00034145072)
(-0.011413842 -0.0018315168 -0.00034357774)
(-0.0089557804 -0.0017486726 -0.00033934423)
(-0.006644825 -0.0015945019 -0.00032930874)
(-0.0045688295 -0.0013753262 -0.00031441051)
(-0.0028042402 -0.0011019263 -0.00029593981)
(-0.0014100902 -0.00078990491 -0.00027548822)
(-0.00042172999 -0.00046059125 -0.00025487198)
(0.00015567595 -0.00014257729 -0.00023600717)
(0.00035666182 0.0001222832 -0.00022090844)
(0.00027524156 0.00027109065 -0.00021167104)
(9.0122081e-05 0.00020507098 -0.00019547237)
(1.9180582e-06 -0.00014892286 -2.0414703e-05)
(-0.00025603571 0.00029704344 -1.1795457e-05)
(-0.0010503944 0.0010235944 1.0184269e-07)
(-0.0023876864 0.0017974466 1.3080637e-05)
(-0.0042391798 0.0025097511 2.6115326e-05)
(-0.0065451383 0.0031098537 3.8065136e-05)
(-0.0092245091 0.003580682 4.8103155e-05)
(-0.01218917 0.0039231603 5.5668791e-05)
(-0.015351929 0.0041458932 6.0380409e-05)
(-0.018629756 0.0042592887 6.1981333e-05)
(-0.021944537 0.0042725107 6.0298663e-05)
(-0.025222476 0.0041921768 5.5214653e-05)
(-0.028392915 0.0040221845 4.6653038e-05)
(-0.031387171 0.0037642598 3.4578727e-05)
(-0.034137811 0.0034189349 1.9007861e-05)
(-0.036578571 0.0029867406 2.4970972e-08)
(-0.038645051 0.0024694504 -2.2196109e-05)
(-0.040276153 0.0018712539 -4.7370926e-05)
(-0.041416215 0.0011997591 -7.5085977e-05)
(-0.04201766 0.00046674087 -0.0001047864)
(-0.042043967 -0.00031142702 -0.00013577436)
(-0.041472761 -0.0011136771 -0.00016721474)
(-0.040298741 -0.0019146829 -0.00019816048)
(-0.038536155 -0.0026856154 -0.00022758854)
(-0.036220563 -0.003395386 -0.00025445081)
(-0.033409632 -0.0040122809 -0.00027773678)
(-0.030182739 -0.0045059002 -0.00029654378)
(-0.026639227 -0.0048492804 -0.00031014898)
(-0.022895237 -0.0050210383 -0.00031807657)
(-0.019079139 -0.0050073583 -0.00032015289)
(-0.015325693 -0.0048036584 -0.00031654286)
(-0.011769153 -0.0044158192 -0.00030776261)
(-0.0085355991 -0.0038609679 -0.00029466574)
(-0.005734784 -0.0031679723 -0.00027840485)
(-0.0034517019 -0.0023780482 -0.00026037308)
(-0.0017380333 -0.0015461782 -0.00024212669)
(-0.0006037604 -0.00074421846 -0.00022527859)
(-8.1057933e-06 -6.641437e-05 -0.00021142314)
(0.00015537274 0.00036033656 -0.00020224546)
(7.3546572e-05 0.00035433477 -0.00018532368)
(-6.4680916e-05 5.045048e-05 -3.8664824e-05)
(-0.00060834302 0.0010457365 -2.6125946e-05)
(-0.0019304114 0.0023816173 -1.2145837e-05)
(-0.0039461694 0.0037562912 1.1456678e-06)
(-0.0065885558 0.0050149831 1.373244e-05)
(-0.0097785069 0.0060796438 2.4855129e-05)
(-0.013416165 0.0069200321 3.3976545e-05)
(-0.017394271 0.0075335727 4.0761447e-05)
(-0.021606167 0.007930823 4.4973909e-05)
(-0.025948805 0.0081264512 4.6442102e-05)
(-0.030323638 0.0081341795 4.5035253e-05)
(-0.034636273 0.0079644279 4.0647065e-05)
(-0.038795541 0.0076238309 3.3190518e-05)
(-0.042712587 0.0071160083 2.2603382e-05)
(-0.046300411 0.0064431127 8.8620224e-06)
(-0.049474124 0.005607776 -7.999031e-06)
(-0.05215202 0.0046151666 -2.7864435e-05)
(-0.054257473 0.0034749266 -5.0515116e-05)
(-0.055721546 0.002202811 -7.5608046e-05)
(-0.056486152 0.00082188681 -0.000102662)
(-0.056507514 -0.00063681839 -0.00013105242)
(-0.055759738 -0.0021343311 -0.00016001435)
(-0.05423814 -0.0036244415 -0.00018866576)
(-0.051962018 -0.0050551498 -0.00021603965)
(-0.048976639 -0.00637084 -0.00024113312)
(-0.045354095 -0.0075151021 -0.00026296885)
(-0.041192814 -0.0084340707 -0.00028066479)
(-0.036615509 -0.0090800775 -0.00029350646)
(-0.03176547 -0.0094153657 -0.00030101441)
(-0.026801188 -0.0094155773 -0.00030299933)
(-0.021889409 -0.0090727417 -0.00029959758)
(-0.017196851 -0.0083975583 -0.0002912817)
(-0.012880917 -0.0074209093 -0.0002788426)
(-0.0090797872 -0.0061947433 -0.00026334377)
(-0.0059023621 -0.0047927656 -0.00024605239)
(-0.0034184718 -0.0033117588 -0.00022835643)
(-0.0016495564 -0.0018745592 -0.00021168321)
(-0.00055984234 -0.00063478564 -0.00019742937)
(-5.0146551e-05 0.00021491113 -0.00018683178)
(3.8084632e-05 0.00041377598 -0.00016802329)
(-0.0001308569 0.00044556164 -5.8178921e-05)
(-0.00097088101 0.0022425775 -4.1114234e-05)
(-0.0028460032 0.0043589171 -2.4233323e-05)
(-0.0055643975 0.0064567811 -9.8024395e-06)
(-0.0090087616 0.00835289 3.1146064e-06)
(-0.013074467 0.0099507366 1.4093051e-05)
(-0.017640933 0.011210931 2.2869921e-05)
(-0.022582956 0.012128694 2.9340423e-05)
(-0.027777512 0.01271659 3.3427375e-05)
(-0.033105591 0.012993194 3.5057951e-05)
(-0.038452575 0.012976419 3.4154876e-05)
(-0.043707824 0.012680299 3.0629766e-05)
(-0.048763854 0.012114266 2.4385785e-05)
(-0.053515636 0.011284201 1.5329476e-05)
(-0.057860415 0.010194572 3.3895493e-06)
(-0.061698269 0.0088511731 -1.1459464e-05)
(-0.064933519 0.007264011 -2.9170911e-05)
(-0.067476961 0.0054500188 -4.9599535e-05)
(-0.069248813 0.0034353315 -7.2477542e-05)
(-0.070182197 0.001256917 -9.7396261e-05)
(-0.07022693 -0.0010365974 -0.00012379648)
(-0.069353371 -0.0033850444 -0.00015096997)
(-0.067556033 -0.0057177978 -0.00017807603)
(-0.064856644 -0.0079559383 -0.00020417307)
(-0.061306373 -0.010015429 -0.00022826636)
(-0.056986906 -0.011811219 -0.00024936978)
(-0.052010094 -0.013262106 -0.00026657769)
(-0.04651592 -0.014296084 -0.00027914044)
(-0.040668633 -0.014855843 -0.00028653569)
(-0.034650964 -0.014904003 -0.00028852681)
(-0.028656487 -0.014427705 -0.0002852003)
(-0.022880352 -0.013442185 -0.00027697632)
(-0.017508742 -0.011993185 -0.00026458917)
(-0.012707582 -0.010158234 -0.00024903719)
(-0.0086111968 -0.0080471808 -0.00023150451)
(-0.0053116271 -0.005802801 -0.00021326969)
(-0.002848479 -0.0036024546 -0.00019564454)
(-0.00120004 -0.0016606173 -0.00017989576)
(-0.00028882677 -0.00023388662 -0.00016675212)
(-2.4777217e-06 0.0003503984 -0.00014551912)
(-0.00019285045 0.001031259 -7.6656971e-05)
(-0.0013238835 0.0038922916 -5.4754035e-05)
(-0.0037515616 0.0069675255 -3.4551065e-05)
(-0.0071727319 0.0099101138 -1.8459188e-05)
(-0.011413902 0.012526484 -4.6650716e-06)
(-0.016340189 0.014713416 6.6960682e-06)
(-0.021807896 0.016429279 1.5611233e-05)
(-0.027673699 0.017670702 2.2195036e-05)
(-0.033799748 0.018453876 2.6525921e-05)
(-0.040053726 0.018801824 2.8630606e-05)
(-0.046308252 0.018736707 2.8486359e-05)
(-0.05244003 0.018276088 2.6022271e-05)
(-0.058328911 0.0174322 2.1128825e-05)
(-0.063857243 0.016213376 1.3675906e-05)
(-0.068909848 0.014626852 3.5370605e-06)
(-0.07337479 0.012682313 -9.3818269e-06)
(-0.077144998 0.010395617 -2.5111361e-05)
(-0.080120704 0.0077922694 -4.3587206e-05)
(-0.082212586 0.0049103187 -6.4621031e-05)
(-0.083345432 0.0018024064 -8.7876851e-05)
(-0.083462133 -0.00146323 -0.00011285604)
(-0.082527745 -0.0048029527 -0.00013889475)
(-0.08053338 -0.0081191878 -0.00016517559)
(-0.077499625 -0.011303266 -0.00019075747)
(-0.07347917 -0.014239586 -0.00021462246)
(-0.068558357 -0.016811009 -0.00023573906)
(-0.062857279 -0.01890531 -0.00025313765)
(-0.056528149 -0.020422349 -0.00026599178)
(-0.049751647 -0.021281553 -0.00027369638)
(-0.042731111 -0.02142918 -0.00027593319)
(-0.035684523 -0.020844808 -0.00027271354)
(-0.028834502 -0.019546522 -0.00026439168)
(-0.02239667 -0.017594437 -0.00025164551)
(-0.016567049 -0.015092428 -0.00023542469)
(-0.01150942 -0.01218834 -0.00021686628)
(-0.0073436515 -0.0090733684 -0.00019719602)
(-0.0041344203 -0.005981562 -0.00017768561)
(-0.00188156 -0.0031890701 -0.000159568)
(-0.0005361909 -0.0010144209 -0.00014317405)
(-4.1249084e-05 0.00015887704 -0.00011908132)
(-0.00025009616 0.0017984614 -9.2141714e-05)
(-0.0016596361 0.0059837292 -6.525294e-05)
(-0.0046240752 0.010197881 -4.1568651e-05)
(-0.0087314517 0.014105976 -2.3515605e-05)
(-0.013750479 0.017521021 -8.4789515e-06)
(-0.019513491 0.020345581 3.6583044e-06)
(-0.025852055 0.022544221 1.3107847e-05)
(-0.032604392 0.024120186 2.018572e-05)
(-0.039618727 0.025096231 2.511415e-05)
(-0.046751321 0.025501288 2.8011413e-05)
(-0.053864589 0.025362373 2.8903142e-05)
(-0.060825541 0.024700762 2.7730118e-05)
(-0.067504476 0.023531521 2.4363842e-05)
(-0.073774191 0.021865491 1.8630324e-05)
(-0.079509947 0.01971284 1.0339822e-05)
(-0.084590281 0.017087448 -6.7909153e-07)
(-0.088898689 0.014011465 -1.4542834e-05)
(-0.092326124 0.010519542 -3.1275581e-05)
(-0.094774184 0.0066623354 -5.0774098e-05)
(-0.096158854 0.0025089929 -7.2777729e-05)
(-0.096414615 -0.0018516249 -9.6847095e-05)
(-0.095498713 -0.006311149 -0.00012235609)
(-0.093395382 -0.01074344 -0.00014849816)
(-0.090119765 -0.015007999 -0.0001743137)
(-0.085721189 -0.018955013 -0.0001987358)
(-0.080285479 -0.022431987 -0.00022065527)
(-0.073935914 -0.02529179 -0.00023900085)
(-0.066832393 -0.027401756 -0.00025282774)
(-0.059168439 -0.028653373 -0.00026140551)
(-0.051165723 -0.028971896 -0.00026429429)
(-0.043065981 -0.028325142 -0.00026139768)
(-0.035120416 -0.026730698 -0.00025298322)
(-0.027576997 -0.024260908 -0.00023966651)
(-0.020666387 -0.021045247 -0.00022235909)
(-0.014587712 -0.017270129 -0.00020218003)
(-0.0094954369 -0.013176732 -0.0001803525)
(-0.0054862904 -0.009057688 -0.00015818034)
(-0.00258787 -0.0052521741 -0.00013695023)
(-0.00078444945 -0.0021406045 -0.00011666677)
(-7.6873713e-05 -0.00016060798 -8.9459797e-05)
(-0.00030293012 0.0027363412 -0.00010296367)
(-0.0019753306 0.0084974819 -7.0994612e-05)
(-0.0054516805 0.014027525 -4.3849139e-05)
(-0.010217115 0.019019946 -2.3706413e-05)
(-0.015983851 0.023309316 -7.2129864e-06)
(-0.02255094 0.026816149 5.974185e-06)
(-0.029724759 0.029520186 1.6269542e-05)
(-0.037325193 0.031437404 2.4170872e-05)
(-0.045187375 0.032600966 3.0028229e-05)
(-0.053157693 0.033047935 3.4038553e-05)
(-0.06109048 0.032811311 3.6265012e-05)
(-0.068845554 0.031916556 3.6650495e-05)
(-0.076286341 0.030381683 3.503852e-05)
(-0.083278749 0.028219977 3.1202254e-05)
(-0.089690932 0.025444403 2.4879425e-05)
(-0.095393964 0.022072867 1.5811697e-05)
(-0.10026341 0.018133616 3.787061e-06)
(-0.10418173 0.013670232 -1.1316744e-05)
(-0.10704135 0.0087457642 -2.9490317e-05)
(-0.10874839 0.0034457002 -5.0555359e-05)
(-0.10922682 -0.0021204919 -7.4135971e-05)
(-0.10842296 -0.0078194413 -9.964421e-05)
(-0.10631008 -0.01349569 -0.00012627921)
(-0.10289304 -0.018975485 -0.00015305111)
(-0.098212442 -0.024072512 -0.00017882447)
(-0.092348052 -0.028595638 -0.00020238471)
(-0.085421053 -0.032358499 -0.00022252319)
(-0.077594475 -0.03519063 -0.00023813449)
(-0.069071318 -0.036949601 -0.00024831622)
(-0.06008985 -0.037533377 -0.00025245963)
(-0.050915774 -0.036891949 -0.00025031779)
(-0.041831203 -0.035037141 -0.00024203952)
(-0.03312083 -0.032049601 -0.00022816237)
(-0.025056089 -0.028082205 -0.00020956331)
(-0.017878817 -0.023359596 -0.00018736668)
(-0.011785956 -0.018174265 -0.00016283684)
(-0.00691378 -0.012879983 -0.00013737539)
(-0.0033237092 -0.0078821092 -0.00011240645)
(-0.0010368263 -0.0036261647 -8.7699911e-05)
(-0.00011093225 -0.00060707791 -5.7258278e-05)
(-0.00035166213 0.0038335387 -0.00010765943)
(-0.0022694893 0.011409491 -7.0505111e-05)
(-0.0062269466 0.018425877 -4.0029795e-05)
(-0.011613767 0.024618047 -1.778141e-05)
(-0.018088805 0.029855246 2.8055143e-07)
(-0.025418923 0.034087248 1.4707929e-05)
(-0.033385993 0.037317856 2.6100104e-05)
(-0.041792308 0.039582248 3.5117794e-05)
(-0.05046096 0.040928381 4.2221967e-05)
(-0.05922995 0.041404191 4.7673416e-05)
(-0.067947427 0.041050222 5.1559848e-05)
(-0.076468222 0.039896858 5.3814712e-05)
(-0.084651258 0.03796525 5.4242921e-05)
(-0.092357911 0.035270961 5.2554537e-05)
(-0.099451393 0.031829317 4.8404309e-05)
(-0.10579711 0.0276616 4.1435964e-05)
(-0.11126393 0.022801314 3.1330058e-05)
(-0.11572632 0.017299949 1.7853639e-05)
(-0.11906718 0.011231799 9.0924545e-07)
(-0.12118146 0.004697515 -1.9419847e-05)
(-0.12198024 -0.0021738835 -4.2832311e-05)
(-0.12139548 -0.0092247501 -6.8786896e-05)
(-0.11938511 -0.016270416 -9.6491521e-05)
(-0.11593847 -0.023103095 -0.00012492249)
(-0.11108164 -0.029498031 -0.0001528631)
(-0.10488231 -0.035222106 -0.00017896998)
(-0.097453759 -0.040044875 -0.00020186266)
(-0.08895706 -0.043751773 -0.00022023034)
(-0.079600894 -0.046158955 -0.00023294612)
(-0.069638147 -0.047128886 -0.00023917581)
(-0.059358738 -0.046585469 -0.00023846682)
(-0.049078421 -0.04452725 -0.00023080276)
(-0.039123781 -0.041037213 -0.0002166131)
(-0.029814275 -0.036287872 -0.00019673271)
(-0.021443111 -0.030540922 -0.00017230782)
(-0.014258842 -0.024141609 -0.00014468294)
(-0.0084457413 -0.017508566 -0.00011541824)
(-0.0041055786 -0.011118805 -8.6154607e-05)
(-0.0013000266 -0.0054896309 -5.6497072e-05)
(-0.00014465556 -0.0011817774 -2.2543649e-05)
(-0.00039635719 0.0050782838 -0.00010490997)
(-0.002540585 0.014692338 -6.2431996e-05)
(-0.006943622 0.023356143 -2.8828672e-05)
(-0.012908163 0.030858388 -4.529309e-06)
(-0.020043997 0.037114453 1.5148299e-05)
(-0.028088017 0.042113647 3.0953376e-05)
(-0.036799194 0.045892274 4.3655963e-05)
(-0.045963561 0.048511155 5.4062802e-05)
(-0.055393519 0.050037645 6.2729696e-05)
(-0.064920225 0.050533624 6.9966636e-05)
(-0.074387451 0.050049033 7.5872637e-05)
(-0.08364708 0.048620122 8.0359748e-05)
(-0.092555701 0.046271444 8.3183168e-05)
(-0.10097233 0.04302057 8.3978946e-05)
(-0.10875723 0.038884487 8.2307439e-05)
(-0.11577181 0.033886754 7.7701823e-05)
(-0.12187942 0.02806466 6.9720895e-05)
(-0.12694702 0.021475804 5.8004697e-05)
(-0.13084767 0.014203666 4.2330729e-05)
(-0.13346383 0.0063618725 2.266799e-05)
(-0.13469143 -0.0019031078 -7.7578381e-07)
(-0.13444468 -0.0104111 -2.7525222e-05)
(-0.13266173 -0.018949282 -5.6808579e-05)
(-0.12931103 -0.027275817 -8.7574526e-05)
(-0.12439799 -0.035126024 -0.00011852073)
(-0.11797165 -0.042221534 -0.00014815731)
(-0.11013079 -0.048282558 -0.00017489931)
(-0.10102848 -0.053043145 -0.00019718288)
(-0.090874245 -0.056268958 -0.00021359623)
(-0.07993258 -0.057776623 -0.00022301129)
(-0.068517099 -0.057453173 -0.00022469965)
(-0.056979537 -0.055273698 -0.00021841572)
(-0.045693672 -0.051315061 -0.0002044325)
(-0.035034936 -0.045763709 -0.00018351894)
(-0.025357748 -0.038916163 -0.0001568485)
(-0.016972895 -0.031171938 -0.00012587929)
(-0.010122656 -0.023019594 -9.2388572e-05)
(-0.0049570772 -0.015015809 -5.83114e-05)
(-0.0015838412 -0.0077600062 -2.3141413e-05)
(-0.00017999717 -0.0018920049 1.4724347e-05)
(-0.0004368347 0.0064580585 -9.3512963e-05)
(-0.0027866142 0.018315446 -4.5536568e-05)
(-0.0075952634 0.02877604 -9.0552511e-06)
(-0.014087478 0.037691936 1.7196338e-05)
(-0.021829035 0.045034693 3.849789e-05)
(-0.030529829 0.050842348 5.5787885e-05)
(-0.039928179 0.055191492 6.9995354e-05)
(-0.04979566 0.058174764 8.2058226e-05)
(-0.05993558 0.059883526 9.2612822e-05)
(-0.07017388 0.060396813 0.00010200513)
(-0.080351733 0.059776016 0.00011033339)
(-0.090320017 0.058064348 0.00011747718)
(-0.099935041 0.055290088 0.00012313144)
(-0.10905553 0.051472481 0.00012684742)
(-0.11754078 0.046629246 0.00012807922)
(-0.1252499 0.04078473 0.00012623549)
(-0.13204199 0.033977986 0.00012073646)
(-0.13777721 0.026270208 0.0001110749)
(-0.14231877 0.017751151 9.6879536e-05)
(-0.14553575 0.0085442518 7.7978346e-05)
(-0.14730704 -0.0011897399 5.4457423e-05)
(-0.14752611 -0.011250856 2.6694474e-05)
(-0.14610719 -0.021400353 -4.5802903e-06)
(-0.1429926 -0.031363264 -3.8306326e-05)
(-0.13816076 -0.040834224 -7.3102069e-05)
(-0.13163495 -0.049486726 -0.00010732177)
(-0.12349192 -0.056986256 -0.00013914741)
(-0.11386942 -0.063007441 -0.00016671302)
(-0.10297129 -0.067254909 -0.00018825353)
(-0.09106893 -0.069486907 -0.00020226416)
(-0.078497478 -0.069540002 -0.00020765138)
(-0.065645748 -0.067352468 -0.00020385455)
(-0.052939427 -0.062983467 -0.00019091895)
(-0.040818085 -0.056625073 -0.00016950193)
(-0.029708244 -0.048604786 -0.0001407925)
(-0.019995272 -0.03937762 -0.00010638609)
(-0.011991607 -0.029508292 -6.8333886e-05)
(-0.0059057496 -0.019643653 -2.894415e-05)
(-0.0018995066 -0.010479005 1.2362646e-05)
(-0.00021910068 -0.002750457 5.4701666e-05)
(-0.00047271999 0.0079592141 -7.2377765e-05)
(-0.0030050573 0.022244883 -1.8697192e-05)
(-0.0081748169 0.034637951 2.0376552e-05)
(-0.015138428 0.045062831 4.8454737e-05)
(-0.023423232 0.053555987 7.136748e-05)
(-0.032715561 0.060212274 9.0235635e-05)
(-0.042735735 0.06515559 0.0001061372)
(-0.053242955 0.068516147 0.00012012833)
(-0.064033198 0.070413771 0.00013291375)
(-0.074928867 0.070947901 0.00014486448)
(-0.085770286 0.07019354 0.00015606809)
(-0.096409197 0.068202094 0.00016636255)
(-0.10670363 0.065005961 0.00017537353)
(-0.11651408 0.060625705 0.00018255775)
(-0.12570088 0.055078696 0.00018725141)
(-0.1341227 0.048388293 0.00018872397)
(-0.14163596 0.040592853 0.00018623817)
(-0.1480952 0.031754061 0.0001791156)
(-0.15335428 0.021964288 0.00016680682)
(-0.15726874 0.011352738 0.00014896274)
(-0.15969918 9.0254974e-05 0.00012550396)
(-0.16051622 -0.011607458 9.669151e-05)
(-0.15960683 -0.023479009 6.3154441e-05)
(-0.15688226 -0.035218458 2.5935061e-05)
(-0.1522878 -0.046480125 -1.3524912e-05)
(-0.14581351 -0.05688732 -5.3426361e-05)
(-0.13750569 -0.066045798 -9.1697771e-05)
(-0.12747781 -0.073562447 -0.00012612383)
(-0.11591953 -0.079069169 -0.0001545118)
(-0.10310193 -0.082251185 -0.00017488251)
(-0.089376983 -0.082877963 -0.00018566515)
(-0.075169501 -0.080833893 -0.00018587007)
(-0.060960315 -0.076144905 -0.00017521365)
(-0.047260882 -0.068996814 -0.00015416762)
(-0.034581482 -0.059741697 -0.00012390096)
(-0.023396313 -0.048890263 -8.6154925e-05)
(-0.014102793 -0.037090324 -4.3307705e-05)
(-0.0069811099 -0.025091667 1.8756495e-06)
(-0.002258901 -0.013702506 5.0021093e-05)
(-0.00026413343 -0.0037759581 9.7578547e-05)
(-0.00050350933 0.0095666702 -4.0534766e-05)
(-0.0031930219 0.026443071 1.9078397e-05)
(-0.0086747298 0.040888854 6.0430961e-05)
(-0.016047268 0.052908436 9.0194059e-05)
(-0.024805502 0.062610576 0.00011469552)
(-0.034615866 0.070153887 0.00013523148)
(-0.045183524 0.075715756 0.00015301974)
(-0.056257509 0.079469204 0.0001692234)
(-0.067628268 0.081566738 0.0001846058)
(-0.079116327 0.082131406 0.00019955486)
(-0.090562843 0.081254073 0.00021414049)
(-0.10182223 0.078995682 0.0002281527)
(-0.1127562 0.075393256 0.00024114139)
(-0.12322907 0.070468363 0.00025246102)
(-0.13310437 0.064236905 0.00026131945)
(-0.14224244 0.056719321 0.00026683252)
(-0.15049901 0.047950524 0.00026808545)
(-0.15772471 0.037989157 0.00026420186)
(-0.16376543 0.026925962 0.00025441974)
(-0.1684639 0.01489111 0.00023817186)
(-0.17166251 0.0020603784 0.00021516795)
(-0.17320792 -0.011340092 0.00018548419)
(-0.17295745 -0.025030826 0.00014960882)
(-0.1707875 -0.03867859 0.00010851281)
(-0.16660456 -0.051899322 6.3658645e-05)
(-0.16035804 -0.064265538 1.6979145e-05)
(-0.15205458 -0.075319335 -2.9193792e-05)
(-0.14177295 -0.084591948 -7.2255808e-05)
(-0.12967763 -0.091630312 -0.00010951059)
(-0.11602915 -0.096030213 -0.00013839414)
(-0.10118823 -0.097474318 -0.00015672163)
(-0.085611272 -0.095771843 -0.00016292639)
(-0.069834945 -0.09089504 -0.00015625564)
(-0.054449001 -0.083006731 -0.00013688306)
(-0.0400594 -0.072473244 -0.00010588934)
(-0.02724527 -0.059858968 -6.5147559e-05)
(-0.016506965 -0.04590164 -1.74084e-05)
(-0.0082134004 -0.031468619 3.4016858e-05)
(-0.0026741976 -0.017501226 8.9780256e-05)
(-0.00031728052 -0.004993717 0.0001434985)
(-0.0005286394 0.011263743 2.8462127e-06)
(-0.0033474877 0.030868649 6.8634644e-05)
(-0.0090873861 0.047470319 0.00011192947)
(-0.016800376 0.061159401 0.00014322598)
(-0.025955052 0.072122892 0.00016928971)
(-0.036201668 0.080588872 0.00019158387)
(-0.047233079 0.086793494 0.00021145726)
(-0.058790323 0.090957252 0.00023017017)
(-0.070660045 0.093269265 0.00024853734)
(-0.08266245 0.093879326 0.00026695859)
(-0.094641106 0.092896472 0.0002854827)
(-0.10645482 0.090392676 0.00030384889)
(-0.11797085 0.086410251 0.00032152821)
(-0.12905948 0.080971594 0.00033776799)
(-0.13958969 0.074090107 0.0003516398)
(-0.14942592 0.065781383 0.00036209279)
(-0.15842571 0.056074051 0.00036801496)
(-0.16643821 0.045019962 0.00036830378)
(-0.17330364 0.032703603 0.00036194679)
(-0.17885391 0.0192507 0.00034811091)
(-0.1829146 0.0048359623 0.00032623854)
(-0.18530891 -0.010310256 0.00029614923)
(-0.18586368 -0.025896648 0.00025812476)
(-0.18441811 -0.041568131 0.0002129936)
(-0.18083537 -0.056906204 0.00016217756)
(-0.17501724 -0.071434091 0.00010770023)
(-0.16692127 -0.08462823 5.2139679e-05)
(-0.15657975 -0.095937667 -1.4864048e-06)
(-0.14411865 -0.10481249 -4.9908104e-05)
(-0.12977412 -0.11074157 -8.9858808e-05)
(-0.1139033 -0.11329826 -0.0001183801)
(-0.096985359 -0.11219074 -0.00013314216)
(-0.079609525 -0.10731125 -0.00013273431)
(-0.062447681 -0.098776454 -0.00011686831)
(-0.046212742 -0.086950872 -8.6422367e-05)
(-0.031606409 -0.072446623 -4.3354371e-05)
(-0.01925333 -0.056096846 9.1808395e-06)
(-0.0096327213 -0.038902354 6.7231102e-05)
(-0.0031576895 -0.021960838 0.00013145609)
(-0.00038076704 -0.0064353881 0.00019248339)
(-0.00054755971 0.013032133 5.843264e-05)
(-0.0034656176 0.035476591 0.00013064668)
(-0.0094057591 0.054318764 0.00017552871)
(-0.017385237 0.069739968 0.00020820016)
(-0.026852677 0.082009745 0.00023579645)
(-0.037445747 0.091430036 0.00025993803)
(-0.048847698 0.098300088 0.00028209621)
(-0.060793576 0.10289193 0.00030362025)
(-0.073067776 0.10543491 0.00032537185)
(-0.085491566 0.10610864 0.00034776132)
(-0.09791234 0.10504272 0.00037081673)
(-0.11019486 0.10232182 0.00039422794)
(-0.12221381 0.097994441 0.00041738806)
(-0.13384749 0.092083879 0.00043943651)
(-0.14497278 0.084600233 0.00045930401)
(-0.15546093 0.075552516 0.00047576301)
(-0.16517428 0.064960368 0.00048748653)
(-0.17396374 0.05286513 0.00049311847)
(-0.1816672 0.039340293 0.00049135692)
(-0.18810903 0.024501407 0.00048105099)
(-0.19310101 0.0085154955 0.00046131002)
(-0.19644525 -0.008390133 0.00043162256)
(-0.1979394 -0.025920029 0.00039197389)
(-0.19738494 -0.043704686 0.00034295933)
(-0.19459902 -0.061297574 0.00028587271)
(-0.18943013 -0.078176949 0.00022275595)
(-0.18177772 -0.0937545 0.00015638891)
(-0.17161509 -0.10739311 9.0200736e-05)
(-0.15901417 -0.11843578 2.8087914e-05)
(-0.14416944 -0.12624705 -2.5864978e-05)
(-0.12741713 -0.13026635 -6.7749436e-05)
(-0.10924468 -0.13007045 -9.4248404e-05)
(-0.090285114 -0.12543838 -0.00010304829)
(-0.071291975 -0.1164094 -9.3169134e-05)
(-0.053094373 -0.10332207 -6.5108949e-05)
(-0.036534995 -0.086824011 -2.0814274e-05)
(-0.022387543 -0.067846024 3.6148723e-05)
(-0.011268302 -0.047538501 0.00010109053)
(-0.0037216864 -0.027181685 0.00017465857)
(-0.00045689064 -0.0081391019 0.00024435575)
(-0.00055980832 0.014852106 0.00012670482)
(-0.0035451162 0.040218686 0.00020559897)
(-0.0096242189 0.061366127 0.00025169962)
(-0.017791731 0.078568666 0.00028558078)
(-0.027482498 0.09218089 0.00031467258)
(-0.038324929 0.10258159 0.00034074128)
(-0.049995076 0.11013647 0.00036537257)
(-0.062223727 0.11517252 0.0003899985)
(-0.074794329 0.1179627 0.00041552638)
(-0.087530368 0.1187194 0.00044237952)
(-0.10028428 0.1175953 0.00047057018)
(-0.11292822 0.11468967 0.00049974479)
(-0.12534597 0.11005841 0.00052922435)
(-0.13742598 0.10372612 0.00055804416)
(-0.14905551 0.095699165 0.00058499434)
(-0.16011562 0.085978642 0.00060866495)
(-0.17047689 0.074572857 0.00062750033)
(-0.17999593 0.061509236 0.00063986653)
(-0.18851265 0.04684573 0.00064413509)
(-0.19584855 0.03068198 0.00063878509)
(-0.20180634 0.013170398 0.0006225239)
(-0.20617142 -0.005472821 0.00059442478)
(-0.20871586 -0.024957047 0.00055407511)
(-0.20920553 -0.044907791 0.00050172552)
(-0.20741124 -0.064859669 0.00043842676)
(-0.2031247 -0.084253741 0.0003661318)
(-0.19617964 -0.10244177 0.00028773895)
(-0.1864782 -0.11870042 0.00020704782)
(-0.17402142 -0.13225866 0.00012860208)
(-0.15894144 -0.14234099 5.7401886e-05)
(-0.14153114 -0.14822756 -1.5131728e-06)
(-0.122265 -0.14932935 -4.3582591e-05)
(-0.10180381 -0.14527181 -6.5285185e-05)
(-0.080975906 -0.13597557 -6.4639893e-05)
(-0.060731753 -0.12171829 -4.1502132e-05)
(-0.042072793 -0.10316144 2.3607556e-06)
(-0.025949518 -0.081329845 6.3006128e-05)
(-0.013147742 -0.057538226 0.00013491713)
(-0.0043784241 -0.033278127 0.00021870652)
(-0.00054805936 -0.010149478 0.00029865203)
(-0.00056509083 0.01670287 0.00020793367)
(-0.0035846264 0.045044446 0.00029376738)
(-0.0097394598 0.068541045 0.00034071076)
(-0.018013643 0.087559546 0.00037562775)
(-0.027834064 0.10254012 0.00040616195)
(-0.038822735 0.11393995 0.00043421271)
(-0.050650515 0.12219357 0.00046147303)
(-0.063045309 0.12768587 0.00048945411)
(-0.075790626 0.13073645 0.00051911142)
(-0.088713084 0.13159348 0.00055088815)
(-0.10167117 0.13043538 0.00058479043)
(-0.11454567 0.12737819 0.00062043225)
(-0.12723105 0.12248674 0.00065707337)
(-0.13962795 0.11578784 0.0006936542)
(-0.15163655 0.1072842 0.00072882986)
(-0.16315084 0.096968181 0.00076100814)
(-0.17405346 0.084835033 0.00078839678)
(-0.18421123 0.070895443 0.00080906551)
(-0.19347133 0.055187807 0.00082102735)
(-0.20165824 0.037790491 0.0008223431)
(-0.20857197 0.018834441 0.00081125088)
(-0.21398774 -0.001483694 0.000786321)
(-0.21765813 -0.022888085 0.00074663385)
(-0.21931838 -0.045010531 0.00069196721)
(-0.21869584 -0.067378798 0.0006229874)
(-0.215525 -0.089408386 0.00054141477)
(-0.20956895 -0.11040074 0.00045013649)
(-0.20064804 -0.12955162 0.00035322974)
(-0.18867555 -0.14597415 0.00025585533)
(-0.17369836 -0.158741 0.00016398741)
(-0.15593865 -0.16694908 8.396159e-05)
(-0.13582942 -0.16980671 2.1855316e-05)
(-0.11403425 -0.16673828 -1.724243e-05)
(-0.091440483 -0.15749325 -2.995088e-05)
(-0.069118288 -0.14223958 -1.5113297e-05)
(-0.048242765 -0.12161755 2.5950747e-05)
(-0.029970796 -0.096732658 8.9025432e-05)
(-0.015296089 -0.069074855 0.00016769904)
(-0.0051399394 -0.040377453 0.00026252756)
(-0.00065682804 -0.012517614 0.00035452087)
(-0.00056336197 0.018563174 0.0003021641)
(-0.0035841555 0.04990249 0.00039520803)
(-0.009751521 0.075770642 0.00044261907)
(-0.018050359 0.096624042 0.00047838553)
(-0.027904709 0.11298695 0.00051027956)
(-0.038932406 0.12539512 0.00054032023)
(-0.05080058 0.13435337 0.00057030284)
(-0.063235243 0.14030693 0.00060181801)
(-0.076020679 0.14362491 0.00063587651)
(-0.088987329 0.14459428 0.0006729535)
(-0.10200057 0.14342204 0.00071306382)
(-0.1149509 0.14024347 0.00075580526)
(-0.12774497 0.13513434 0.00080039246)
(-0.14029751 0.12812499 0.00084568557)
(-0.15252413 0.11921517 0.0008902163)
(-0.16433493 0.10838845 0.00093221668)
(-0.17562859 0.095626036 0.00096965722)