/*--------------------------------*- C++ -*----------------------------------*\
  =========                 |
  \\      /  F ield         | OpenFOAM: The Open Source CFD Toolbox
   \\    /   O peration     | Website:  https://openfoam.org
    \\  /    A nd           | Version:  7
     \\/     M anipulation  |
\*---------------------------------------------------------------------------*/
FoamFile
{
    version     2.0;
    format      ascii;
    class       volVectorField;
    location    "19";
    object      U_0;
}
// * * * * * * * * * * * * * * * * * * * * * * * * * * * * * * * * * * * * * //

dimensions      [0 1 -1 0 0 0 0];

internalField   nonuniform List<vector> 
16000
(
(6.604993e-05 -6.7315335e-05 -4.0306475e-07)
(0.00016275429 -5.6340991e-05 5.7002218e-06)
(0.00014190884 4.7051162e-07 1.9199387e-05)
(-5.0630971e-05 6.1891944e-05 3.662032e-05)
(-0.00040996782 0.00011562689 5.4727009e-05)
(-0.0009089932 0.00015773564 7.1553384e-05)
(-0.0015176409 0.00018849374 8.5763491e-05)
(-0.0022067706 0.00020959607 9.6542244e-05)
(-0.0029504358 0.00022286243 0.00010342936)
(-0.0037262461 0.00022979596 0.00010617794)
(-0.0045147772 0.00023146157 0.00010466076)
(-0.0052986851 0.00022848838 9.8814811e-05)
(-0.0060618115 0.00022113211 8.8615455e-05)
(-0.0067884316 0.00020936841 7.4073274e-05)
(-0.0074627367 0.00019300015 5.5247046e-05)
(-0.0080685965 0.0001717686 3.2267013e-05)
(-0.0085896148 0.00014546173 5.3630751e-06)
(-0.009009469 0.00011401449 -2.5106906e-05)
(-0.0093125052 7.7596942e-05 -5.8633082e-05)
(-0.0094845457 3.6686304e-05 -9.4537798e-05)
(-0.0095138516 -7.8838439e-06 -0.00013197142)
(-0.0093921513 -5.4917755e-05 -0.00016992281)
(-0.0091156756 -0.0001028336 -0.00020724563)
(-0.0086860953 -0.00014973634 -0.00024270221)
(-0.0081112363 -0.00019349624 -0.00027502295)
(-0.0074054997 -0.00023186794 -0.00030297913)
(-0.00658989 -0.00026264067 -0.00032546437)
(-0.0056915916 -0.00028380624 -0.00034157861)
(-0.0047430657 -0.00029372833 -0.00035070742)
(-0.0037806883 -0.00029129432 -0.00035258928)
(-0.0028429942 -0.00027603181 -0.0003473641)
(-0.0019686352 -0.00024817596 -0.00033559884)
(-0.0011941672 -0.00020868735 -0.00031828889)
(-0.00055171402 -0.00015925624 -0.00029683845)
(-6.6564626e-05 -0.0001024092 -0.00027301599)
(0.00024486118 -4.1763415e-05 -0.00024887893)
(0.0003788833 1.784036e-05 -0.00022681058)
(0.0003497361 6.7069959e-05 -0.00020924924)
(0.0002061594 8.9858904e-05 -0.00019886605)
(5.7459336e-05 5.741276e-05 -0.00018442295)
(5.8002987e-05 -0.00016699241 -6.6301512e-06)
(4.0881681e-05 -3.9925552e-05 -3.7528034e-07)
(-0.00029496806 0.00024857352 1.1257396e-05)
(-0.0010109845 0.00056210448 2.5622057e-05)
(-0.0020991251 0.00084745196 4.0605415e-05)
(-0.003513894 0.0010830552 5.4611763e-05)
(-0.0051943786 0.0012642198 6.6513906e-05)
(-0.0070761912 0.0013939747 7.5559613e-05)
(-0.0090975687 0.0014778597 8.1267141e-05)
(-0.011201574 0.0015214216 8.333688e-05)
(-0.013336149 0.0015291039 8.1585553e-05)
(-0.01545314 0.0015038697 7.5903215e-05)
(-0.017506966 0.0014472552 6.6231538e-05)
(-0.019453393 0.0013596824 5.2559773e-05)
(-0.021248708 0.0012409157 3.4934055e-05)
(-0.022849418 0.0010905846 1.3475584e-05)
(-0.02421258 0.00090871596 -1.1596636e-05)
(-0.025296722 0.00069623423 -3.9942652e-05)
(-0.026063308 0.00045539284 -7.108186e-05)
(-0.026478641 0.00019010706 -0.00010438016)
(-0.02651608 -9.3842045e-05 -0.00013904683)
(-0.026158307 -0.00038872925 -0.00017415042)
(-0.025399573 -0.00068502224 -0.00020863506)
(-0.024247687 -0.00097167074 -0.00024136833)
(-0.022725405 -0.0012365887 -0.00027119461)
(-0.020871163 -0.0014673098 -0.00029700246)
(-0.018738899 -0.0016517783 -0.00031779995)
(-0.016396885 -0.0017792196 -0.00033279162)
(-0.013925474 -0.0018410178 -0.00034145042)
(-0.011413837 -0.0018315171 -0.0003435775)
(-0.0089557754 -0.0017486735 -0.00033934351)
(-0.0066448215 -0.0015945016 -0.00032930723)
(-0.0045688301 -0.001375323 -0.00031440903)
(-0.0028042441 -0.0011019221 -0.00029594025)
(-0.0014100912 -0.00078990582 -0.00027549115)
(-0.0004217206 -0.00046060151 -0.00025487402)
(0.00015569281 -0.00014259025 -0.00023600234)
(0.00035666974 0.00012228389 -0.00022089586)
(0.00027522005 0.000271112 -0.00021166033)
(9.0105025e-05 0.00020509214 -0.00019547965)
(1.9179508e-06 -0.00014892294 -2.0414664e-05)
(-0.00025603575 0.00029704324 -1.1795627e-05)
(-0.001050394 0.0010235939 1.0169933e-07)
(-0.0023876856 0.0017974458 1.3080493e-05)
(-0.0042391781 0.0025097498 2.6115245e-05)
(-0.0065451357 0.0031098522 3.8065123e-05)
(-0.0092245054 0.0035806803 4.8103189e-05)
(-0.012189165 0.0039231585 5.566883e-05)
(-0.015351923 0.0041458914 6.0380448e-05)
(-0.018629748 0.0042592868 6.1981388e-05)
(-0.021944528 0.0042725088 6.0298759e-05)
(-0.025222467 0.0041921749 5.5214809e-05)
(-0.028392904 0.0040221827 4.6653257e-05)
(-0.031387159 0.0037642581 3.4579006e-05)
(-0.034137797 0.0034189334 1.9008198e-05)
(-0.036578557 0.0029867393 2.5365489e-08)
(-0.038645036 0.0024694493 -2.2195654e-05)
(-0.040276138 0.0018712531 -4.737042e-05)
(-0.041416199 0.0011997588 -7.5085421e-05)
(-0.042017643 0.00046674087 -0.00010478579)
(-0.042043951 -0.00031142663 -0.00013577371)
(-0.041472745 -0.0011136763 -0.00016721407)
(-0.040298725 -0.0019146818 -0.00019815982)
(-0.03853614 -0.002685614 -0.00022758792)
(-0.036220549 -0.0033953846 -0.00025445023)
(-0.033409619 -0.0040122795 -0.00027773618)
(-0.030182728 -0.0045058987 -0.00029654307)
(-0.026639218 -0.0048492784 -0.00031014822)
(-0.022895229 -0.0050210358 -0.00031807603)
(-0.019079133 -0.0050073562 -0.00032015288)
(-0.015325687 -0.0048036582 -0.00031654315)
(-0.011769146 -0.0044158211 -0.0003077621)
(-0.0085355934 -0.0038609689 -0.00029466349)
(-0.0057347847 -0.0031679677 -0.00027840203)
(-0.0034517102 -0.0023780386 -0.00026037334)
(-0.0017380405 -0.0015461732 -0.00024213238)
(-0.00060375401 -0.0007442287 -0.00022528545)
(-8.0874493e-06 -6.6435672e-05 -0.00021142238)
(0.00015537402 0.0003603246 -0.00020223563)
(7.3538862e-05 0.00035434643 -0.00018532222)
(-6.4680941e-05 5.0450194e-05 -3.8664785e-05)
(-0.00060834283 0.001045736 -2.612602e-05)
(-0.0019304108 0.0023816163 -1.2145893e-05)
(-0.0039461679 0.0037562896 1.1455643e-06)
(-0.0065885532 0.005014981 1.373233e-05)
(-0.009778503 0.0060796412 2.4855052e-05)
(-0.013416159 0.0069200291 3.3976525e-05)
(-0.017394264 0.0075335694 4.0761466e-05)
(-0.021606158 0.0079308196 4.4973959e-05)
(-0.025948794 0.0081264477 4.6442182e-05)
(-0.030323625 0.0081341759 4.5035373e-05)
(-0.034636259 0.0079644245 4.064724e-05)
(-0.038795526 0.0076238276 3.3190759e-05)
(-0.04271257 0.0071160053 2.2603689e-05)
(-0.046300393 0.00644311 8.8623894e-06)
(-0.049474104 0.0056077737 -7.9986105e-06)
(-0.052152 0.0046151649 -2.7863966e-05)
(-0.054257452 0.0034749254 -5.0514611e-05)
(-0.055721524 0.0022028105 -7.5607513e-05)
(-0.05648613 0.00082188689 -0.00010266143)
(-0.056507492 -0.00063681768 -0.00013105182)
(-0.055759717 -0.0021343298 -0.00016001371)
(-0.054238119 -0.0036244395 -0.00018866509)
(-0.051961999 -0.0050551473 -0.000216039)
(-0.048976621 -0.0063708371 -0.00024113257)
(-0.045354079 -0.0075150991 -0.00026296839)
(-0.041192799 -0.0084340679 -0.00028066432)
(-0.036615495 -0.0090800748 -0.00029350576)
(-0.031765459 -0.0094153623 -0.00030101348)
(-0.026801181 -0.0094155728 -0.00030299865)
(-0.021889404 -0.0090727373 -0.00029959786)
(-0.017196846 -0.0083975571 -0.00029128279)
(-0.012880908 -0.0074209127 -0.00027884267)
(-0.0090797783 -0.0061947472 -0.00026334074)
(-0.005902361 -0.0047927625 -0.00024604735)
(-0.003418481 -0.0033117468 -0.00022835454)
(-0.0016495649 -0.0018745493 -0.00021168789)
(-0.0005598356 -0.0006347901 -0.00019743532)
(-5.0136509e-05 0.00021489793 -0.00018682954)
(3.8085809e-05 0.0004137759 -0.00016801964)
(-0.00013085689 0.00044556124 -5.8178964e-05)
(-0.0009708806 0.0022425764 -4.1114338e-05)
(-0.002846002 0.0043589152 -2.4233358e-05)
(-0.0055643953 0.0064567784 -9.8024803e-06)
(-0.0090087578 0.0083528866 3.1145489e-06)
(-0.013074462 0.0099507324 1.409299e-05)
(-0.017640926 0.011210926 2.2869897e-05)
(-0.022582946 0.012128688 2.9340436e-05)
(-0.027777501 0.012716585 3.3427427e-05)
(-0.033105577 0.012993188 3.505804e-05)
(-0.038452559 0.012976414 3.4155007e-05)
(-0.043707806 0.012680293 3.0629946e-05)
(-0.048763834 0.012114261 2.4386021e-05)
(-0.053515615 0.011284196 1.532977e-05)
(-0.057860392 0.010194568 3.3898978e-06)
(-0.061698245 0.0088511697 -1.1459063e-05)
(-0.064933493 0.0072640083 -2.917046e-05)
(-0.067476935 0.0054500171 -4.9599044e-05)
(-0.069248786 0.0034353307 -7.2477024e-05)
(-0.07018217 0.0012569172 -9.7395729e-05)
(-0.070226903 -0.0010365962 -0.00012379594)
(-0.069353345 -0.0033850424 -0.0001509694)
(-0.067556008 -0.0057177949 -0.00017807542)
(-0.06485662 -0.0079559346 -0.00020417242)
(-0.061306351 -0.010015424 -0.00022826573)
(-0.056986886 -0.011811214 -0.00024936931)
(-0.052010076 -0.013262101 -0.00026657744)
(-0.046515903 -0.01429608 -0.0002791402)
(-0.040668618 -0.014855839 -0.00028653505)
(-0.034650952 -0.014903999 -0.00028852559)
(-0.02865648 -0.014427698 -0.00028519924)
(-0.022880348 -0.013442178 -0.0002769768)
(-0.017508737 -0.011993182 -0.0002645914)
(-0.012707573 -0.010158238 -0.00024903868)
(-0.0086111867 -0.0080471875 -0.00023150211)
(-0.0053116255 -0.0058028012 -0.00021326459)
(-0.0028484875 -0.0036024461 -0.00019564271)
(-0.001200044 -0.0016606114 -0.00017989973)
(-0.00028882108 -0.00023389175 -0.00016675409)
(-2.4746851e-06 0.00035039338 -0.00014551756)
(-0.00019285045 0.0010312585 -7.6657023e-05)
(-0.001323883 0.0038922899 -5.4754178e-05)
(-0.0037515599 0.0069675225 -3.4551143e-05)
(-0.0071727288 0.0099101097 -1.8459229e-05)
(-0.011413897 0.012526479 -4.6651014e-06)
(-0.016340182 0.01471341 6.6960293e-06)
(-0.021807887 0.016429273 1.5611222e-05)
(-0.027673687 0.017670694 2.2195057e-05)
(-0.033799733 0.018453869 2.6525981e-05)
(-0.040053709 0.018801816 2.8630707e-05)
(-0.046308232 0.018736699 2.8486504e-05)
(-0.052440009 0.01827608 2.6022464e-05)
(-0.058328887 0.017432193 2.1129069e-05)
(-0.063857217 0.016213369 1.3676197e-05)
(-0.06890982 0.014626846 3.5373937e-06)
(-0.07337476 0.012682309 -9.3814554e-06)
(-0.077144967 0.010395614 -2.5110949e-05)
(-0.080120673 0.007792267 -4.3586751e-05)
(-0.082212554 0.0049103177 -6.4620539e-05)
(-0.0833454 0.0018024068 -8.7876334e-05)
(-0.083462101 -0.0014632283 -0.00011285552)
(-0.082527714 -0.0048029497 -0.00013889424)
(-0.080533351 -0.0081191837 -0.00016517508)
(-0.077499596 -0.011303261 -0.00019075692)
(-0.073479144 -0.01423958 -0.00021462183)
(-0.068558333 -0.016811002 -0.00023573843)
(-0.062857258 -0.018905302 -0.00025313724)
(-0.05652813 -0.020422341 -0.00026599176)
(-0.04975163 -0.021281546 -0.00027369651)
(-0.042731095 -0.021429175 -0.00027593271)
(-0.03568451 -0.020844803 -0.00027271195)
(-0.028834494 -0.019546515 -0.0002643899)
(-0.022396668 -0.017594427 -0.00025164562)
(-0.016567046 -0.015092423 -0.00023542724)
(-0.011509411 -0.012188343 -0.00021686827)
(-0.0073436427 -0.0090733745 -0.00019719406)
(-0.0041344205 -0.0059815625 -0.00017768164)
(-0.0018815655 -0.0031890651 -0.00015956778)
(-0.00053619107 -0.0010144205 -0.00014317589)
(-4.1247501e-05 0.00015887342 -0.00011908149)
(-0.00025009613 0.0017984607 -9.2141725e-05)
(-0.0016596354 0.0059837268 -6.5253055e-05)
(-0.0046240731 0.010197876 -4.1568746e-05)
(-0.0087314477 0.01410597 -2.3515662e-05)
(-0.013750473 0.017521014 -8.4789695e-06)
(-0.019513483 0.020345573 3.6582795e-06)
(-0.025852043 0.022544212 1.3107845e-05)
(-0.032604378 0.024120176 2.0185747e-05)
(-0.03961871 0.025096221 2.5114214e-05)
(-0.046751301 0.025501278 2.8011517e-05)
(-0.053864566 0.025362363 2.890329e-05)
(-0.060825516 0.024700752 2.7730311e-05)
(-0.067504448 0.023531512 2.4364083e-05)
(-0.073774161 0.021865482 1.863061e-05)
(-0.079509915 0.019712832 1.0340144e-05)
(-0.084590247 0.017087442 -6.7874192e-07)
(-0.088898654 0.014011461 -1.4542459e-05)
(-0.092326088 0.010519539 -3.1275175e-05)
(-0.094774147 0.0066623341 -5.0773655e-05)
(-0.096158817 0.0025089934 -7.2777246e-05)
(-0.096414579 -0.0018516226 -9.6846586e-05)
(-0.095498678 -0.0063111449 -0.00012235559)
(-0.093395348 -0.010743435 -0.00014849771)
(-0.090119733 -0.015007993 -0.00017431329)
(-0.085721159 -0.018955005 -0.00019873535)
(-0.080285451 -0.022431979 -0.00022065468)
(-0.073935889 -0.02529178 -0.00023900018)
(-0.066832371 -0.027401745 -0.00025282731)
(-0.05916842 -0.028653362 -0.00026140572)
(-0.051165706 -0.028971887 -0.00026429491)
(-0.043065964 -0.028325136 -0.00026139762)
(-0.035120402 -0.026730693 -0.00025298161)
(-0.027576989 -0.0242609 -0.0002396644)
(-0.020666385 -0.021045237 -0.000222359)
(-0.014587709 -0.017270123 -0.00020218242)
(-0.0094954297 -0.013176734 -0.00018035408)
(-0.005486285 -0.0090576922 -0.00015817856)
(-0.0025878711 -0.0052521741 -0.00013694839)
(-0.00078445167 -0.0021406034 -0.00011666701)
(-7.6873942e-05 -0.00016060938 -8.9460417e-05)
(-0.00030293004 0.0027363401 -0.00010296366)
(-0.0019753298 0.0084974785 -7.0994675e-05)
(-0.005451678 0.014027519 -4.3849219e-05)
(-0.010217111 0.019019938 -2.3706478e-05)
(-0.015983844 0.023309306 -7.2129984e-06)
(-0.02255093 0.026816138 5.9741721e-06)
(-0.029724745 0.029520174 1.6269548e-05)
(-0.037325176 0.031437391 2.4170901e-05)
(-0.045187355 0.032600953 3.0028294e-05)
(-0.05315767 0.033047922 3.4038658e-05)
(-0.061090454 0.032811298 3.6265156e-05)
(-0.068845526 0.031916544 3.6650677e-05)
(-0.07628631 0.030381671 3.5038743e-05)
(-0.083278716 0.028219967 3.1202518e-05)
(-0.089690896 0.025444394 2.4879725e-05)
(-0.095393926 0.022072859 1.5812025e-05)
(-0.10026337 0.01813361 3.787408e-06)
(-0.10418169 0.013670228 -1.1316379e-05)
(-0.10704131 0.0087457628 -2.9489928e-05)
(-0.10874835 0.0034457009 -5.0554937e-05)
(-0.10922678 -0.002120489 -7.4135506e-05)
(-0.10842292 -0.0078194362 -9.9643714e-05)
(-0.10631004 -0.013495683 -0.00012627874)
(-0.10289301 -0.018975476 -0.00015305073)
(-0.098212409 -0.024072502 -0.00017882421)
(-0.09234802 -0.028595627 -0.00020238443)
(-0.085421024 -0.032358488 -0.00022252267)
(-0.07759445 -0.035190618 -0.00023813371)
(-0.069071296 -0.036949587 -0.00024831565)
(-0.060089833 -0.037533363 -0.0002524599)
(-0.050915758 -0.036891938 -0.00025031874)
(-0.041831187 -0.035037134 -0.0002420398)
(-0.033120817 -0.032049596 -0.00022816092)
(-0.025056082 -0.028082197 -0.00020956137)
(-0.017878815 -0.023359587 -0.00018736675)
(-0.011785953 -0.018174261 -0.00016283875)
(-0.0069137748 -0.012879985 -0.00013737599)
(-0.0033237069 -0.0078821115 -0.00011240544)
(-0.0010368272 -0.0036261654 -8.7699318e-05)
(-0.00011093289 -0.00060707841 -5.7258473e-05)
(-0.00035166198 0.0038335372 -0.00010765942)
(-0.0022694883 0.011409487 -7.0505131e-05)
(-0.0062269437 0.01842587 -4.0029838e-05)
(-0.011613761 0.024618037 -1.7781475e-05)
(-0.018088797 0.029855233 2.805357e-07)
(-0.025418911 0.034087233 1.4707922e-05)
(-0.033385978 0.03731784 2.6100115e-05)
(-0.041792289 0.039582232 3.5117824e-05)
(-0.050460939 0.040928364 4.2222027e-05)
(-0.059229925 0.041404175 4.7673514e-05)
(-0.067947399 0.041050206 5.1559984e-05)
(-0.076468191 0.039896843 5.3814882e-05)
(-0.084651224 0.037965236 5.4243122e-05)
(-0.092357875 0.035270948 5.2554769e-05)
(-0.099451354 0.031829306 4.8404575e-05)
(-0.10579707 0.027661591 4.1436259e-05)
(-0.11126389 0.022801307 3.1330377e-05)
(-0.11572627 0.017299945 1.7853976e-05)
(-0.11906714 0.011231798 9.09595e-07)
(-0.12118141 0.0046975161 -1.9419486e-05)
(-0.1219802 -0.0021738799 -4.2831927e-05)
(-0.12139544 -0.0092247439 -6.8786468e-05)
(-0.11938507 -0.016270407 -9.6491049e-05)
(-0.11593844 -0.023103084 -0.00012492204)
(-0.1110816 -0.029498018 -0.0001528628)
(-0.10488228 -0.035222091 -0.00017896989)
(-0.097453728 -0.04004486 -0.00020186261)
(-0.088957031 -0.043751758 -0.00022022998)
(-0.079600869 -0.04615894 -0.00023294532)
(-0.069638126 -0.04712887 -0.00023917512)
(-0.059358721 -0.046585452 -0.00023846708)
(-0.049078406 -0.044527236 -0.00023080384)
(-0.039123766 -0.041037205 -0.0002166135)
(-0.029814264 -0.036287865 -0.00019673151)
(-0.021443106 -0.030540915 -0.00017230647)
(-0.01425884 -0.024141602 -0.00014468335)
(-0.0084457384 -0.017508564 -0.00011541934)
(-0.0041055757 -0.011118806 -8.6154783e-05)
(-0.0013000259 -0.0054896327 -5.6496719e-05)
(-0.00014465577 -0.0011817784 -2.2543568e-05)
(-0.000396357 0.0050782818 -0.00010490997)
(-0.0025405838 0.014692331 -6.2431996e-05)
(-0.0069436188 0.023356133 -2.8828673e-05)
(-0.012908157 0.030858375 -4.5293598e-06)
(-0.020043988 0.037114437 1.5148284e-05)
(-0.028088005 0.042113629 3.0953369e-05)
(-0.036799178 0.045892255 4.3655978e-05)
(-0.045963541 0.048511135 5.4062832e-05)
(-0.055393496 0.050037625 6.2729747e-05)
(-0.064920198 0.050533604 6.9966719e-05)
(-0.074387421 0.050049014 7.5872756e-05)
(-0.083647047 0.048620104 8.03599e-05)
(-0.092555665 0.046271427 8.3183346e-05)
(-0.10097229 0.043020555 8.3979148e-05)
(-0.10875719 0.038884474 8.2307665e-05)
(-0.11577177 0.033886744 7.7702076e-05)
(-0.12187938 0.028064653 6.9721176e-05)
(-0.12694697 0.021475799 5.8005004e-05)
(-0.13084762 0.014203664 4.2331054e-05)
(-0.13346378 0.0063618739 2.2668317e-05)
(-0.13469139 -0.0019031033 -7.7546885e-07)
(-0.13444464 -0.010411093 -2.7524908e-05)
(-0.13266168 -0.018949272 -5.6808226e-05)
(-0.12931099 -0.027275804 -8.7574104e-05)
(-0.12439795 -0.035126009 -0.0001185203)
(-0.11797162 -0.042221517 -0.00014815705)
(-0.11013076 -0.04828254 -0.00017489934)
(-0.10102845 -0.053043126 -0.00019718304)
(-0.090874216 -0.05626894 -0.00021359604)
(-0.079932555 -0.057776605 -0.00022301054)
(-0.06851708 -0.057453155 -0.00022469896)
(-0.056979522 -0.05527368 -0.000218416)
(-0.045693658 -0.051315047 -0.00020443353)
(-0.035034923 -0.045763699 -0.00018351924)
(-0.02535774 -0.038916156 -0.00015684761)
(-0.016972891 -0.031171931 -0.00012587871)
(-0.010122654 -0.023019589 -9.2388996e-05)
(-0.0049570752 -0.015015808 -5.8311937e-05)
(-0.00158384 -0.0077600075 -2.3141528e-05)
(-0.00017999699 -0.0018920062 1.4724374e-05)
(-0.0004368345 0.006458056 -9.3512957e-05)
(-0.0027866129 0.018315439 -4.553657e-05)
(-0.00759526 0.028776028 -9.055217e-06)
(-0.014087472 0.03769192 1.7196309e-05)
(-0.021829025 0.045034674 3.8497882e-05)
(-0.030529816 0.050842328 5.5787876e-05)
(-0.039928162 0.055191469 6.9995368e-05)
(-0.049795639 0.058174741 8.2058254e-05)
(-0.059935556 0.059883502 9.2612866e-05)
(-0.070173851 0.06039679 0.00010200519)
(-0.080351702 0.059775993 0.00011033348)
(-0.090319982 0.058064327 0.00011747731)
(-0.099935004 0.055290068 0.00012313159)
(-0.10905549 0.051472464 0.0001268476)
(-0.11754074 0.046629231 0.00012807941)
(-0.12524986 0.040784718 0.0001262357)
(-0.13204194 0.033977977 0.00012073669)
(-0.13777716 0.026270203 0.00011107516)
(-0.14231872 0.017751149 9.6879825e-05)
(-0.1455357 0.0085442536 7.7978652e-05)
(-0.147307 -0.0011897345 5.4457714e-05)
(-0.14752607 -0.011250847 2.6694719e-05)
(-0.14610715 -0.021400341 -4.5800854e-06)
(-0.14299256 -0.031363249 -3.8306095e-05)
(-0.13816072 -0.040834206 -7.3101737e-05)
(-0.13163491 -0.049486707 -0.00010732138)
(-0.12349189 -0.056986234 -0.00013914718)
(-0.11386938 -0.063007418 -0.00016671315)
(-0.10297126 -0.067254887 -0.00018825384)
(-0.091068902 -0.069486886 -0.0002022641)
(-0.078497454 -0.069539982 -0.00020765074)
(-0.06564573 -0.067352447 -0.00020385401)
(-0.052939412 -0.062983449 -0.00019091932)
(-0.040818073 -0.056625059 -0.00016950276)
(-0.029708234 -0.048604776 -0.00014079262)
(-0.019995266 -0.039377612 -0.00010638566)
(-0.011991604 -0.029508286 -6.8333791e-05)
(-0.0059057481 -0.01964365 -2.8944474e-05)
(-0.0018995057 -0.010479005 1.2362342e-05)
(-0.00021910043 -0.0027504581 5.4701528e-05)
(-0.00047271981 0.0079592111 -7.2377736e-05)
(-0.003005056 0.022244873 -1.8697208e-05)
(-0.0081748134 0.034637937 2.0376605e-05)
(-0.015138422 0.045062812 4.845473e-05)
(-0.023423222 0.053555965 7.1367488e-05)
(-0.032715548 0.060212249 9.0235629e-05)
(-0.042735718 0.065155563 0.00010613721)
(-0.053242934 0.06851612 0.00012012836)
(-0.064033173 0.070413744 0.00013291379)
(-0.074928838 0.070947874 0.00014486453)
(-0.085770253 0.070193514 0.00015606817)
(-0.096409161 0.068202069 0.00016636265)
(-0.10670359 0.065005939 0.00017537365)
(-0.11651404 0.060625686 0.0001825579)
(-0.12570084 0.055078679 0.00018725157)
(-0.13412266 0.04838828 0.00018872415)
(-0.14163592 0.040592843 0.00018623836)
(-0.14809515 0.031754055 0.0001791158)
(-0.15335423 0.021964285 0.00016680704)
(-0.15726869 0.01135274 0.00014896299)
(-0.15969913 9.0261042e-05 0.00012550422)
(-0.16051618 -0.011607448 9.6691748e-05)
(-0.15960678 -0.023478995 6.3154599e-05)
(-0.15688222 -0.035218441 2.5935135e-05)
(-0.15228775 -0.046480106 -1.352483e-05)
(-0.14581347 -0.056887298 -5.3426147e-05)
(-0.13750565 -0.066045774 -9.1697442e-05)
(-0.12747777 -0.073562421 -0.00012612364)
(-0.1159195 -0.079069142 -0.000154512)
(-0.1031019 -0.082251159 -0.00017488291)
(-0.089376957 -0.082877939 -0.00018566518)
(-0.075169479 -0.08083387 -0.0001858696)
(-0.060960299 -0.076144883 -0.00017521338)
(-0.047260869 -0.068996795 -0.00015416806)
(-0.034581472 -0.059741683 -0.00012390151)
(-0.023396305 -0.048890253 -8.6155026e-05)
(-0.014102789 -0.037090317 -4.3307627e-05)
(-0.0069811081 -0.025091663 1.8755365e-06)
(-0.0022589003 -0.013702505 5.0020831e-05)
(-0.00026413326 -0.0037759588 9.7578314e-05)
(-0.00050350918 0.0095666667 -4.0534697e-05)
(-0.0031930206 0.02644306 1.9078374e-05)
(-0.0086747262 0.040888837 6.0431019e-05)
(-0.016047261 0.052908414 9.0194065e-05)
(-0.024805492 0.06261055 0.00011469555)
(-0.034615852 0.070153859 0.00013523149)
(-0.045183506 0.075715726 0.00015301975)
(-0.056257488 0.079469173 0.00016922343)
(-0.067628243 0.081566707 0.00018460584)
(-0.079116299 0.082131376 0.0001995549)
(-0.090562811 0.081254044 0.00021414055)
(-0.1018222 0.078995655 0.00022815277)
(-0.11275616 0.075393231 0.00024114148)
(-0.12322903 0.070468341 0.00025246112)
(-0.13310433 0.064236886 0.00026131958)
(-0.14224239 0.056719307 0.00026683266)
(-0.15049897 0.047950513 0.0002680856)
(-0.15772466 0.03798915 0.00026420201)
(-0.16376538 0.02692596 0.00025441989)
(-0.16846386 0.014891112 0.00023817201)
(-0.17166246 0.002060385 0.00021516812)
(-0.17320787 -0.011340081 0.00018548438)
(-0.1729574 -0.02503081 0.00014960898)
(-0.17078745 -0.038678571 0.00010851287)
(-0.16660452 -0.0518993 6.3658591e-05)
(-0.160358 -0.064265513 1.6979081e-05)
(-0.15205454 -0.075319308 -2.9193703e-05)
(-0.14177291 -0.084591919 -7.2255566e-05)
(-0.1296776 -0.091630282 -0.00010951048)
(-0.11602912 -0.096030182 -0.00013839441)
(-0.1011882 -0.09747429 -0.00015672205)
(-0.085611249 -0.095771817 -0.00016292646)
(-0.069834926 -0.090895015 -0.00015625539)
(-0.054448987 -0.083006709 -0.00013688309)
(-0.04005939 -0.072473226 -0.00010588975)
(-0.027245262 -0.059858955 -6.5147933e-05)
(-0.01650696 -0.045901632 -1.7408556e-05)
(-0.008213398 -0.031468614 3.4016752e-05)
(-0.0026741968 -0.017501224 8.9780064e-05)
(-0.00031728041 -0.0049937171 0.00014349824)
(-0.00052863928 0.011263738 2.8463216e-06)
(-0.0033474865 0.030868637 6.8634628e-05)
(-0.0090873826 0.047470299 0.00011192953)
(-0.016800369 0.061159376 0.00014322599)
(-0.025955043 0.072122863 0.00016928976)
(-0.036201654 0.08058884 0.0001915839)
(-0.047233062 0.08679346 0.00021145728)
(-0.058790302 0.090957217 0.0002301702)
(-0.07066002 0.09326923 0.00024853737)
(-0.082662422 0.093879292 0.00026695863)
(-0.094641075 0.092896439 0.00028548274)
(-0.10645478 0.090392646 0.00030384894)
(-0.11797081 0.086410224 0.00032152826)
(-0.12905944 0.08097157 0.00033776806)
(-0.13958965 0.074090087 0.00035163988)
(-0.14942588 0.065781367 0.0003620929)
(-0.15842566 0.056074039 0.00036801508)
(-0.16643816 0.045019955 0.0003683039)
(-0.1733036 0.032703601 0.00036194688)
(-0.17885387 0.019250702 0.00034811096)
(-0.18291455 0.0048359696 0.00032623857)
(-0.18530886 -0.010310244 0.00029614928)
(-0.18586364 -0.025896631 0.00025812483)
(-0.18441806 -0.04156811 0.00021299367)
(-0.18083532 -0.056906179 0.00016217752)
(-0.17501719 -0.071434063 0.00010770007)
(-0.16692123 -0.0846282 5.2139497e-05)
(-0.15657972 -0.095937635 -1.4864244e-06)
(-0.14411861 -0.10481246 -4.9907973e-05)
(-0.12977409 -0.11074153 -8.9858815e-05)
(-0.11390327 -0.11329823 -0.00011838043)
(-0.096985336 -0.11219071 -0.00013314256)
(-0.079609506 -0.10731122 -0.00013273442)
(-0.062447666 -0.09877643 -0.0001168683)
(-0.046212731 -0.086950851 -8.6422561e-05)
(-0.031606401 -0.072446606 -4.3354723e-05)
(-0.019253325 -0.056096834 9.1805401e-06)
(-0.0096327185 -0.038902347 6.7230903e-05)
(-0.0031576885 -0.021960835 0.0001314559)
(-0.00038076691 -0.0064353878 0.00019248314)
(-0.00054755961 0.013032128 5.8432776e-05)
(-0.0034656164 0.035476577 0.00013064668)
(-0.0094057558 0.054318742 0.00017552879)
(-0.017385231 0.06973994 0.00020820017)
(-0.026852668 0.082009713 0.00023579651)
(-0.037445735 0.091430001 0.00025993808)
(-0.048847682 0.098300051 0.00028209624)
(-0.060793556 0.10289189 0.00030362029)
(-0.073067753 0.10543488 0.00032537188)
(-0.085491539 0.10610861 0.00034776135)
(-0.09791231 0.10504268 0.00037081677)
(-0.11019483 0.10232179 0.00039422796)
(-0.12221377 0.097994412 0.00041738809)
(-0.13384745 0.092083853 0.00043943654)
(-0.14497274 0.084600211 0.00045930405)
(-0.15546089 0.075552498 0.00047576305)
(-0.16517423 0.064960355 0.00048748659)
(-0.17396369 0.052865123 0.00049311853)
(-0.18166716 0.039340291 0.00049135697)
(-0.18810898 0.024501409 0.00048105099)
(-0.19310097 0.0085155034 0.00046130995)
(-0.19644521 -0.0083901202 0.00043162245)
(-0.19793936 -0.025920012 0.00039197379)
(-0.1973849 -0.043704664 0.00034295927)
(-0.19459898 -0.061297548 0.00028587266)
(-0.18943009 -0.078176919 0.00022275581)
(-0.18177768 -0.093754467 0.00015638865)
(-0.17161505 -0.10739307 9.0200468e-05)
(-0.15901414 -0.11843575 2.8087804e-05)
(-0.14416941 -0.12624701 -2.5864978e-05)
(-0.12741711 -0.13026632 -6.7749588e-05)
(-0.10924466 -0.13007041 -9.4248791e-05)
(-0.090285094 -0.12543834 -0.00010304865)
(-0.071291959 -0.11640937 -9.3169321e-05)
(-0.053094361 -0.10332205 -6.5109112e-05)
(-0.036534987 -0.086823991 -2.0814541e-05)
(-0.022387538 -0.06784601 3.6148409e-05)
(-0.011268299 -0.047538492 0.00010109026)
(-0.0037216852 -0.027181681 0.00017465835)
(-0.00045689048 -0.0081391011 0.0002443555)
(-0.00055980824 0.014852101 0.00012670497)
(-0.0035451152 0.040218671 0.00020559898)
(-0.0096242159 0.061366103 0.00025169973)
(-0.017791725 0.078568635 0.00028558081)
(-0.02748249 0.092180855 0.00031467265)
(-0.038324917 0.10258156 0.00034074136)
(-0.049995061 0.11013642 0.00036537263)
(-0.062223708 0.11517248 0.00038999854)
(-0.074794307 0.11796266 0.00041552641)
(-0.087530343 0.11871936 0.00044237955)
(-0.10028426 0.11759526 0.0004705702)
(-0.11292819 0.11468964 0.0004997448)
(-0.12534593 0.11005838 0.00052922436)
(-0.13742594 0.10372609 0.00055804417)
(-0.14905547 0.095699142 0.00058499434)
(-0.16011558 0.085978623 0.00060866493)
(-0.17047685 0.074572844 0.0006275003)
(-0.17999589 0.061509228 0.0006398665)
(-0.18851261 0.046845727 0.00064413505)
(-0.19584851 0.030681983 0.00063878502)
(-0.2018063 0.013170406 0.00062252377)
(-0.20617138 -0.0054728075 0.00059442457)
(-0.20871582 -0.024957029 0.00055407485)
(-0.20920549 -0.044907768 0.00050172527)
(-0.2074112 -0.064859641 0.00043842657)
(-0.20312466 -0.084253709 0.00036613164)
(-0.1961796 -0.10244173 0.00028773871)
(-0.18647817 -0.11870038 0.00020704748)
(-0.17402139 -0.13225862 0.00012860175)
(-0.15894141 -0.14234095 5.7401695e-05)
(-0.14153111 -0.14822752 -1.5133153e-06)
(-0.12226498 -0.14932931 -4.3582877e-05)
(-0.10180379 -0.14527178 -6.5285585e-05)
(-0.08097589 -0.13597554 -6.464024e-05)
(-0.06073174 -0.12171827 -4.1502387e-05)
(-0.042072784 -0.10316142 2.3605065e-06)
(-0.025949512 -0.081329828 6.3005841e-05)
(-0.013147738 -0.057538215 0.00013491684)
(-0.0043784229 -0.033278122 0.00021870628)
(-0.00054805917 -0.010149477 0.00029865176)
(-0.00056509078 0.016702864 0.00020793383)
(-0.0035846255 0.045044429 0.0002937674)
(-0.0097394572 0.06854102 0.0003407109)
(-0.018013638 0.087559513 0.00037562781)
(-0.027834056 0.10254008 0.00040616203)
(-0.038822725 0.11393991 0.00043421281)
(-0.050650501 0.12219353 0.0004614731)
(-0.063045293 0.12768583 0.00048945417)
(-0.075790607 0.13073641 0.00051911146)
(-0.088713062 0.13159344 0.00055088818)
(-0.10167115 0.13043534 0.00058479043)
(-0.11454564 0.12737815 0.00062043224)
(-0.12723102 0.12248671 0.00065707335)
(-0.13962792 0.11578781 0.00069365417)
(-0.15163652 0.10728417 0.00072882983)
(-0.16315081 0.096968161 0.00076100808)
(-0.17405343 0.084835019 0.00078839669)
(-0.1842112 0.070895435 0.00080906537)
(-0.19347129 0.055187804 0.00082102719)
(-0.20165821 0.037790493 0.00082234292)
(-0.20857193 0.018834449 0.00081125067)
(-0.2139877 -0.00148368 0.00078632073)
(-0.2176581 -0.022888066 0.0007466335)
(-0.21931834 -0.045010507 0.00069196681)
(-0.2186958 -0.067378769 0.00062298703)
(-0.21552497 -0.089408354 0.00054141448)
(-0.20956891 -0.1104007 0.00045013623)
(-0.20064801 -0.12955158 0.00035322941)
(-0.18867552 -0.14597411 0.00025585493)
(-0.17369833 -0.15874096 0.00016398703)
(-0.15593862 -0.16694903 8.3961315e-05)
(-0.13582939 -0.16980667 2.1855039e-05)
(-0.11403423 -0.16673824 -1.7242795e-05)
(-0.091440467 -0.15749321 -2.9951279e-05)
(-0.069118275 -0.14223955 -1.5113642e-05)
(-0.048242756 -0.12161752 2.5950458e-05)
(-0.02997079 -0.096732639 8.9025152e-05)
(-0.015296086 -0.069074842 0.00016769874)
(-0.0051399381 -0.040377447 0.0002625273)
(-0.00065682784 -0.012517612 0.00035452058)
(-0.00056336197 0.018563168 0.00030216427)
(-0.0035841548 0.049902473 0.00039520804)
(-0.0097515189 0.075770615 0.00044261922)
(-0.018050356 0.096624007 0.00047838563)
(-0.027904703 0.11298691 0.00051027965)
(-0.038932397 0.12539507 0.00054032034)
(-0.050800569 0.13435333 0.00057030294)
(-0.063235229 0.14030688 0.00060181809)
(-0.076020663 0.14362486 0.00063587656)
(-0.08898731 0.14459423 0.00067295352)
(-0.10200055 0.14342199 0.00071306381)
(-0.11495088 0.14024344 0.00075580523)
(-0.12774495 0.1351343 0.0008003924)
(-0.14029748 0.12812496 0.0008456855)
(-0.15252411 0.11921514 0.00089021622)
(-0.16433491 0.10838843 0.00093221658)
(-0.17562856 0.095626021 0.00096965707)