/*--------------------------------*- C++ -*----------------------------------*\
  =========                 |
  \\      /  F ield         | OpenFOAM: The Open Source CFD Toolbox
   \\    /   O peration     | Website:  https://openfoam.org
    \\  /    A nd           | Version:  7
     \\/     M anipulation  |
\*---------------------------------------------------------------------------*/
FoamFile
{
    version     2.0;
    format      ascii;
    class       volScalarField;
    location    "1.9";
    object      rho;
}
// * * * * * * * * * * * * * * * * * * * * * * * * * * * * * * * * * * * * * //

dimensions      [1 -3 0 0 0 0 0];

internalField   nonuniform List<scalar> 
19968
(
1.40001
1.40001
1.40001
1.40001
1.40001
1.40001
1.40001
1.40001
1.40001
1.40001
1.40001
1.40001
1.40001
1.40001
1.40001
1.40001
1.40001
1.40001
1.40001
1.40001
1.40001
1.40001
1.40001
1.40001
1.40001
1.40001
1.40001
1.40001
1.40001
1.40001
1.40001
1.40001
1.40001
1.40001
1.40001
1.40001
1.40001
1.40001
1.40001
1.40001
1.40001
1.40001
1.40001
1.40001
1.40001
1.40001
1.40001
1.40001
1.40001
1.40001
3.47351
5.38074
5.45582
5.47865
5.50773
5.53746
5.5688
5.59169
5.60038
5.59923
5.59554
5.59938
5.61529
5.64031
5.66867
5.69529
5.71851
5.73897
5.75556
5.76728
5.77589
5.7858
5.80034
5.81841
5.83658
5.85225
5.86432
5.87324
5.88137
5.89033
5.89951
5.90711
5.91276
5.91851
5.92633
5.93574
5.94459
5.95142
5.95518
5.95562
5.95236
5.94299
5.92541
5.90339
5.88654
5.87926
1.40001
1.40001
1.40001
1.40001
1.40001
1.40001
1.40001
1.40001
1.40001
1.40001
1.40001
1.40001
1.40001
1.40001
1.40001
1.40001
1.40001
1.40001
1.40001
1.40001
1.40001
1.40001
1.40001
1.40001
1.40001
1.40001
1.40001
1.40001
1.40001
1.40001
1.40001
1.40001
1.40001
1.40001
1.40001
1.40001
1.40001
1.40001
1.40001
1.40001
1.40001
1.40001
1.40001
1.40001
1.40001
1.40001
1.40001
1.40001
1.40001
1.40001
3.43914
5.37096
5.4503
5.47527
5.50512
5.53488
5.56604
5.58906
5.59812
5.59735
5.59383
5.59743
5.6129
5.63785
5.66627
5.69324
5.71706
5.7379
5.75452
5.766
5.77443
5.78458
5.79929
5.81739
5.83537
5.85084
5.86278
5.87169
5.87986
5.88878
5.89771
5.90495
5.91034
5.91611
5.92422
5.93391
5.94279
5.94945
5.95303
5.95339
5.95023
5.94099
5.92342
5.9012
5.88403
5.87646
1.40001
1.40001
1.40001
1.40001
1.40001
1.40001
1.40001
1.40001
1.40001
1.40001
1.40001
1.40001
1.40001
1.40001
1.40001
1.40001
1.40001
1.40001
1.40001
1.40001
1.40001
1.40001
1.40001
1.40001
1.40001
1.40001
1.40001
1.40001
1.40001
1.40001
1.40001
1.40001
1.40001
1.40001
1.40001
1.40001
1.40001
1.40001
1.40001
1.40001
1.40001
1.40001
1.40001
1.40001
1.40001
1.40001
1.40001
1.40001
1.40001
1.40001
3.36167
5.35449
5.44403
5.46925
5.49963
5.52964
5.561
5.58488
5.59525
5.59538
5.59189
5.59462
5.60926
5.63398
5.66259
5.69019
5.71474
5.7359
5.75255
5.76384
5.77214
5.78252
5.79726
5.81521
5.83291
5.84824
5.86009
5.86908
5.87738
5.88627
5.89489
5.90166
5.90673
5.91251
5.92096
5.93097
5.93983
5.9462
5.94943
5.94956
5.94644
5.93729
5.91961
5.89706
5.87938
5.87128
1.40001
1.40001
1.40001
1.40001
1.40001
1.40001
1.40001
1.40001
1.40001
1.40001
1.40001
1.40001
1.40001
1.40001
1.40001
1.40001
1.40001
1.40001
1.40001
1.40001
1.40001
1.40001
1.40001
1.40001
1.40001
1.40001
1.40001
1.40001
1.40001
1.40001
1.40001
1.40001
1.40001
1.40001
1.40001
1.40001
1.40001
1.40001
1.40001
1.40001
1.40001
1.40001
1.40001
1.40001
1.40001
1.40001
1.40001
1.40001
1.40001
1.40001
3.23547
5.32938
5.43862
5.46205
5.49138
5.52122
5.55265
5.57809
5.59135
5.59343
5.59021
5.59179
5.60507
5.62923
5.65804
5.6863
5.71142
5.73274
5.74935
5.76058
5.76899
5.7796
5.79406
5.81143
5.8286
5.84378
5.85557
5.86478
5.87328
5.88206
5.89021
5.89644
5.90122
5.90712
5.91591
5.9261
5.93483
5.94093
5.94392
5.94394
5.94088
5.93166
5.91359
5.89039
5.87194
5.86315
1.40001
1.40001
1.40001
1.40001
1.40001
1.40001
1.40001
1.40001
1.40001
1.40001
1.40001
1.40001
1.40001
1.40001
1.40001
1.40001
1.40001
1.40001
1.40001
1.40001
1.40001
1.40001
1.40001
1.40001
1.40001
1.40001
1.40001
1.40001
1.40001
1.40001
1.40001
1.40001
1.40001
1.40001
1.40001
1.40001
1.40001
1.40001
1.40001
1.40001
1.40001
1.40001
1.40001
1.40001
1.40001
1.40001
1.40001
1.40001
1.40001
1.40001
3.06463
5.29381
5.42798
5.45167
5.48046
5.51023
5.5422
5.56985
5.5867
5.59139
5.58906
5.58978
5.60151
5.62463
5.65328
5.68188
5.7072
5.72842
5.74492
5.75635
5.76529
5.77615
5.78985
5.80599
5.82215
5.83692
5.84872
5.85835
5.86715
5.87574
5.88333
5.88905
5.89369
5.89974
5.90869
5.91877
5.92728
5.93333
5.9365
5.93677
5.9338
5.92431
5.90551
5.88142
5.862
5.85257
1.40001
1.40001
1.40001
1.40001
1.40001
1.40001
1.40001
1.40001
1.40001
1.40001
1.40001
1.40001
1.40001
1.40001
1.40001
1.40001
1.40001
1.40001
1.40001
1.40001
1.40001
1.40001
1.40001
1.40001
1.40001
1.40001
1.40001
1.40001
1.40001
1.40001
1.40001
1.40001
1.40001
1.40001
1.40001
1.40001
1.40001
1.40001
1.40001
1.40001
1.40001
1.40001
1.40001
1.40001
1.40001
1.40001
1.40001
1.40001
1.40001
1.40001
2.83945
5.2385
5.4189
5.44246
5.47018
5.49896
5.53064
5.55983
5.58029
5.58826
5.58787
5.58889
5.59962
5.62119
5.64883
5.67691
5.70173
5.72217
5.73814
5.74966
5.75937
5.77048
5.78295
5.79723
5.81205
5.82649
5.83882
5.84946
5.85891
5.86742
5.87454
5.87992
5.88451
5.8905
5.89903
5.90837
5.91639
5.92259
5.92639
5.92728
5.92434
5.91426
5.89441
5.86931
5.84904
5.83937
1.40001
1.40001
1.40001
1.40001
1.40001
1.40001
1.40001
1.40001
1.40001
1.40001
1.40001
1.40001
1.40001
1.40001
1.40001
1.40001
1.40001
1.40001
1.40001
1.40001
1.40001
1.40001
1.40001
1.40001
1.40001
1.40001
1.40001
1.40001
1.40001
1.40001
1.40001
1.40001
1.40001
1.40001
1.40001
1.40001
1.40001
1.40001
1.40001
1.40001
1.40001
1.40001
1.40001
1.40001
1.40001
1.40001
1.40001
1.40001
1.40001
1.40001
2.56009
5.14925
5.41391
5.43572
5.46132
5.48834
5.51885
5.54778
5.56969
5.5806
5.58356
5.58681
5.59748
5.61751
5.64367
5.67071
5.69469
5.71411
5.72952
5.74124
5.75194
5.76339
5.77485
5.7876
5.80124
5.81529
5.8281
5.83951
5.84927
5.85744
5.8639
5.86882
5.87313
5.87861
5.88609
5.89432
5.90196
5.9086
5.91344
5.91522
5.91223
5.90129
5.88025
5.85433
5.83365
5.82436
1.40001
1.40001
1.40001
1.40001
1.40001
1.40001
1.40001
1.40001
1.40001
1.40001
1.40001
1.40001
1.40001
1.40001
1.40001
1.40001
1.40001
1.40001
1.40001
1.40001
1.40001
1.40001
1.40001
1.40001
1.40001
1.40001
1.40001
1.40001
1.40001
1.40001
1.40001
1.40001
1.40001
1.40001
1.40001
1.40001
1.40001
1.40001
1.40001
1.40001
1.40001
1.40001
1.40001
1.40001
1.40001
1.40001
1.40001
1.40001
1.40001
1.40001
2.21516
4.99443
5.41957
5.43502
5.45664
5.48114
5.50963
5.5367
5.55798
5.5707
5.57738
5.5836
5.59478
5.6134
5.63771
5.6632
5.68583
5.70378
5.71802
5.7294
5.7407
5.75257
5.7639
5.77584
5.78829
5.80126
5.81363
5.82506
5.83488
5.84284
5.84887
5.85335
5.85717
5.86193
5.86836
5.87585
5.88365
5.89115
5.89726
5.89998
5.89671
5.88467
5.8624
5.83593
5.81536
5.80693
1.40001
1.40001
1.40001
1.40001
1.40001
1.40001
1.40001
1.40001
1.40001
1.40001
1.40001
1.40001
1.40001
1.40001
1.40001
1.40001
1.40001
1.40001
1.40001
1.40001
1.40001
1.40001
1.40001
1.40001
1.40001
1.40001
1.40001
1.40001
1.40001
1.40001
1.40001
1.40001
1.40001
1.40001
1.40001
1.40001
1.40001
1.40001
1.40001
1.40001
1.40001
1.40001
1.40001
1.40001
1.40001
1.40001
1.40001
1.40001
1.40001
1.40001
1.85669
4.74209
5.43272
5.4377
5.45198
5.47083
5.49516
5.51936
5.53994
5.55435
5.56427
5.57349
5.58621
5.60434
5.62706
5.65095
5.67231
5.68896
5.70164
5.71222
5.72356
5.73644
5.74894
5.76134
5.77334
5.78521
5.7967
5.80787
5.81808
5.82663
5.83293
5.83701
5.83976
5.84303
5.84778
5.85405
5.86149
5.86916
5.87561
5.87831
5.87421
5.86094
5.83782
5.8115
5.79184
5.78479
1.40001
1.40001
1.40001
1.40001
1.40001
1.40001
1.40001
1.40001
1.40001
1.40001
1.40001
1.40001
1.40001
1.40001
1.40001
1.40001
1.40001
1.40001
1.40001
1.40001
1.40001
1.40001
1.40001
1.40001
1.40001
1.40001
1.40001
1.40001
1.40001
1.40001
1.40001
1.40001
1.40001
1.40001
1.40001
1.40001
1.40001
1.40001
1.40001
1.40001
1.40001
1.40001
1.40001
1.40001
1.40001
1.40001
1.40001
1.40001
1.40001
1.40001
1.52582
4.31824
5.43268
5.43767
5.45306
5.46993
5.48961
5.51033
5.52915
5.54324
5.55374
5.56495
5.58034
5.5996
5.62161
5.6439
5.66351
5.6783
5.68838
5.69655
5.70567
5.71729
5.72951
5.74134
5.75198
5.76145
5.77042
5.77993
5.78978
5.79872
5.80519
5.80876
5.81053
5.81287
5.81724
5.82388
5.83209
5.84026
5.84651
5.84841
5.84313
5.82881
5.8054
5.77978
5.7614
5.75577
1.40001
1.40001
1.40001
1.40001
1.40001
1.40001
1.40001
1.40001
1.40001
1.40001
1.40001
1.40001
1.40001
1.40001
1.40001
1.40001
1.40001
1.40001
1.40001
1.40001
1.40001
1.40001
1.40001
1.40001
1.40001
1.40001
1.40001
1.40001
1.40001
1.40001
1.40001
1.40001
1.40001
1.40001
1.40001
1.40001
1.40001
1.40001
1.40001
1.40001
1.40001
1.40001
1.40001
1.40001
1.40001
1.40001
1.40001
1.40001
1.40001
1.40001
1.40206
3.66269
5.36043
5.41078
5.42945
5.4459
5.46106
5.47789
5.49487
5.50941
5.52194
5.53628
5.55417
5.57398
5.59552
5.61752
5.63717
5.65208
5.6616
5.66907
5.67773
5.68964
5.70331
5.71628
5.72719
5.73556
5.74287
5.75113
5.76085
5.77016
5.77649
5.77888
5.77874
5.77915
5.78241
5.7886
5.79664
5.80425
5.80907
5.80941
5.80326
5.78879
5.7661
5.74156
5.72431
5.71983
1.40001
1.40001
1.40001
1.40001
1.40001
1.40001
1.40001
1.40001
1.40001
1.40001
1.40001
1.40001
1.40001
1.40001
1.40001
1.40001
1.40001
1.40001
1.40001
1.40001
1.40001
1.40001
1.40001
1.40001
1.40001
1.40001
1.40001
1.40001
1.40001
1.40001
1.40001
1.40001
1.40001
1.40001
1.40001
1.40001
1.40001
1.40001
1.40001
1.40001
1.40001
1.40001
1.40001
1.40001
1.40001
1.40001
1.40001
1.40001
1.40001
1.40001
1.40001
2.854
5.19284
5.40591
5.4309
5.44772
5.45972
5.47158
5.48435
5.49647
5.5082
5.52207
5.5388
5.55686
5.57666
5.59668
5.6158
5.63104
5.64046
5.64658
5.6534
5.66355
5.67673
5.68956
5.69985
5.70665
5.71169
5.71768
5.72614
5.73514
5.74123
5.74289
5.74111
5.73976
5.74187
5.7474
5.75486
5.76141
5.76481
5.76324
5.75567
5.74089
5.71827
5.69357
5.67601
5.67154
1.40001
1.40001
1.40001
1.40001
1.40001
1.40001
1.40001
1.40001
1.40001
1.40001
1.40001
1.40001
1.40001
1.40001
1.40001
1.40001
1.40001
1.40001
1.40001
1.40001
1.40001
1.40001
1.40001
1.40001
1.40001
1.40001
1.40001
1.40001
1.40001
1.40001
1.40001
1.40001
1.40001
1.40001
1.40001
1.40001
1.40001
1.40001
1.40001
1.40001
1.40001
1.40001
1.40001
1.40001
1.40001
1.40001
1.40001
1.40001
1.40001
1.40001
1.40001
1.98266
4.81159
5.42123
5.42264
5.43991
5.45054
5.46142
5.47229
5.48257
5.49223
5.50312
5.51633
5.5314
5.54812
5.56565
5.58356
5.59911
5.60957
5.61528
5.62038
5.62722
5.63755
5.649
5.65863
5.66482
5.66851
5.67217
5.67826
5.68602
5.69201
5.69372
5.69119
5.68777
5.68716
5.68946
5.69319
5.69601
5.69655
5.69344
5.68635
5.67401
5.65377
5.63039
5.61279
5.60816
1.40001
1.40001
1.40001
1.40001
1.40001
1.40001
1.40001
1.40001
1.40001
1.40001
1.40001
1.40001
1.40001
1.40001
1.40001
1.40001
1.40001
1.40001
1.40001
1.40001
1.40001
1.40001
1.40001
1.40001
1.40001
1.40001
1.40001
1.40001
1.40001
1.40001
1.40001
1.40001
1.40001
1.40001
1.40001
1.40001
1.40001
1.40001
1.40001
1.40001
1.40001
1.40001
1.40001
1.40001
1.40001
1.40001
1.40001
1.40001
1.40001
1.40001
1.40001
1.42707
3.85304
5.38791
5.40887
5.42587
5.44029
5.45249
5.46338
5.47302
5.48114
5.48877
5.49735
5.50802
5.52055
5.53423
5.54841
5.562
5.57284
5.5792
5.58352
5.58765
5.59389
5.60222
5.61027
5.61562
5.61804
5.61921
5.62153
5.62629
5.63134
5.63341
5.63102
5.6257
5.62167
5.61976
5.61946
5.6191
5.61697
5.61253
5.60442
5.59027
5.56512
5.53376
5.50754
5.49508
1.40001
1.40001
1.40001
1.40001
1.40001
1.40001
1.40001
1.40001
1.40001
1.40001
1.40001
1.40001
1.40001
1.40001
1.40001
1.40001
1.40001
1.40001
1.40001
1.40001
1.40001
1.40001
1.40001
1.40001
1.40001
1.40001
1.40001
1.40001
1.40001
1.40001
1.40001
1.40001
1.40001
1.40001
1.40001
1.40001
1.40001
1.40001
1.40001
1.40001
1.40001
1.40001
1.40001
1.40001
1.40001
1.40001
1.40001
1.40001
1.40001
1.40001
1.40001
1.40003
2.56944
5.05901
5.37886
5.39706
5.41742
5.43272
5.44569
5.45693
5.46573
5.47213
5.47719
5.48314
5.49119
5.50125
5.5122
5.52314
5.53347
5.54095
5.54536
5.54793
5.55001
5.55339
5.55745
5.56024
5.56059
5.55842
5.55585
5.55527
5.5567
5.55783
5.55491
5.54762
5.53803
5.52767
5.51779
5.50703
5.49403
5.4775
5.45806
5.4349
5.4052
5.36886
5.34351
5.33337
1.40001
1.40001
1.40001
1.40001
1.40001
1.40001
1.40001
1.40001
1.40001
1.40001
1.40001
1.40001
1.40001
1.40001
1.40001
1.40001
1.40001
1.40001
1.40001
1.40001
1.40001
1.40001
1.40001
1.40001
1.40001
1.40001
1.40001
1.40001
1.40001
1.40001
1.40001
1.40001
1.40001
1.40001
1.40001
1.40001
1.40001
1.40001
1.40001
1.40001
1.40001
1.40001
1.40001
1.40001
1.40001
1.40001
1.40001
1.40001
1.40001
1.40001
1.40001
1.4
1.47866
4.21243
5.40086
5.39999
5.40202
5.41357
5.42509
5.43736
5.44752
5.45414
5.4574
5.45927
5.46176
5.46576
5.47112
5.47685
5.48276
5.48849
5.49222
5.49397
5.49411
5.49346
5.49294
5.49219
5.48987
5.48501
5.47788
5.47095
5.46614
5.46266
5.45741
5.44717
5.43126
5.41198
5.39084
5.36797
5.34411
5.31982
5.29307
5.26232
5.21857
5.15992
5.07901
5.09085
1.40001
1.40001
1.40001
1.40001
1.40001
1.40001
1.40001
1.40001
1.40001
1.40001
1.40001
1.40001
1.40001
1.40001
1.40001
1.40001
1.40001
1.40001
1.40001
1.40001
1.40001
1.40001
1.40001
1.40001
1.40001
1.40001
1.40001
1.40001
1.40001
1.40001
1.40001
1.40001
1.40001
1.40001
1.40001
1.40001
1.40001
1.40001
1.40001
1.40001
1.40001
1.40001
1.40001
1.40001
1.40001
1.40001
1.40001
1.40001
1.40001
1.40001
1.40001
1.40001
1.39873
2.90931
5.1629
5.36177
5.37069
5.38455
5.39643
5.40921
5.42087
5.42934
5.43379
5.43484
5.43391
5.4335
5.43402
5.43578
5.43781
5.44032
5.44264
5.44331
5.4425
5.43957
5.43518
5.43014
5.42441
5.41663
5.40541
5.39275
5.38091
5.37097
5.36063
5.34565
5.32346
5.29435
5.2595
5.21927
5.17232
5.11818
5.04759
4.95184
4.79841
4.56266
4.12993
3.21634
1.40001
1.40001
1.40001
1.40001
1.40001
1.40001
1.40001
1.40001
1.40001
1.40001
1.40001
1.40001
1.40001
1.40001
1.40001
1.40001
1.40001
1.40001
1.40001
1.40001
1.40001
1.40001
1.40001
1.40001
1.40001
1.40001
1.40001
1.40001
1.40001
1.40001
1.40001
1.40001
1.40001
1.40001
1.40001
1.40001
1.40001
1.40001
1.40001
1.40001
1.40001
1.40001
1.40001
1.40001
1.40001
1.40001
1.40001
1.40001
1.40001
1.40001
1.40001
1.40001
1.39982
1.7746
4.62335
5.39244
5.37028
5.37155
5.37788
5.38678
5.3972
5.40612
5.41183
5.4136
5.41157
5.40856
5.40545
5.40292
5.40099
5.39976
5.39894
5.39783
5.39627
5.39247
5.38561
5.37676
5.367
5.35555
5.34071
5.32346
5.30518
5.2879
5.27066
5.2498
5.22118
5.18368
5.13617
5.08026
5.01071
4.92877
4.82125
4.68368
4.47537
4.19552
3.64789
2.87922
1.40001
1.40001
1.40001
1.40001
1.40001
1.40001
1.40001
1.40001
1.40001
1.40001
1.40001
1.40001
1.40001
1.40001
1.40001
1.40001
1.40001
1.40001
1.40001
1.40001
1.40001
1.40001
1.40001
1.40001
1.40001
1.40001
1.40001
1.40001
1.40001
1.40001
1.40001
1.40001
1.40001
1.40001
1.40001
1.40001
1.40001
1.40001
1.40001
1.40001
1.40001
1.40001
1.40001
1.40001
1.40001
1.40001
1.40001
1.40001
1.40001
1.40001
1.40001
1.40001
1.39999
1.40991
3.45321
5.28041
5.33907
5.34355
5.35072
5.35802
5.36675
5.37557
5.38251
5.38577
5.38463
5.38016
5.37412
5.36833
5.36329
5.35932
5.35546
5.35214
5.34873
5.34364
5.33527
5.32341
5.30948
5.2938
5.275
5.25371
5.22991
5.2054
5.17998
5.15178
5.11591
5.07087
5.01286
4.94332
4.85655
4.75216
4.6214
4.45408
4.2358
3.91942
3.46631
2.94781
1.40001
1.40001
1.40001
1.40001
1.40001
1.40001
1.40001
1.40001
1.40001
1.40001
1.40001
1.40001
1.40001
1.40001
1.40001
1.40001
1.40001
1.40001
1.40001
1.40001
1.40001
1.40001
1.40001
1.40001
1.40001
1.40001
1.40001
1.40001
1.40001
1.40001
1.40001
1.40001
1.40001
1.40001
1.40001
1.40001
1.40001
1.40001
1.40001
1.40001
1.40001
1.40001
1.40001
1.40001
1.40001
1.40001
1.40001
1.40001
1.40001
1.40001
1.40001
1.40001
1.4
1.4
2.05756
4.82573
5.3384
5.32662
5.33022
5.33355
5.33906
5.34589
5.35176
5.35496
5.35506
5.3504
5.34332
5.33548
5.32799
5.32108
5.31397
5.3069
5.30098
5.29394
5.28392
5.27003
5.25266
5.23272
5.20941
5.18383
5.15516
5.12444
5.09085
5.05421
5.0106
4.95839
4.8933
4.81404
4.71725
4.59967
4.45741
4.27931
4.0579
3.7797
3.43722
3.05052
1.40001
1.40001
1.40001
1.40001
1.40001
1.40001
1.40001
1.40001
1.40001
1.40001
1.40001
1.40001
1.40001
1.40001
1.40001
1.40001
1.40001
1.40001
1.40001
1.40001
1.40001
1.40001
1.40001
1.40001
1.40001
1.40001
1.40001
1.40001
1.40001
1.40001
1.40001
1.40001
1.40001
1.40001
1.40001
1.40001
1.40001
1.40001
1.40001
1.40001
1.40001
1.40001
1.40001
1.40001
1.40001
1.40001
1.40001
1.40001
1.40001
1.40001
1.40001
1.40001
1.40001
1.4
1.43096
3.60372
5.25909
5.30537
5.31224
5.31373
5.31583
5.31904
5.32218
5.32405
5.32406
5.31963
5.31168
5.30153
5.29156
5.28256
5.27376
5.26423
5.25548
5.24579
5.23386
5.2178
5.19791
5.17438
5.14674
5.11638
5.08285
5.04674
5.00637
4.96209
4.91176
4.85384
4.785
4.70158
4.60127
4.47992
4.3375
4.16206
3.95489
3.71954
3.45604
3.15341
1.40001
1.40001
1.40001
1.40001
1.40001
1.40001
1.40001
1.40001
1.40001
1.40001
1.40001
1.40001
1.40001
1.40001
1.40001
1.40001
1.40001
1.40001
1.40001
1.40001
1.40001
1.40001
1.40001
1.40001
1.40001
1.40001
1.40001
1.40001
1.40001
1.40001
1.40001
1.40001
1.40001
1.40001
1.40001
1.40001
1.40001
1.40001
1.40001
1.40001
1.40001
1.40001
1.40001
1.40001
1.40001
1.40001
1.40001
1.40001
1.40001
1.40001
1.40001
1.40001
1.40001
1.40001
1.40003
2.05487
4.79594
5.30279
5.28321
5.28801
5.29005
5.29292
5.2954
5.29623
5.2944
5.2892
5.2807
5.26921
5.25783
5.24791
5.23818
5.22672
5.21398
5.20026
5.18528
5.16739
5.14596
5.12036
5.08968
5.05505
5.01663
4.97517
4.92929
4.87896
4.82307
4.7603
4.68826
4.60341
4.50332
4.38477
4.2492
4.08575
3.90098
3.70327
3.48624
3.24575
1.40001
1.40001
1.40001
1.40001
1.40001
1.40001
1.40001
1.40001
1.40001
1.40001
1.40001
1.40001
1.40001
1.40001
1.40001
1.40001
1.40001
1.40001
1.40001
1.40001
1.40001
1.40001
1.40001
1.40001
1.40001
1.40001
1.40001
1.40001
1.40001
1.40001
1.40001
1.40001
1.40001
1.40001
1.40001
1.40001
1.40001
1.40001
1.40001
1.40001
1.40001
1.40001
1.40001
1.40001
1.40001
1.40001
1.40001
1.40001
1.40001
1.40001
1.40001
1.40001
1.40001
1.40001
1.40001
1.42857
3.42377
5.19943
5.26155
5.25871
5.2607
5.26376
5.26682
5.26816
5.26615
5.26028
5.25176
5.23978
5.22664
5.21446
5.20263
5.1895
5.17317
5.1554
5.13631
5.11589
5.09316
5.06665
5.03451
4.99696
4.95433
4.90816
4.85822
4.80433
4.74555
4.68035
4.60685
4.52238
4.42557
4.31202
4.18615
4.03902
3.87731
3.70824
3.51943
3.32618
1.40001
1.40001
1.40001
1.40001
1.40001
1.40001
1.40001
1.40001
1.40001
1.40001
1.40001
1.40001
1.40001
1.40001
1.40001
1.40001
1.40001
1.40001
1.40001
1.40001
1.40001
1.40001
1.40001
1.40001
1.40001
1.40001
1.40001
1.40001
1.40001
1.40001
1.40001
1.40001
1.40001
1.40001
1.40001
1.40001
1.40001
1.40001
1.40001
1.40001
1.40001
1.40001
1.40001
1.40001
1.40001
1.40001
1.40001
1.40001
1.40001
1.40001
1.40001
1.40001
1.40001
1.40001
1.40001
1.40003
1.79963
4.59159
5.28153
5.2518
5.24764
5.24862
5.24934
5.24882
5.24441
5.23502
5.22343
5.21068
5.19669
5.18368
5.1707
5.15633
5.13709
5.11602
5.09301
5.06942
5.04454
5.01689
4.98387
4.9448
4.89953
4.85005
4.797
4.74054
4.67994
4.61346
4.53958
4.45559
4.36392
4.25398
4.13877
4.00659
3.86389
3.7163
3.55124
3.38922
1.40001
1.40001
1.40001
1.40001
1.40001
1.40001
1.40001
1.40001
1.40001
1.40001
1.40001
1.40001
1.40001
1.40001
1.40001
1.40001
1.40001
1.40001
1.40001
1.40001
1.40001
1.40001
1.40001
1.40001
1.40001
1.40001
1.40001
1.40001
1.40001
1.40001
1.40001
1.40001
1.40001
1.40001
1.40001
1.40001
1.40001
1.40001
1.40001
1.40001
1.40001
1.40001
1.40001
1.40001
1.40001
1.40001
1.40001
1.40001
1.40001
1.40001
1.40001
1.40001
1.40001
1.40001
1.40001
1.40001
1.40897
2.99363
5.0648
5.20338
5.21248
5.2171
5.21854
5.21847
5.21483
5.20496
5.19127
5.17896
5.16401
5.1487
5.13304
5.11622
5.09507
5.07298
5.04858
5.02246
4.99469
4.96478
4.93053
4.89118
4.84583
4.796
4.74188
4.68411
4.62283
4.55655
4.48454
4.40251
4.31538
4.21063
4.10557
3.98504
3.85828
3.72611
3.58303
3.43961
1.40001
1.40001
1.40001
1.40001
1.40001
1.40001
1.40001
1.40001
1.40001
1.40001
1.40001
1.40001
1.40001
1.40001
1.40001
1.40001
1.40001
1.40001
1.40001
1.40001
1.40001
1.40001
1.40001
1.40001
1.40001
1.40001
1.40001
1.40001
1.40001
1.40001
1.40001
1.40001
1.40001
1.40001
1.40001
1.40001
1.40001
1.40001
1.40001
1.40001
1.40001
1.40001
1.40001
1.40001
1.40001
1.40001
1.40001
1.40001
1.40001
1.40001
1.40001
1.40001
1.40001
1.40001
1.40001
1.40001
1.40001
1.56205
4.06345
5.2083
5.20889
5.19984
5.19927
5.20002
5.19802
5.18836
5.17292
5.1606
5.14571
5.12842
5.10984
5.08935
5.06568
5.04187
5.01617
4.98703
4.95459
4.92024
4.88213
4.84141
4.79726
4.74897
4.69573
4.63754
4.57535
4.50867
4.43805
4.35814
4.27471
4.17863
4.08234
3.97082
3.85741
3.73672
3.61014
3.47898
1.40001
1.40001
1.40001
1.40001
1.40001
1.40001
1.40001
1.40001
1.40001
1.40001
1.40001
1.40001
1.40001
1.40001
1.40001
1.40001
1.40001
1.40001
1.40001
1.40001
1.40001
1.40001
1.40001
1.40001
1.40001
1.40001
1.40001
1.40001
1.40001
1.40001
1.40001
1.40001
1.40001
1.40001
1.40001
1.40001
1.40001
1.40001
1.40001
1.40001
1.40001
1.40001
1.40001
1.40001
1.40001
1.40001
1.40001
1.40001
1.40001
1.40001
1.40001
1.40001
1.40001
1.40001
1.40001
1.40001
1.40001
1.40128
2.1926
4.80315
5.19155
5.16292
5.16569
5.1671
5.16736
5.16009
5.14685
5.13647
5.1226
5.10376
5.08354
5.06081
5.03553
5.01081
4.98374
4.95243
4.91533
4.87602
4.83426
4.79119
4.74868
4.70279
4.65243
4.59608
4.53489
4.46753
4.39745
4.3208
4.24158
4.15485
4.06507
3.96286
3.85984
3.74759
3.63236
3.51404
1.40001
1.40001
1.40001
1.40001
1.40001
1.40001
1.40001
1.40001
1.40001
1.40001
1.40001
1.40001
1.40001
1.40001
1.40001
1.40001
1.40001
1.40001
1.40001
1.40001
1.40001
1.40001
1.40001
1.40001
1.40001
1.40001
1.40001
1.40001
1.40001
1.40001
1.40001
1.40001
1.40001
1.40001
1.40001
1.40001
1.40001
1.40001
1.40001
1.40001
1.40001
1.40001
1.40001
1.40001
1.40001
1.40001
1.40001
1.40001
1.40001
1.40001
1.40001
1.40001
1.40001
1.40001
1.40001
1.40001
1.40001
1.40001
1.43727
3.16844
5.06243
5.1443
5.14577
5.146
5.14251
5.13127
5.12119
5.11423
5.10004
5.08004
5.05836
5.0351
5.01084
4.9863
4.95765
4.92366
4.8818
4.83644
4.79139
4.74652
4.70547
4.66111
4.61343
4.56028
4.50187
4.4346
4.36499
4.29171
4.21471
4.13419
4.04906
3.95619
3.8609
3.75812
3.6538
3.54885
1.40001
1.40001
1.40001
1.40001
1.40001
1.40001
1.40001
1.40001
1.40001
1.40001
1.40001
1.40001
1.40001
1.40001
1.40001
1.40001
1.40001
1.40001
1.40001
1.40001
1.40001
1.40001
1.40001
1.40001
1.40001
1.40001
1.40001
1.40001
1.40001
1.40001
1.40001
1.40001
1.40001
1.40001
1.40001
1.40001
1.40001
1.40001
1.40001
1.40001
1.40001
1.40001
1.40001
1.40001
1.40001
1.40001
1.40001
1.40001
1.40001
1.40001
1.40001
1.40001
1.40001
1.40001
1.40001
1.40001
1.40001
1.40001
1.4001
1.59227
3.82766
5.09596
5.1537
5.14913
5.13853
5.12022
5.10902
5.0996
5.08178
5.05766
5.03174
5.00755
4.98462
4.96079
4.93121
4.89373
4.84828
4.79951
4.75236
4.70744
4.66489
4.62228
4.57672
4.5267
4.47139
4.4074
4.33984
4.2698
4.19487
4.11783
4.03633
3.95115
3.86174
3.76953
3.67475
3.58014
1.40001
1.40001
1.40001
1.40001
1.40001
1.40001
1.40001
1.40001
1.40001
1.40001
1.40001
1.40001
1.40001
1.40001
1.40001
1.40001
1.40001
1.40001
1.40001
1.40001
1.40001
1.40001
1.40001
1.40001
1.40001
1.40001
1.40001
1.40001
1.40001
1.40001
1.40001
1.40001
1.40001
1.40001
1.40001
1.40001
1.40001
1.40001
1.40001
1.40001
1.40001
1.40001
1.40001
1.40001
1.40001
1.40001
1.40001
1.40001
1.40001
1.40001
1.40001
1.40001
1.40001
1.40001
1.40001
1.40001
1.40001
1.40001
1.40001
1.40194
1.81361
4.46458
5.1968
5.17045
5.14894
5.11809
5.09718
5.07711
5.05433
5.02824
5.00116
4.97636
4.9537
4.92945
4.89961
4.86064
4.81493
4.76654
4.72001
4.67562
4.63222
4.58933
4.54491
4.49706
4.4446
4.38499
4.32111
4.25434
4.18236
4.10786
4.02923
3.94894
3.86437
3.78053
3.69369
3.60603
1.40001
1.40001
1.40001
1.40001
1.40001
1.40001
1.40001
1.40001
1.40001
1.40001
1.40001
1.40001
1.40001
1.40001
1.40001
1.40001
1.40001
1.40001
1.40001
1.40001
1.40001
1.40001
1.40001
1.40001
1.40001
1.40001
1.40001
1.40001
1.40001
1.40001
1.40001
1.40001
1.40001
1.40001
1.40001
1.40001
1.40001
1.40001
1.40001
1.40001
1.40001
1.40001
1.40001
1.40001
1.40001
1.40001
1.40001
1.40001
1.40001
1.40001
1.40001
1.40001
1.40001
1.40001
1.40001
1.40001
1.40001
1.40001
1.40001
1.40001
1.40928
2.48221
4.90879
5.1741
5.13732
5.11063
5.0788
5.05108
5.02447
4.9985
4.97342
4.94959
4.92605
4.90126
4.87123
4.83185
4.78673
4.74144
4.69648
4.6531
4.60965
4.56567
4.5203
4.4712
4.42043
4.36494
4.30568
4.24265
4.17432
4.10346
4.02792
3.95071
3.87084
3.79205
3.71148
3.62783
1.40001
1.40001
1.40001
1.40001
1.40001
1.40001
1.40001
1.40001
1.40001
1.40001
1.40001
1.40001
1.40001
1.40001
1.40001
1.40001
1.40001
1.40001
1.40001
1.40001
1.40001
1.40001
1.40001
1.40001
1.40001
1.40001
1.40001
1.40001
1.40001
1.40001
1.40001
1.40001
1.40001
1.40001
1.40001
1.40001
1.40001
1.40001
1.40001
1.40001
1.40001
1.40001
1.40001
1.40001
1.40001
1.40001
1.40001
1.40001
1.40001
1.40001
1.40001
1.40001
1.40001
1.40001
1.40001
1.40001
1.40001
1.40001
1.40001
1.40001
1.40002
1.4659
3.21832
5.05925
5.1087
5.07367
5.05081
5.02517
4.99933
4.97451
4.95105
4.92801
4.90332
4.87577
4.84489
4.80626
4.76376
4.72221
4.67973
4.63765
4.5945
4.54983
4.50305
4.45294
4.40237
4.34918
4.29334
4.23331
4.16828
4.10098
4.02855
3.95497
3.87986
3.80468
3.72893
3.64873
1.40001
1.40001
1.40001
1.40001
1.40001
1.40001
1.40001
1.40001
1.40001
1.40001
1.40001
1.40001
1.40001
1.40001
1.40001
1.40001
1.40001
1.40001
1.40001
1.40001
1.40001
1.40001
1.40001
1.40001
1.40001
1.40001
1.40001
1.40001
1.40001
1.40001
1.40001
1.40001
1.40001
1.40001
1.40001
1.40001
1.40001
1.40001
1.40001
1.40001
1.40001
1.40001
1.40001
1.40001
1.40001
1.40001
1.40001
1.40001
1.40001
1.40001
1.40001
1.40001
1.40001
1.40001
1.40001
1.40001
1.40001
1.40001
1.40001
1.40001
1.40001
1.4003
1.59789
3.68462
5.04067
5.03894
5.01934
5.00863
4.99037
4.96872
4.945
4.91976
4.89263
4.86219
4.829
4.79201
4.75216
4.71137
4.66918
4.62678
4.58335
4.53814
4.49042
4.44014
4.39005
4.33779
4.28365
4.22585
4.16368
4.09947
4.03025
3.96065
3.88982
3.81819
3.74587
3.66913
1.40001
1.40001
1.40001
1.40001
1.40001
1.40001
1.40001
1.40001
1.40001
1.40001
1.40001
1.40001
1.40001
1.40001
1.40001
1.40001
1.40001
1.40001
1.40001
1.40001
1.40001
1.40001
1.40001
1.40001
1.40001
1.40001
1.40001
1.40001
1.40001
1.40001
1.40001
1.40001
1.40001
1.40001
1.40001
1.40001
1.40001
1.40001
1.40001
1.40001
1.40001
1.40001
1.40001
1.40001
1.40001
1.40001
1.40001
1.40001
1.40001
1.40001
1.40001
1.40001
1.40001
1.40001
1.40001
1.40001
1.40001
1.40001
1.40001
1.40001
1.40001
1.40001
1.4021
1.74335
3.98738
5.01822
5.01376
4.99823
4.98255
4.96351
4.94146
4.91613
4.88779
4.85602
4.82105
4.78367
4.74482
4.7041
4.6616
4.61792
4.57332
4.52748
4.47963
4.4303
4.38157
4.33078
4.27793
4.22185
4.16184
4.09969
4.03359
3.96705
3.8994
3.83153
3.76229
3.68986
1.40001
1.40001
1.40001
1.40001
1.40001
1.40001
1.40001
1.40001
1.40001
1.40001
1.40001
1.40001
1.40001
1.40001
1.40001
1.40001
1.40001
1.40001
1.40001
1.40001
1.40001
1.40001
1.40001
1.40001
1.40001
1.40001
1.40001
1.40001
1.40001
1.40001
1.40001
1.40001
1.40001
1.40001
1.40001
1.40001
1.40001
1.40001
1.40001
1.40001
1.40001
1.40001
1.40001
1.40001
1.40001
1.40001
1.40001
1.40001
1.40001
1.40001
1.40001
1.40001
1.40001
1.40001
1.40001
1.40001
1.40001
1.40001
1.40001
1.40001
1.40001
1.40001
1.40001
1.4063
1.88605
4.23008
5.00949
4.99531
4.97632
4.95501
4.93209
4.90649
4.8786
4.84785
4.81435
4.77862
4.74081
4.70051
4.6577
4.61284
4.56666
4.51981
4.47211
4.42395
4.37627
4.32672
4.27526
4.22068
4.1626
4.1026
4.0397
3.9755
3.91009
3.84586
3.77967
3.71176
1.40001
1.40001
1.40001
1.40001
1.40001
1.40001
1.40001
1.40001
1.40001
1.40001
1.40001
1.40001
1.40001
1.40001
1.40001
1.40001
1.40001
1.40001
1.40001
1.40001
1.40001
1.40001
1.40001
1.40001
1.40001
1.40001
1.40001
1.40001
1.40001
1.40001
1.40001
1.40001
1.40001
1.40001
1.40001
1.40001
1.40001
1.40001
1.40001
1.40001
1.40001
1.40001
1.40001
1.40001
1.40001
1.40001
1.40001
1.40001
1.40001
1.40001
1.40001
1.40001
1.40001
1.40001
1.40001
1.40001
1.40001
1.40001
1.40001
1.40001
1.40001
1.40001
1.40001
1.40002
1.41271
2.03546
4.40373
5.01073
4.98589
4.95727
4.92784
4.89836
4.8684
4.83714
4.80483
4.771
4.73481
4.69537
4.65293
4.608
4.56158
4.5147
4.46757
4.42046
4.37337
4.32506
4.27503
4.22229
4.16702
4.10952
4.04958
3.98743
3.92373
3.86246
3.79934
3.73502
1.40001
1.40001
1.40001
1.40001
1.40001
1.40001
1.40001
1.40001
1.40001
1.40001
1.40001
1.40001
1.40001
1.40001
1.40001
1.40001
1.40001
1.40001
1.40001
1.40001
1.40001
1.40001
1.40001
1.40001
1.40001
1.40001
1.40001
1.40001
1.40001
1.40001
1.40001
1.40001
1.40001
1.40001
1.40001
1.40001
1.40001
1.40001
1.40001
1.40001
1.40001
1.40001
1.40001
1.40001
1.40001
1.40001
1.40001
1.40001
1.40001
1.40001
1.40001
1.40001
1.40001
1.40001
1.40001
1.40001
1.40001
1.40001
1.40001
1.40001
1.40001
1.40001
1.40001
1.40001
1.40004
1.42185
2.16833
4.52259
5.00186
4.9704
4.9364
4.90191
4.86776
4.83316
4.79871
4.76442
4.7283
4.68949
4.64818
4.60482
4.56002
4.51422
4.46779
4.42116
4.37404
4.32596
4.27708
4.227
4.17454
4.11932
4.06214
4.0022
3.94021
3.88119
3.82102
3.75949
1.40001
1.40001
1.40001
1.40001
1.40001
1.40001
1.40001
1.40001
1.40001
1.40001
1.40001
1.40001
1.40001
1.40001
1.40001
1.40001
1.40001
1.40001
1.40001
1.40001
1.40001
1.40001
1.40001
1.40001
1.40001
1.40001
1.40001
1.40001
1.40001
1.40001
1.40001
1.40001
1.40001
1.40001
1.40001
1.40001
1.40001
1.40001
1.40001
1.40001
1.40001
1.40001
1.40001
1.40001
1.40001
1.40001
1.40001
1.40001
1.40001
1.40001
1.40001
1.40001
1.40001
1.40001
1.40001
1.40001
1.40001
1.40001
1.40001
1.40001
1.40001
1.40001
1.40001
1.40001
1.40001
1.40008
1.43224
2.27708
4.5849
4.98139
4.95061
4.91422
4.87663
4.8395
4.80316
4.76514
4.72573
4.68554
4.64425
4.60206
4.55881
4.51436
4.46899
4.423
4.37639
4.32945
4.2824
4.23463
4.18449
4.13146
4.07684
4.01939
3.95936
3.90167
3.84395
3.78456
1.40001
1.40001
1.40001
1.40001
1.40001
1.40001
1.40001
1.40001
1.40001
1.40001
1.40001
1.40001
1.40001
1.40001
1.40001
1.40001
1.40001
1.40001
1.40001
1.40001
1.40001
1.40001
1.40001
1.40001
1.40001
1.40001
1.40001
1.40001
1.40001
1.40001
1.40001
1.40001
1.40001
1.40001
1.40001
1.40001
1.40001
1.40001
1.40001
1.40001
1.40001