/*--------------------------------*- C++ -*----------------------------------*\
  =========                 |
  \\      /  F ield         | OpenFOAM: The Open Source CFD Toolbox
   \\    /   O peration     | Website:  https://openfoam.org
    \\  /    A nd           | Version:  7
     \\/     M anipulation  |
\*---------------------------------------------------------------------------*/
FoamFile
{
    version     2.0;
    format      ascii;
    class       volScalarField;
    location    "1.9";
    object      T;
}
// * * * * * * * * * * * * * * * * * * * * * * * * * * * * * * * * * * * * * //

dimensions      [0 0 0 1 0 0 0];

internalField   nonuniform List<scalar> 
19968
(
1
1
1
1
1
1
1
1
1
1
1
1
1
1
1
1
1
1
1
1
1
1
1
1
1
1
1
1
1
1
1
1
1
1
1
1
1
1
1
1
1
1
1
1
1
1
1
1
1
1
2.12511
2.72181
2.72013
2.71585
2.71316
2.71248
2.71403
2.71848
2.72668
2.73768
2.74818
2.75701
2.76317
2.76616
2.76721
2.76711
2.76696
2.76775
2.77052
2.77519
2.78021
2.78381
2.78545
2.78588
2.78585
2.78574
2.78623
2.78827
2.79226
2.79791
2.80436
2.8105
2.81528
2.81816
2.81927
2.81943
2.81942
2.81962
2.82075
2.82366
2.82905
2.83794
2.85024
2.86311
2.87197
2.87481
1
1
1
1
1
1
1
1
1
1
1
1
1
1
1
1
1
1
1
1
1
1
1
1
1
1
1
1
1
1
1
1
1
1
1
1
1
1
1
1
1
1
1
1
1
1
1
1
1
1
2.11475
2.72077
2.7193
2.71527
2.71287
2.71226
2.71376
2.71806
2.72615
2.73711
2.7476
2.75642
2.76256
2.76555
2.76658
2.76655
2.76652
2.76743
2.77026
2.77489
2.77988
2.7835
2.78514
2.78557
2.78554
2.78543
2.78595
2.78802
2.79205
2.7977
2.8041
2.81015
2.81486
2.8177
2.81882
2.81902
2.81905
2.81924
2.82036
2.82329
2.82874
2.83768
2.84999
2.8628
2.87156
2.87432
1
1
1
1
1
1
1
1
1
1
1
1
1
1
1
1
1
1
1
1
1
1
1
1
1
1
1
1
1
1
1
1
1
1
1
1
1
1
1
1
1
1
1
1
1
1
1
1
1
1
2.08925
2.71857
2.7178
2.71464
2.71296
2.71245
2.71381
2.71767
2.72519
2.73578
2.74615
2.75497
2.7612
2.76423
2.76532
2.76546
2.76561
2.76668
2.76959
2.7742
2.77914
2.78279
2.78442
2.78487
2.78487
2.78486
2.78549
2.78768
2.79178
2.79741
2.80373
2.80965
2.81424
2.81699
2.8181
2.81833
2.81839
2.81861
2.81974
2.82272
2.82827
2.83732
2.84965
2.86234
2.8709
2.87351
1
1
1
1
1
1
1
1
1
1
1
1
1
1
1
1
1
1
1
1
1
1
1
1
1
1
1
1
1
1
1
1
1
1
1
1
1
1
1
1
1
1
1
1
1
1
1
1
1
1
2.04483
2.71187
2.71664
2.71478
2.71392
2.71339
2.7144
2.71744
2.72379
2.73345
2.74357
2.75238
2.75876
2.76196
2.76326
2.76369
2.76407
2.76533
2.76831
2.77289
2.77779
2.7815
2.78318
2.7837
2.78379
2.78396
2.78481
2.78715
2.79127
2.79683
2.803
2.80877
2.81322
2.81591
2.81698
2.81722
2.8173
2.81756
2.81877
2.82187
2.82757
2.83675
2.84909
2.86161
2.8699
2.87231
1
1
1
1
1
1
1
1
1
1
1
1
1
1
1
1
1
1
1
1
1
1
1
1
1
1
1
1
1
1
1
1
1
1
1
1
1
1
1
1
1
1
1
1
1
1
1
1
1
1
1.9798
2.696
2.71688
2.71537
2.71525
2.71492
2.71563
2.7177
2.72248
2.73064
2.74015
2.74869
2.75512
2.75859
2.76027
2.7611
2.76181
2.76331
2.76641
2.77096
2.77582
2.77958
2.78137
2.78201
2.78228
2.78273
2.78387
2.78637
2.79045
2.79582
2.80176
2.80737
2.81174
2.81439
2.81543
2.81563
2.8157
2.81602
2.81741
2.82073
2.8266
2.83588
2.84821
2.86054
2.86854
2.87077
1
1
1
1
1
1
1
1
1
1
1
1
1
1
1
1
1
1
1
1
1
1
1
1
1
1
1
1
1
1
1
1
1
1
1
1
1
1
1
1
1
1
1
1
1
1
1
1
1
1
1.88757
2.66935
2.71672
2.71565
2.71597
2.71586
2.71644
2.71792
2.72146
2.72806
2.73653
2.74437
2.75052
2.75424
2.75635
2.75765
2.75878
2.76059
2.76384
2.76834
2.77309
2.77681
2.77866
2.77951
2.78007
2.78095
2.78252
2.78526
2.78929
2.7944
2.80006
2.8055
2.80983
2.81244
2.81338
2.81345
2.81344
2.81382
2.81548
2.81905
2.82505
2.83437
2.84665
2.85884
2.86664
2.8688
1
1
1
1
1
1
1
1
1
1
1
1
1
1
1
1
1
1
1
1
1
1
1
1
1
1
1
1
1
1
1
1
1
1
1
1
1
1
1
1
1
1
1
1
1
1
1
1
1
1
1.7644
2.63237
2.71258
2.71271
2.71387
2.71441
2.71541
2.71721
2.72061
2.72621
2.73313
2.73974
2.74519
2.74899
2.75157
2.75344
2.75516
2.75745
2.76098
2.76547
2.77007
2.77365
2.77557
2.77669
2.77767
2.77906
2.78112
2.78407
2.78795
2.79265
2.79791
2.8031
2.80734
2.80988
2.81069
2.81059
2.81048
2.81095
2.8129
2.81673
2.82275
2.83201
2.84423
2.8564
2.8642
2.86646
1
1
1
1
1
1
1
1
1
1
1
1
1
1
1
1
1
1
1
1
1
1
1
1
1
1
1
1
1
1
1
1
1
1
1
1
1
1
1
1
1
1
1
1
1
1
1
1
1
1
1.59018
2.57605
2.70253
2.70663
2.70952
2.71104
2.71299
2.71601
2.72041
2.72567
2.73097
2.73579
2.74008
2.7436
2.74642
2.74878
2.75108
2.75389
2.75775
2.76227
2.76672
2.77011
2.77204
2.77337
2.77468
2.77651
2.77896
2.78206
2.78573
2.78999
2.79478
2.79966
2.80377
2.80628
2.80704
2.80688
2.80675
2.80736
2.80961
2.81361
2.81955
2.82866
2.84081
2.85307
2.86107
2.86357
1
1
1
1
1
1
1
1
1
1
1
1
1
1
1
1
1
1
1
1
1
1
1
1
1
1
1
1
1
1
1
1
1
1
1
1
1
1
1
1
1
1
1
1
1
1
1
1
1
1
1.37045
2.49494
2.69316
2.70035
2.70402
2.7063
2.70945
2.71397
2.71958
2.72501
2.72946
2.73286
2.73577
2.73832
2.74072
2.74309
2.74576
2.74919
2.75363
2.75852
2.76295
2.76619
2.76805
2.76946
2.77106
2.7733
2.77618
2.7795
2.78308
2.78701
2.79139
2.7959
2.79976
2.8021
2.80272
2.80245
2.80221
2.80283
2.80518
2.80912
2.81482
2.82373
2.83586
2.84837
2.85674
2.85959
1
1
1
1
1
1
1
1
1
1
1
1
1
1
1
1
1
1
1
1
1
1
1
1
1
1
1
1
1
1
1
1
1
1
1
1
1
1
1
1
1
1
1
1
1
1
1
1
1
1
1.11222
2.36862
2.68874
2.6952
2.69983
2.70378
2.7088
2.7147
2.72091
2.72641
2.73043
2.7328
2.73402
2.73498
2.73627
2.73806
2.74069
2.74466
2.74988
2.7553
2.75961
2.76228
2.7636
2.76463
2.76609
2.76835
2.77132
2.77466
2.7781
2.78169
2.78561
2.78971
2.79328
2.79557
2.79633
2.79622
2.79616
2.79689
2.79922
2.80293
2.80826
2.81697
2.82912
2.84196
2.8508
2.85402
1
1
1
1
1
1
1
1
1
1
1
1
1
1
1
1
1
1
1
1
1
1
1
1
1
1
1
1
1
1
1
1
1
1
1
1
1
1
1
1
1
1
1
1
1
1
1
1
1
1
1.0015
2.1805
2.68553
2.68478
2.68714
2.69273
2.69999
2.7078
2.71535
2.72171
2.72612
2.72815
2.7282
2.72807
2.72845
2.72961
2.7321
2.73658
2.74274
2.74914
2.75405
2.75693
2.75832
2.7593
2.76072
2.76294
2.7659
2.76924
2.77265
2.77599
2.77943
2.78298
2.78606
2.78809
2.78892
2.7889
2.7889
2.78953
2.7915
2.79472
2.79965
2.80815
2.82041
2.83375
2.84318
2.84679
1
1
1
1
1
1
1
1
1
1
1
1
1
1
1
1
1
1
1
1
1
1
1
1
1
1
1
1
1
1
1
1
1
1
1
1
1
1
1
1
1
1
1
1
1
1
1
1
1
1
1
1.89244
2.64498
2.67105
2.67639
2.68347
2.69182
2.70086
2.7096
2.71687
2.72186
2.72414
2.72419
2.72375
2.72343
2.72384
2.72553
2.72944
2.73556
2.74243
2.74807
2.75152
2.75325
2.7542
2.75531
2.75706
2.75953
2.76248
2.76564
2.76868
2.77165
2.77467
2.77729
2.77914
2.78009
2.78033
2.78044
2.78092
2.78233
2.78476
2.78899
2.79693
2.80906
2.82277
2.83272
2.83661
1
1
1
1
1
1
1
1
1
1
1
1
1
1
1
1
1
1
1
1
1
1
1
1
1
1
1
1
1
1
1
1
1
1
1
1
1
1
1
1
1
1
1
1
1
1
1
1
1
1
1
1.43617
2.49868
2.65915
2.66674
2.67555
2.68303
2.6914
2.70004
2.70775
2.71347
2.71669
2.71763
2.71747
2.71712
2.71718
2.71806
2.72084
2.72599
2.73252
2.73868
2.74288
2.74526
2.74649
2.74746
2.74874
2.7506
2.75291
2.75554
2.7582
2.76074
2.76329
2.7656
2.76723
2.76802
2.7682
2.76809
2.76803
2.76846
2.76983
2.77341
2.78104
2.79328
2.80757
2.81805
2.82212
1
1
1
1
1
1
1
1
1
1
1
1
1
1
1
1
1
1
1
1
1
1
1
1
1
1
1
1
1
1
1
1
1
1
1
1
1
1
1
1
1
1
1
1
1
1
1
1
1
1
1
1.01718
2.22878
2.67088
2.67009
2.67179
2.67544
2.68114
2.68833
2.69574
2.70202
2.70647
2.70904
2.71017
2.71047
2.71061
2.711
2.71249
2.71594
2.72109
2.72685
2.73159
2.73473
2.73659
2.73774
2.73873
2.73996
2.74146
2.74318
2.74518
2.74723
2.74932
2.75125
2.75256
2.75327
2.75331
2.75302
2.75259
2.75232
2.75279
2.7552
2.76137
2.77178
2.78409
2.79241
2.79435
1
1
1
1
1
1
1
1
1
1
1
1
1
1
1
1
1
1
1
1
1
1
1
1
1
1
1
1
1
1
1
1
1
1
1
1
1
1
1
1
1
1
1
1
1
1
1
1
1
1
1
1.00002
1.75396
2.58328
2.66391
2.66439
2.66703
2.67102
2.6764
2.68251
2.68831
2.69309
2.69664
2.69922
2.70107
2.70237
2.70329
2.70437
2.70643
2.70978
2.7141
2.71846
2.72192
2.7243
2.72577
2.72673
2.72752
2.72807
2.72868
2.72951
2.73064
2.73207
2.73332
2.73392
2.73392
2.73337
2.73193
2.72963
2.72683
2.72462
2.72417
2.72661
2.73422
2.74536
2.75516
2.75844
1
1
1
1
1
1
1
1
1
1
1
1
1
1
1
1
1
1
1
1
1
1
1
1
1
1
1
1
1
1
1
1
1
1
1
1
1
1
1
1
1
1
1
1
1
1
1
1
1
1
1
1
1.05374
2.30718
2.65204
2.65688
2.6593
2.66298
2.6665
2.6705
2.67447
2.67809
2.68138
2.68454
2.68763
2.6904
2.69245
2.6937
2.69473
2.69628
2.6986
2.70163
2.70479
2.70739
2.70935
2.71065
2.71132
2.71141
2.71109
2.71064
2.71043
2.71061
2.71076
2.71039
2.70937
2.70756
2.70468
2.70056
2.69557
2.69089
2.68824
2.68853
2.69216
2.7033
2.71399
2.73669
1
1
1
1
1
1
1
1
1
1
1
1
1
1
1
1
1
1
1
1
1
1
1
1
1
1
1
1
1
1
1
1
1
1
1
1
1
1
1
1
1
1
1
1
1
1
1
1
1
1
1
1
0.99951
1.88996
2.58815
2.63618
2.64535
2.6515
2.65532
2.65852
2.66124
2.66365
2.66618
2.66926
2.67276
2.6766
2.68001
2.68243
2.68343
2.68399
2.6849
2.68639
2.68842
2.69066
2.69277
2.69442
2.69526
2.69519
2.69439
2.69294
2.69134
2.69004
2.68882
2.68711
2.68453
2.68084
2.67578
2.66891
2.65977
2.64874
2.63542
2.61947
2.5961
2.56426
2.50963
2.38794
1
1
1
1
1
1
1
1
1
1
1
1
1
1
1
1
1
1
1
1
1
1
1
1
1
1
1
1
1
1
1
1
1
1
1
1
1
1
1
1
1
1
1
1
1
1
1
1
1
1
1
1
0.999938
1.27585
2.40057
2.62436
2.63269
2.63952
2.64508
2.64873
2.65115
2.65272
2.65426
2.65646
2.65938
2.66334
2.66766
2.67109
2.67264
2.67286
2.67288
2.67313
2.67397
2.67541
2.67713
2.67882
2.67986
2.67982
2.67891
2.67693
2.67426
2.67148
2.66864
2.66533
2.66098
2.65536
2.64788
2.63831
2.62513
2.60849
2.58633
2.55868
2.51844
2.46748
2.36264
2.20572
1
1
1
1
1
1
1
1
1
1
1
1
1
1
1
1
1
1
1
1
1
1
1
1
1
1
1
1
1
1
1
1
1
1
1
1
1
1
1
1
1
1
1
1
1
1
1
1
1
1
1
1
0.999997
1.00645
2.08736
2.61283
2.61986
2.62559
2.63187
2.63658
2.6396
2.64126
2.64235
2.64376
2.64598
2.64913
2.65336
2.65756
2.66003
2.66053
2.66011
2.65955
2.65935
2.65973
2.66063
2.66186
2.66286
2.6629
2.66209
2.66005
2.65679
2.65277
2.64817
2.64298
2.63663
2.62903
2.61922
2.60702
2.59069
2.56966
2.54208
2.50599
2.45911
2.39013
2.28725
2.1631
1
1
1
1
1
1
1
1
1
1
1
1
1
1
1
1
1
1
1
1
1
1
1
1
1
1
1
1
1
1
1
1
1
1
1
1
1
1
1
1
1
1
1
1
1
1
1
1
1
1
1
1
1
1
1.45255
2.46008
2.60533
2.61348
2.61992
2.62454
2.62794
2.62995
2.6309
2.6318
2.6335
2.6356
2.63909
2.64333
2.64653
2.64749
2.64693
2.64576
2.64465
2.64394
2.64394
2.64427
2.64477
2.64471
2.64393
2.64205
2.63865
2.63388
2.62775
2.62061
2.61219
2.60252
2.59077
2.57634
2.55802
2.53445
2.50438
2.46503
2.41475
2.34924
2.26332
2.16752
1
1
1
1
1
1
1
1
1
1
1
1
1
1
1
1
1
1
1
1
1
1
1
1
1
1
1
1
1
1
1
1
1
1
1
1
1
1
1
1
1
1
1
1
1
1
1
1
1
1
1
1
1
1
1.0192
2.13601
2.60554
2.60787
2.61034
2.61352
2.61652
2.61849
2.61942
2.62013
2.6214
2.62286
2.62533
2.62871
2.63194
2.63347
2.63315
2.63204
2.63055
2.62887
2.62759
2.6268
2.62648
2.62603
2.62499
2.62308
2.6197
2.61466
2.60766
2.59905
2.58893
2.57748
2.5643
2.54849
2.52921
2.50492
2.47502
2.43618
2.38824
2.3314
2.26562
2.18561
1
1
1
1
1
1
1
1
1
1
1
1
1
1
1
1
1
1
1
1
1
1
1
1
1
1
1
1
1
1
1
1
1
1
1
1
1
1
1
1
1
1
1
1
1
1
1
1
1
1
1
1
1
1
1.00002
1.44265
2.44062
2.59583
2.59672
2.60148
2.60526
2.60748
2.60843
2.60897
2.60961
2.61053
2.61216
2.61454
2.61737
2.61937
2.61956
2.61882
2.61715
2.61482
2.61245
2.61043
2.60896
2.60771
2.60612
2.60387
2.60039
2.5953
2.58807
2.57875
2.56754
2.55467
2.54013
2.52332
2.50358
2.47969
2.45143
2.41558
2.37303
2.32529
2.27095
2.20773
1
1
1
1
1
1
1
1
1
1
1
1
1
1
1
1
1
1
1
1
1
1
1
1
1
1
1
1
1
1
1
1
1
1
1
1
1
1
1
1
1
1
1
1
1
1
1
1
1
1
1
1
1
1
1
1.01759
2.06568
2.58224
2.59298
2.5933
2.59469
2.59595
2.59654
2.59686
2.59713
2.59766
2.59894
2.60065
2.60273
2.60454
2.6051
2.60479
2.60333
2.60083
2.59779
2.59479
2.59213
2.58976
2.58724
2.58427
2.58034
2.57515
2.56815
2.55905
2.54779
2.53445
2.51917
2.50175
2.48203
2.45875
2.43252
2.40061
2.36399
2.32397
2.27722
2.22752
1
1
1
1
1
1
1
1
1
1
1
1
1
1
1
1
1
1
1
1
1
1
1
1
1
1
1
1
1
1
1
1
1
1
1
1
1
1
1
1
1
1
1
1
1
1
1
1
1
1
1
1
1
1
1
1.00002
1.2799
2.37208
2.58532
2.58311
2.58432
2.58478
2.58452
2.58407
2.58381
2.58379
2.58448
2.58598
2.5877
2.5894
2.59027
2.59038
2.58937
2.58723
2.58418
2.58079
2.57722
2.57361
2.56978
2.56565
2.56087
2.55531
2.54849
2.53995
2.52932
2.51633
2.50106
2.48335
2.4641
2.44092
2.41665
2.38813
2.35641
2.32233
2.28241
2.24183
1
1
1
1
1
1
1
1
1
1
1
1
1
1
1
1
1
1
1
1
1
1
1
1
1
1
1
1
1
1
1
1
1
1
1
1
1
1
1
1
1
1
1
1
1
1
1
1
1
1
1
1
1
1
1
1
1.0057
1.8882
2.52924
2.56717
2.56855
2.56833
2.56782
2.56746
2.56745
2.56755
2.5682
2.57007
2.57156
2.57271
2.57319
2.57327
2.57257
2.57131
2.56924
2.5663
2.56245
2.5579
2.55276
2.54733
2.54152
2.53542
2.52858
2.52056
2.51091
2.49905
2.48489
2.46778
2.44922
2.4266
2.40402
2.37778
2.34976
2.31983
2.28623
2.2514
1
1
1
1
1
1
1
1
1
1
1
1
1
1
1
1
1
1
1
1
1
1
1
1
1
1
1
1
1
1
1
1
1
1
1
1
1
1
1
1
1
1
1
1
1
1
1
1
1
1
1
1
1
1
1
1
1
1.10873
2.23585
2.56057
2.5597
2.55557
2.5534
2.55351
2.55407
2.55457
2.55528
2.55729
2.55841
2.55857
2.55835
2.55764
2.5565
2.55572
2.55471
2.5527
2.54909
2.54408
2.53775
2.53096
2.52404
2.51709
2.50982
2.50183
2.49277
2.48197
2.46926
2.45343
2.43598
2.41515
2.39409
2.36941
2.3441
2.31689
2.28761
2.25651
1
1
1
1
1
1
1
1
1
1
1
1
1
1
1
1
1
1
1
1
1
1
1
1
1
1
1
1
1
1
1
1
1
1
1
1
1
1
1
1
1
1
1
1
1
1
1
1
1
1
1
1
1
1
1
1
1
1.00076
1.50101
2.39988
2.53485
2.53203
2.53377
2.53627
2.53911
2.54104
2.54281
2.54495
2.54512
2.54447
2.54315
2.54123
2.53947
2.53884
2.53841
2.53738
2.53445
2.52965
2.52308
2.51543
2.50775
2.49987
2.49197
2.48368
2.47489
2.46467
2.4532
2.43926
2.42365
2.40541
2.38585
2.36301
2.33979
2.31418
2.28751
2.25979
1
1
1
1
1
1
1
1
1
1
1
1
1
1
1
1
1
1
1
1
1
1
1
1
1
1
1
1
1
1
1
1
1
1
1
1
1
1
1
1
1
1
1
1
1
1
1
1
1
1
1
1
1
1
1
1
1
1
1.0226
1.93363
2.49416
2.51569
2.52082
2.52443
2.52732
2.52929
2.53163
2.53354
2.53304
2.53141
2.52879
2.5258
2.52354
2.52262
2.52214
2.52145
2.51902
2.51461
2.50863
2.50116
2.49345
2.48483
2.4761
2.46725
2.45834
2.44813
2.4374
2.42528
2.41138
2.39555
2.37766
2.35719
2.33561
2.31192
2.28761
2.263
1
1
1
1
1
1
1
1
1
1
1
1
1
1
1
1
1
1
1
1
1
1
1
1
1
1
1
1
1
1
1
1
1
1
1
1
1
1
1
1
1
1
1
1
1
1
1
1
1
1
1
1
1
1
1
1
1
1
1.00005
1.12979
2.14032
2.49089
2.51287
2.51577
2.5185
2.52002
2.52196
2.52286
2.5219
2.519
2.51476
2.51089
2.5081
2.5066
2.50565
2.50451
2.50218
2.49841
2.49346
2.48713
2.47961
2.47105
2.46177
2.45231
2.44293
2.43274
2.42242
2.41158
2.39913
2.38525
2.36924
2.35126
2.33139
2.31024
2.28805
2.26576
1
1
1
1
1
1
1
1
1
1
1
1
1
1
1
1
1
1
1
1
1
1
1
1
1
1
1
1
1
1
1
1
1
1
1
1
1
1
1
1
1
1
1
1
1
1
1
1
1
1
1
1
1
1
1
1
1
1
1
1.0011
1.27673
2.27298
2.4879
2.49933
2.50551
2.50716
2.50885
2.50877
2.50763
2.5044
2.49988
2.49577
2.49267
2.49047
2.48889
2.48714
2.48488
2.48183
2.47804
2.47299
2.46624
2.45803
2.44878
2.43902
2.42921
2.419
2.40888
2.3987
2.38737
2.37494
2.36067
2.34479
2.32685
2.30816
2.28805
2.26739
1
1
1
1
1
1
1
1
1
1
1
1
1
1
1
1
1
1
1
1
1
1
1
1
1
1
1
1
1
1
1
1
1
1
1
1
1
1
1
1
1
1
1
1
1
1
1
1
1
1
1
1
1
1
1
1
1
1
1
1
1.00543
1.62462
2.37585
2.47705
2.4788
2.48419
2.48729
2.48856
2.48828
2.48659
2.48377
2.48081
2.47811
2.47593
2.47398
2.47158
2.46898
2.46642
2.46327
2.4591
2.45321
2.44555
2.43653
2.42644
2.41646
2.40637
2.39653
2.38672
2.37615
2.36493
2.35205
2.33789
2.32203
2.30529
2.28722
2.26761
1
1
1
1
1
1
1
1
1
1
1
1
1
1
1
1
1
1
1
1
1
1
1
1
1
1
1
1
1
1
1
1
1
1
1
1
1
1
1
1
1
1
1
1
1
1
1
1
1
1
1
1
1
1
1
1
1
1
1
1
1.00001
1.04058
1.92369
2.44473
2.46669
2.462
2.46381
2.46518
2.4657
2.46553
2.4649
2.4639
2.46251
2.46084
2.45916
2.45674
2.45418
2.45194
2.44913
2.44544
2.44016
2.43313
2.4245
2.41457
2.4046
2.39466
2.38502
2.37537
2.36526
2.35489
2.34312
2.33046
2.31647
2.30136
2.2851
2.2669
1
1
1
1
1
1
1
1
1
1
1
1
1
1
1
1
1
1
1
1
1
1
1
1
1
1
1
1
1
1
1
1
1
1
1
1
1
1
1
1
1
1
1
1
1
1
1
1
1
1
1
1
1
1
1
1
1
1
1
1
1
1.00014
1.13255
2.06908
2.44545
2.45171
2.44877
2.44937
2.44883
2.44815
2.44749
2.44686
2.44613
2.44506
2.44376
2.44202
2.43998
2.43783
2.43512
2.4316
2.42679
2.42037
2.41227
2.40282
2.39315
2.38331
2.37373
2.36419
2.35442
2.34463
2.33377
2.32241
2.31001
2.29644
2.28167
2.2649
1
1
1
1
1
1
1
1
1
1
1
1
1
1
1
1
1
1
1
1
1
1
1
1
1
1
1
1
1
1
1
1
1
1
1
1
1
1
1
1
1
1
1
1
1
1
1
1
1
1
1
1
1
1
1
1
1
1
1
1
1
1
1.00117
1.22952
2.14008
2.42555
2.43932
2.43821
2.43722
2.43587
2.43436
2.43278
2.43127
2.4297
2.42803
2.42627
2.42449
2.42245
2.41995
2.41671
2.41244
2.4068
2.39952
2.39087
2.38176
2.37219
2.36265
2.35315
2.34356
2.33411
2.3241
2.31379
2.30265
2.29057
2.27711
2.26186
1
1
1
1
1
1
1
1
1
1
1
1
1
1
1
1
1
1
1
1
1
1
1
1
1
1
1
1
1
1
1
1
1
1
1
1
1
1
1
1
1
1
1
1
1
1
1
1
1
1
1
1
1
1
1
1
1
1
1
1
1
1
1
1.00358
1.31461
2.18572
2.40371
2.42388
2.42417
2.42363
2.42232
2.4204
2.41829
2.41599
2.41357
2.41117
2.40886
2.40654
2.40403
2.40106
2.39735
2.39255
2.38633
2.37872
2.37027
2.36102
2.35154
2.34199
2.33253
2.32351
2.31432
2.30486
2.29471
2.28402
2.27186
2.25819
1
1
1
1
1
1
1
1
1
1
1
1
1
1
1
1
1
1
1
1
1
1
1
1
1
1
1
1
1
1
1
1
1
1
1
1
1
1
1
1
1
1
1
1
1
1
1
1
1
1
1
1
1
1
1
1
1
1
1
1
1
1
1
1
1.00722
1.39532
2.20865
2.3898
2.40372
2.40725
2.40728
2.40676
2.40539
2.40311
2.40028
2.39724
2.39418
2.39117
2.38825
2.38522
2.38181
2.37769
2.37244
2.36589
2.35816
2.34937
2.34005
2.33067
2.32163
2.31301
2.3045
2.29574
2.2864
2.27696
2.26617
2.25403
1
1
1
1
1
1
1
1
1
1
1
1
1
1
1
1
1
1
1
1
1
1
1
1
1
1
1
1
1
1
1
1
1
1
1
1
1
1
1
1
1
1
1
1
1
1
1
1
1
1
1
1
1
1
1
1
1
1
1
1
1
1
1
1
1.00001
1.01255
1.45893
2.22704
2.3735
2.38303
2.38739
2.38938
2.38918
2.38814
2.3862
2.38368
2.38064
2.37737
2.37412
2.37086
2.36738
2.36337
2.35852
2.35256
2.34534
2.33703
2.32822
2.31938
2.31072
2.30237
2.29438
2.28622
2.2776
2.26921
2.25984
2.24923
1
1
1
1
1
1
1
1
1
1
1
1
1
1
1
1
1
1
1
1
1
1
1
1
1
1
1
1
1
1
1
1
1
1
1
1
1
1
1
1
1
1
1
1
1
1
1
1
1
1
1
1
1
1
1
1
1
1
1
1
1
1
1
1
1
1.00003
1.01869
1.50859
2.23567
2.35855
2.36402
2.36735
2.36905
2.3696
2.36928
2.36798
2.36591
2.36338
2.36051
2.35738
2.35388
2.34982
2.34502
2.33926
2.33244
2.32474
2.31657
2.30827
2.29996
2.29182
2.28417
2.27648
2.26844
2.26079
2.25265
2.24341
1
1
1
1
1
1
1
1
1
1
1
1
1
1
1
1
1
1
1
1
1
1
1
1
1
1
1
1
1
1
1
1
1
1
1
1
1
1
1
1
1
1
1
1
1
1
1
1
1
1
1
1
1
1
1
1
1
1
1
1
1
1
1
1
1
1
1.00005
1.02481
1.5409
2.23559
2.34498
2.3471
2.34778
2.34865
2.34909
2.34921
2.34868
2.34746
2.34563
2.34331
2.34037
2.33664
2.33201
2.32644
2.32004
2.31294
2.30533
2.29749
2.2895
2.28155
2.27403
2.26668
2.25912
2.25188
2.24458
2.23638
1
1
1
1
1
1
1
1
1
1
1
1
1
1
1
1
1
1
1
1
1
1
1
1
1
1
1
1
1
1
1
1
1
1
1
1
1
1
1
1
1
1
1
1
1
1
1
1
1
1
1
1
1
1
1
1
1
1
1
1
1
1
1
1
1
1
1
1.00008
1.02964
1.5532
2.22688
2.33134
2.3307
2.32955
2.32956
2.32935
2.32924
2.32879
2.32794
2.32671
2.32498
2.32244
2.31877
2.31388
2.30806
2.30163
2.29474
2.28749
2.27991
2.27214
2.26464
2.25743
2.25012
2.24298
2.23593
2.22827
1
1
1
1
1
1
1
1
1
1
1
1
1
1
1
1
1
1
1
1
1
1
1
1
1
1
1
1
1
1
1
1
1
1
1
1
1
1
1
1
1
1
1
1
1
1
1
1
1
1
1
1
1
1
1
1
1
1
1
1
1
1
1
1
1
1
1
1
1.00011
1.03173
1.54614
2.20656
2.31466
2.31621
2.31376
2.31241
2.311
2.31005
2.30914
2.30836
2.30751
2.30619
2.3039
2.30038
2.29573
2.2903
2.28431
2.27778
2.27077
2.26339
2.25606
2.24895
2.24172
2.23445
2.22723
2.21964
1
1
1
1
1
1
1
1
1
1
1
1
1
1
1
1
1
1
1
1
1
1
1
1
1
1
1
1
1
1
1
1
1
1
1
1
1
1
1
1
1
1
1
1
1
1
1
1
1
1
1
1
1
1
1
1
1
1
1
1
1
1
1
1
1
1
1
1
1
1.00013
1.03092
1.51791
2.17772
2.29661
2.30155
2.29823
2.29624
2.29398
2.2923
2.29109
2.29016
2.28919
2.28775
2.28544
2.2821
2.27791
2.27304
2.26754
2.26146
2.25482
2.24799
2.24114
2.23401
2.22662
2.21907
2.21123
1
1
1
1
1
1
1
1
1
1
1
1
1
1
1
1
1
1
1
1
1
1
1
1
1
1
1
1
1
1
1
1
1
1
1
1
1
1
1
1
1
1
1
1
1
1
1
1
1
1
1
1
1
1
1
1
1
1
1
1
1
1
1
1
1
1
1
1
1
1
1.00012
1.02663
1.47514
2.12632
2.27959
2.28756
2.2838
2.28127
2.27874
2.27662
2.27494
2.27339
2.27173
2.26968
2.26703
2.26381
2.26001
2.25565
2.2507
2.2452
2.23932
2.23314
2.22651
2.2193
2.21167
2.20378
1
1
1
1
1
1
1
1
1
1
1
1
1
1
1
1
1
1
1
1
1
1
1
1
1
1
1
1
1
1
1
1
1
1
1
1
1
1
1
1
1
1
1
1
1
1
1
1
1
1
1
1
1
1
1
1
1
1
1
1
1
1
1
1
1
1
1
1
1
1
1
1.0001
1.02102
1.40933
2.0549
2.25067
2.276
2.27041
2.26767
2.26532
2.26294
2.26051
2.25793
2.25514
2.25217
2.24905
2.24579
2.24226
2.23838
2.23407
2.22931
2.22409
2.21821
2.2116
2.20446
2.19694
1
1
1
1
1
1
1
1
1
1
1
1
1
1
1
1
1
1
1
1
1
1
1
1
1
1
1
1
1
1
1
1
1
1
1
1
1
1
1
1
1
1
1
1
1
1
1
1
1
1
1
1
1
1
1
1
1
1
1
1
1
1
1
1
1
1
1
1
1
1
1
1
1.00007
1.01445
1.32741
1.94542
2.22211
2.26079
2.25623
2.25463
2.25222
2.24923
2.24581
2.24209
2.23833
2.23469
2.23125
2.22795
2.22466
2.22125
2.21752
2.21326
2.2084
2.20285
2.19658
2.18988
1
1
1
1
1
1
1
1
1
1
1
1
1
1
1
1
1
1
1
1
1
1
1
1
1
1
1
1
1
1
1
1
1
1
1
1
1
1
1
1
1
1
1
1
1
1
1
1
1
1
1
1
1
1
1
1
1
1
1
1
1
1
1
1
1
1
1
1
1
1
1
1
1
1.00004
1.00863
1.2309
1.81798
2.18517
2.2435
2.24165
2.23923
2.23641
2.23277
2.22876
2.22465
2.22068
2.21698
2.21356
2.21039
2.2073
2.20405
2.20056
2.19669
2.19213
2.18701
2.18156
1
1
1
1
1
1
1
1
1
1
1
1
1
1
1
1
1
1
1
1
1
1
1
1
1
1
1
1
1
1
1
1
1
1
1
1
1
1
1
1
1
1
1
1
1
1
1
1
1
1
1
1
1
1
1
1
1
1
1
1
1
1
1
1
1
1
1
1
1
1
1
1
1
1
1.00002
1.00425
1.1431
1.69088
2.14169
2.22198
2.226
2.22124
2.21827
2.21456
2.21074
2.2069
2.20319
2.19965
2.19626
2.19297
2.18985
2.18667
2.18315
2.17943
2.17551
2.17111
1
1
1
1
1
1
1
1
1
1
1
1
1
1
1
1
1
1
1
1
1
1
1
1
1
1
1
1
1
1
1
1
1
1
1
1
1
1
1
1
1
1
1
1
1
1
1
1
1
1
1
1
1
1
1
1
1
1
1
1
1
1
1
1
1
1
1
1
1
1
1
1
1
1
1
1.00001
1.00176
1.08104
1.56667
2.07868
2.19559
2.21272
2.20513
2.20177
2.19817
2.19449
2.19068
2.18688
2.1831
2.1795
2.17599
2.17241
2.16902
2.16576
2.16218
2.15849
1
1
1
1
1
1
1
1
1
1
1
1
1
1
1
1
1
1
1
1
1
1
1
1
1
1
1
1
1
1
1
1
1
1
1
1
1
1
1
1
1
1
1
1
1
1
1
1
1
1
1
1
1
1
1
1
1
1
1
1
1
1
1
1
1
1
1
1
1
1
1
1
1
1
1
1
1
1.00066
1.04191
1.43866
1.97715
2.16763
2.19618
2.19159
2.18788
2.18406
2.18028
2.17609
2.17204
2.16808
2.16397
2.16007
2.15629
2.15236
2.14867
2.14516
1
1
1
1
1
1
1
1
1
1
1
1
1
1
1
1
1
1
1
1
1
1
1
1
1
1
1
1
1
1
1
1
1
1
1
1
1
1
1
1
1
1
1
1
1
1
1
1
1
1
1
1
1
1
1
1
1
1
1
1
1
1
1
1
1
1
1
1
1
1
1
1
1
1
1
1
1
1
1.00023
1.01958
1.30159
1.83257
2.12816
2.17943
2.17841
2.17352
2.16981
2.16644
2.16284
2.15867
2.15443
2.15015
2.14557
2.14136
2.13719
2.13292
1
1
1
1
1
1
1
1
1
1
1
1
1
1
1
1
1
1
1
1
1
1
1
1
1
1
1
1
1
1
1
1
1
1
1
1
1
1
1
1
1
1
1
1
1
1
1
1
1
1
1
1
1
1
1
1
1
1
1
1
1
1
1
1
1
1
1
1
1
1
1
1
1
1
1
1
1
1
1
1.00007
1.00792
1.17145
1.66155
2.0705
2.14948
2.16699
2.16077
2.15701
2.15352
2.14994
2.14591
2.14138
2.13693
2.13239
2.12743
2.12316
1
1
1
1
1
1
1
1
1
1
1
1
1
1
1
1
1
1
1
1
1
1
1
1
1
1
1
1
1
1
1
1
1
1
1
1
1
1
1
1
1
1
1
1
1
1
1
1
1
1
1
1
1
1
1
1
1
1
1
1
1
1
1
1
1
1
1
1
1
1
1
1
1
1
1
1
1
1
1
1
1.00002
1.0026
1.07847
1.4947
1.96268
2.11877
2.1505
2.14713
2.14279
2.13999
2.13682
2.13288
2.12855
2.12352
2.11933
2.11533
1
1
1
1
1
1
1
1
1
1
1
1
1
1
1
1
1
1
1
1
1
1
1
1
1
1
1
1
1
1
1
1
1
1
1
1
1
1
1
1
1
1
1
1
1
1
1
1
1
1
1
1
1
1
1
1
1
1
1
1
1
1
1
1
1
1
1
1
1
1
1
1
1
1
1
1
1
1
1
1
1
1
1.00068
1.03033
1.32811
1.79808
2.08035
2.13228
2.1344
2.13005
2.12615
2.12269
2.11898
2.11537
2.11138
2.10667
1
1
1
1
1
1
1
1
1
1
1
1
1
1
1
1
1
1
1
1
1
1
1
1
1
1
1
1
1
1
1
1
1
1
1
1
1
1
1
1
1
1
1
1
1
1
1
1
1
1
1
1
1
1
1
1
1
1
1
1
1
1
1
1
1
1
1
1
1
1
1
1
1
1
1
1
1
1
1
1
1
1
1
1.00014
1.01028
1.1679
1.61908
2.00616
2.09405
2.11884
2.11595
2.11244
2.10982
2.10714
2.10358
2.09774
1
1
1
1
1
1
1
1
1
1
1
1
1
1
1
1
1
1
1
1
1
1
1
1
1
1
1
1
1
1
1
1
1
1
1
1
1
1
1
1
1
1
1
1
1
1
1
1
1
1
1
1
1
1
1
1
1
1
1
1
1
1
1
1
1
1
1
1
1
1
1
1
1
1
1
1
1
1
1
1
1
1
1
1
1.00003
1.00266
1.06859
1.43272
1.86935
2.06258
2.10053
2.10405
2.1001
2.09686
2.09486
2.09139
1
1
1
1
1
1
1
1
1
1
1
1
1
1
1
1
1
1
1
1
1
1
1
1
1
1
1
1
1
1
1
1
1
1
1
1
1
1
1
1
1
1
1
1
1
1
1
1
1
1
1
1
1
1
1
1
1
1
1
1
1
1
1
1
1
1
1
1
1
1
1
1
1
1
1
1
1
1
1
1
1
1
1
1
1
1
1.00057
1.02208
1.25066
1.67341
2.0148
2.07506
2.08395
2.08061
2.07797
2.07931
1
1
1
1
1
1
1
1
1
1
1
1
1
1
1
1
1
1
1
1
1
1
1
1
1
1
1
1
1
1
1
1
1
1
1
1
1
1
1
1
1
1
1
1
1
1
1
1
1
1
1
1
1
1
1
1
1
1
1
1
1
1
1
1
1
1
1
1
1
1
1
1
1
1
1
1
1
1
1
1
1
1
1
1
1
1
1
1.00009
1.00613
1.10101
1.49219
1.88838
2.04925
2.06402
2.06924
2.06769
1
1
1
1
1
1
1
1
1
1
1
1
1
1
1
1
1
1
1
1
1
1
1
1
1
1
1
1
1
1
1
1
1
1
1
1
1
1
1
1
1
1
1
1
1
1
1
1
1
1
1
1
1
1
1
1
1
1
1
1
1
1
1
1
1
1
1
1
1
1
1
1
1
1
1
1
1
1
1
1
1
1
1
1
1
1
1
1
1.00001
1.00115
1.03436
1.29427
1.70601
1.96652
2.04899
2.06341
1
1
1
1
1
1
1
1
1
1
1
1
1
1
1
1
1
1
1
1
1
1
1
1
1
1
1
1
1
1
1
1
1
1
1
1
1
1
1
1
1
1
1
1
1
1
1
1
1
1
1
1
1
1
1
1
1
1
1
1
1
1
1
1
1
1
1
1
1
1
1
1
1
1
1
1
1
1
1
1
1
1
1
1
1
1
1
1
1
1
1.00018
1.00904
1.1249
1.48592
1.85322
2.00966
1
1
1
1
1
1
1
1
1
1
1
1
1
1
1
1
1
1
1
1
1
1
1
1
1
1
1
1
1
1
1
1
1
1
1
1
1
1
1
1
1
1
1
1
1
1
1
1
1
1
1
1
1
1
1
1
1
1
1
1
1
1
1
1
1
1
1
1
1
1
1
1
1
1
1
1
1
1
1
1
1
1
1
1
1
1
1
1
1
1
1
1.00002
1.00166
1.03707
1.27723
1.69728
1
1
1
1
1
1
1
1
1
1
1
1
1
1
1
1
1
1
1
1
1
1
1
1
1
1
1
1
1
1
1
1
1
1
1
1
1
1
1
1
1
1
1
1
1
1
1
1
1
1
1
1
1
1
1
1
1
1
1
1
1
1
1
1
1
1
1
1
1
1
1
1
1
1
1
1
1
1
1
1
1
1
1
1
1
1
1
1
1
1
1
1
1
1.00022
1.00851
1.12209
1
1
1
1
1
1
1
1
1
1
1
1
1
1
1
1
1
1
1
1
1
1
1
1
1
1
1
1
1
1
1
1
1
1
1
1
1
1
1
1
1
1
1
1
1
1
1
1
1
1
1
1
1
1
1
1
1
1
1
1
1
1
1
1
1
1
1
1
1
1
1
1
1
1
1
1
1
1
1
1
1
1
1
1
1
1
1
1
1
1
1
1
1
1
1.00003
1.00145
1
1
1
1
1
1
1
1
1
1
1
1
1
1
1
1
1
1
1
1
1
1
1
1
1
1
1
1
1
1
1
1
1
1
1
1
1
1
1
1
1
1
1
1
1
1
1
1
1
1
1
1
1
1
1
1
1
1
1
1
1
1
1
1
1
1
1
1
1
1
1
1
1
1
1
1
1
1
1
1
1
1
1
1
1
1
1
1
1
1
1
1
1
1
1
1
1
1
1
1
1
1
1
1
1
1
1
1
1
1
1
1
1
1
1
1
1
1
1
1
1
1
1
1
1
1
1
1
1
1
1
1
1
1
1
1
1
1
1
1
1
1
1
1
1
1
1
1
1
1
1
1
1
1
1
1
1
1
1
1
1
1
1
1
1
1
1
1
1
1
1
1
1
1
1
1
1
1
1
1
1
1
1
1
1
1
1
1
1
1
1
1
1
1
1
1
1
1
1
1
1
1
1
1
1
1
1
1
1
1
1
1
1
1
1
1
1
1
1
1
1
1
1
1
1
1
1
1
1
1
1
1
1
1
1
1
1
1
1
1
1
1
1
1
1
1
1
1
1
1
1
1
1
1
1
1
1
1
1
1
1
1
1
1
1
1
1
1
1
1
1
1
1
1
1
1
1
1
1
1
1
1
1
1
1
1
1
1
1
1
1
1
1
1
1
1
1
1
1
1
1
1
1
1
1
1
1
1
1
1
1
1
1
1
1
1
1
1
1
1
1
1
1
1
1
1
1
1
1
1
1
1
1
1
1
1
1
1
1
1
1
1
1
1
1
1
1
1
1
1
1
1
1
1
1
1
1
1
1
1
1
1
1
1
1
1
1
1
1
1
1
1
1
1
1
1
1
1
1
1
1
1
1
1
1
1
1
1
1
1
1
1
1
1
1
1
1
1
1
1
1
1
1
1
1
1
1
1
1
1
1
1
1
1
1
1
1
1
1
1
1
1
1
1
1
1
1
1
1
1
1
1
1
1
1
1
1
1
1
1
1
1
1
1
1
1
1
1
1
1
1
1
1
1
1
1
1
1
1
1
1
1
1
1
1
1
1
1
1
1
1
1
1
1
1
1
1
1
1
1
1
1
1
1
1
1
1
1
1
1
1
1
1
1
1
1
1
1
1
1
1
1
1
1
1
1
1
1
1
1
1
1
1
1
1
1
1
1
1
1
1
1
1
1
1
1
1
1
1
1
1
1
1
1
1
1
1
1
1
1
1
1
1
1
1
1
1
1
1
1
1
1
1
1
1
1
1
1
1
1
1
1
1
1
1
1
1
1
1
1
1
1
1
1
1
1
1
1
1
1
1
1
1
1
1
1
1
1
1
1
1
1
1
1
1
1
1
1
1
1
1
1
1
1
1
1
1
1
1
1
1
1
1
1
1
1
1
1
1
1
1
1
1
1
1
1
1
1
1
1
1
1
1
1
1
1
1
1
1
1
1
1
1
1
1
1
1
1
1
1
1
1
1
1
1
1
1
1
1
1
1
1
1
1
1
1
1
1
1
1
1
1
1
1
1
1
1
1
1
1
1
1
1
1
1
1
1
1
1
1
1
1
1
1
1
1
1
1
1
1
1
1
1
1
1
1
1
1
1
1
1
1
1
1
1
1
1
1
1
1
1
1
1
1
1
1
1
1
1
1
1
1
1
1
1
1
1
1
1
1
1
1
1
1
1
1
1
1
1
1
1
1
1
1
1
1
1
1
1
1
1
1
1
1
1
1
1
1
1
1
1
1
1
1
1
1
1
1
1
1
1
1
1
1
1
1
1
1
1
1
1
1
1
1
1
1
1
1
1
1
1
1
1
1
1
1
1
1
1
1
1
1
1
1
1
1
1
1
1
1
1
1
1
1
1
1
1
1
1
1
1
1
1
1
1
1
1
1
1
1
1
1
1
1
1
1
1
1
1
1
1
1
1
1
1
1
1
1
1
1
1
1
1
1
1
1
1
1
1
1
1
1
1
1
1
1
1
1
1
1
1
1
1
1
1
1
1
1
1
1
1
1
1
1
1
1
1
1
1
1
1
1
1
1
1
1
1
1
1
1
1
1
1
1
1
1
1
1
1
1
1
1
1
1
1
1
1
1
1
1
1
1
1
1
1
1
1
1
1
1
1
1
1
1
1
1
1
1
1
1
1
1
1
1
1
1
1
1
1
1
1
1
1
1
1
1
1
1
1
1
1
1
1
1
1
1
1
1
1
1
1
1
1
1
1
1
1
1
1
1
1
1
1
1
1
1
1
1
1
1
1
1
1
1
1
1
1
1
1
1
1
1
1
1
1
1
1
1
1
1
1
1
1
1
1
1
1
1
1
1
1
1
1
1
1
1
1
1
1
1
1
1
1
1
1
1
1
1
1
1
1
1
1
1
1
1
1
1
1
1
1
1
1
1
1
1
1
1
1
1
1
1
1
1
1
1
1
1
1
1
1
1
1
1
1
1
1
1
1
1
1
1
1
1
1
1
1
1
1
1
1
1
1
1
1
1
1
1
1
1
1
1
1
1
1
1
1
1
1
1
1
1
1
1
1
1
1
1
1
1
1
1
1
1
1
1
1
1
1
1
1
1
1
1
1
1
1
1
1
1
1
1
1
1
1
1
1
1
1
1
1
1
1
1
1
1
1
1
1
1
1
1
1
1
1
1
1
1
1
1
1
1
1
1
1
1
1
1
1
1
1
1
1
1
1
1
1
1
1
1
1
1
1
1
1
1
1
1
1
1
1
1
1
1
1
1
1
1
1
1
1
1
1
1
1
1
1
1
1
1
1
1
1
1
1
1
1
1
1
1
1
1
1
1
1
1
1
1
1
1
1
1
1
1
1
1
1
1
1
1
1
1
1
1
1
1
1
1
1
1
1
1
1
1
1
1
1
1
1
1
1
1
1
1
1
1
1
1
1
1
1
1
1
1
1
1
1
1
1
1
1
1
1
1
1
1
1
1
1
1
1
1
1
1
1
1
1
1
1
1
1
1
1
1
1
1
1
1
1
1
1
1
1
1
1
1
1
1
1
1
1
1
1
1
1
1
1
1
1
1
1
1
1
1
1
1
1
1
1
1
1
1
1
1
1
1
1
1
1
1
1
1
1
1
1
1
1
1
1
1
1
1
1
1
1
1
1
1
1
1
1
1
1
1
1
1
1
1
1
1
1
1
1
1
1
1
1
1
1
1
1
1
1
1
1
1
1
1
1
1
1
1
1
1
1
1
1
1
1
1
1
1
1
1
1
1
1
1
1
1
1
1
1
1
1
1
1
1
1
1
1
1
1
1
1
1
1
1
1
1
1
1
1
1
1
1
1
1
1
1
1
1
1
1
1
1
1
1
1
1
1
1
1
1
1
1
1
1
1
1
1
1
1
1
1
1
1
1
1
1
1
1
1
1
1
1
1
1
1
1
1
1
1
1
1
1
1
1
1
1
1
1
1
1
1
1
1
1
1
1
1
1
1
1
1
1
1
1
1
1
1
1
1
1
1
1
1
1
1
1
1
1
1
1
1
1
1
1
1
1
1
1
1
1
1
1
1
1
1
1
1
1
1
1
1
1
1
1
1
1
1
1
1
1
1
1
1
1
1
1
1
1
1
1
1
1
1
1
1
1
1
1
1
1
1
1
1
1
1
1
1
1
1
1
1
1
1
1
1
1
1
1
1
1
1
1
1
1
1
1
1
1
1
1
1
1
1
1
1
1
1
1
1
1
1
1
1
1
1
1
1
1
1
1
1
1
1
1
1
1
1
1
1
1
1
1
1
1
1
1
1
1
1
1
1
1
1
1
1
1
1
1
1
1
1
1
1
1
1
1
1
1
1
1
1
1
1
1
1
1
1
1
1
1
1
1
1
1
1
1
1
1
1
1
1
1
1
1
1
1
1
1
1
1
1
1
1
1
1.54588
0.967673
0.572515
0.448364
0.60015
0.838386
1.03192
1.12438
1.22697
1.37071
1.44337
1.45529
1.44799
1.43117
1.45785
1.55445
1.65058
1.66125
1.64499
1.6183
1.61537
1.61865
1.63531
1.64815
1.64813
1.63514
1.6147
1.61353
1.62163
1.63917
1.65757
1.66933
1.67027
1.66821
1.66244
1.66153
1.66264
1.66643
1.67165
1.67647
1.67931
1.67999
1.68094
1.68334
1.68723
1.68916
1.68959
1.69054
1.69294
1.69638
1.69877
1.69885
1.69787
1.69496
1.69147
1.68899
1.68668
1.68433
1.68203
1.67913
1.67662
1.67484
1.67328
1.67282
1.67332
1.67323
1.67235
1.67128
1.66952
1.66719
1.66598
1.66544
1.66517
1.66551
1.66656
1.66685
1.66625
1.66391
1.66168
1.66062
1.66022
1.66011
1.65952
1.65842
1.66205
1.70469
1.86301
2.14257
2.40634
2.59883
2.72168
2.70932
2.66454
2.61083
2.58972
2.57454
2.56315
2.55444
2.547
2.5385
2.52851
2.51802
2.50786
2.49775
2.48857
2.4789
2.46833
2.45856
2.45022
2.44242
2.43509
2.42731
2.41896
2.41045
2.40139
2.39199
2.38309
2.37486
2.36684
2.35895
2.35145
2.34415
2.33688
2.32968
2.32252
2.31537
2.30843
2.30203
2.29654
2.29256
2.28912
2.28529
2.28065
2.27462
2.26664
2.25671
2.24629
2.23726
2.23004
2.22422
2.21949
2.21577
2.21221
2.20849
2.20353
2.19571
2.18557
2.17658
2.17075
2.16666
2.16299
2.15944
2.15582
2.15186
2.14706
2.13995
2.13021
2.12167
2.11665
2.11339
2.11064
2.1079
2.10485
2.1009
2.0949
2.08567
2.07565
2.0692
2.06532
2.06232
2.05971
2.0573
2.05498
2.05232
2.04924
2.0451
2.0386
2.02888
2.01926
2.01326
2.00934
2.00621
2.00345
2.00113
1.99919
1.99731
1.99503
1.99092
1.98376
1.97411
1.96675
1.9598
1.79102
1.42394
1.23628
1.14853
1.01441
0.933113
0.971648
1.001
1.03049
1.06613
1.09539
1.11435
1.15514
1.19281
1.24398
1.31804
1.38495
1.41547
1.43818
1.45529
1.47615
1.49783
1.52749
1.55331
1.56627
1.56868
1.56874
1.5753
1.5868
1.59947
1.61152
1.61622
1.61845
1.62282
1.62595
1.62894
1.63318
1.63789
1.64235
1.6471
1.65189
1.65414
1.65606
1.65859
1.66214
1.66471
1.66604
1.66715
1.6695
1.673
1.67436
1.67412
1.67289
1.67068
1.66884
1.66782
1.66693
1.66599
1.66492
1.66366
1.66216
1.6606
1.65914
1.65821
1.65714
1.65619
1.65573
1.6553
1.65462
1.65395
1.65387
1.65397
1.65417
1.65482
1.65539
1.65534
1.65457
1.65235
1.65067
1.64985
1.64913
1.64834
1.64752
1.65556
1.7079
1.85809
2.01946
2.09086
2.17418
2.30819
2.45357
2.53987
2.57425
2.56804
2.55741
2.54718