/*--------------------------------*- C++ -*----------------------------------*\
  =========                 |
  \\      /  F ield         | OpenFOAM: The Open Source CFD Toolbox
   \\    /   O peration     | Website:  https://openfoam.org
    \\  /    A nd           | Version:  7
     \\/     M anipulation  |
\*---------------------------------------------------------------------------*/
FoamFile
{
    version     2.0;
    format      ascii;
    class       volScalarField;
    location    "35";
    object      p;
}
// * * * * * * * * * * * * * * * * * * * * * * * * * * * * * * * * * * * * * //

dimensions      [0 2 -2 0 0 0 0];

internalField   nonuniform List<scalar> 
8800
(
0.977399
0.92961
0.890915
0.861913
0.841038
0.82619
0.815568
0.808055
0.803192
0.801075
0.802264
0.806391
0.812984
0.822259
0.83501
0.852724
0.877488
0.911419
0.953961
1.01266
0.808661
0.816339
0.823801
0.827105
0.825594
0.820503
0.814
0.807897
0.803134
0.800233
0.799881
0.802308
0.806733
0.812631
0.819364
0.825617
0.829239
0.828492
0.823059
0.814362
0.787083
0.793242
0.797364
0.800299
0.802335
0.802922
0.80179
0.799651
0.797584
0.796602
0.797482
0.799788
0.802526
0.804659
0.805229
0.804002
0.801639
0.79823
0.793664
0.789901
0.781313
0.783961
0.786707
0.7891
0.790721
0.791862
0.792574
0.792651
0.792297
0.792167
0.792826
0.793911
0.794679
0.794687
0.794033
0.792906
0.791062
0.78847
0.786056
0.784551
0.775986
0.77741
0.779183
0.781205
0.782974
0.784293
0.785249
0.785999
0.786547
0.78702
0.787562
0.787955
0.787969
0.787611
0.786857
0.785561
0.783828
0.781951
0.780629
0.779797
0.77098
0.771899
0.773135
0.774692
0.776309
0.77781
0.779061
0.780075
0.780962
0.781746
0.782305
0.782508
0.782359
0.781829
0.780874
0.779612
0.778234
0.776936
0.776096
0.775546
0.766163
0.766832
0.767791
0.769086
0.770481
0.771916
0.773319
0.774585
0.775696
0.776675
0.777338
0.77755
0.777328
0.7767
0.775794
0.774763
0.773681
0.772707
0.772102
0.771699
0.761496
0.762011
0.762793
0.763919
0.765185
0.766536
0.767945
0.769357
0.770686
0.771869
0.772683
0.772958
0.772753
0.772211
0.771477
0.770642
0.769776
0.769028
0.76857
0.768258
0.756911
0.757319
0.757975
0.758981
0.760178
0.761482
0.762886
0.764372
0.76588
0.767298
0.768305
0.768714
0.768651
0.768284
0.767732
0.767072
0.766381
0.765807
0.765458
0.765208
0.752337
0.752667
0.753236
0.754169
0.755322
0.75661
0.758038
0.7596
0.761262
0.762923
0.76419
0.764837
0.765
0.764838
0.764469
0.763988
0.763449
0.763014
0.762747
0.762541
0.7477
0.747971
0.74848
0.74937
0.750507
0.751818
0.75331
0.754989
0.756837
0.758775
0.760377
0.761339
0.761772
0.761834
0.761657
0.761347
0.760961
0.760643
0.760441
0.760268
0.742926
0.743148
0.743619
0.744501
0.745667
0.747048
0.748652
0.750511
0.752624
0.754917
0.75693
0.758259
0.758987
0.759293
0.759319
0.75917
0.75892
0.758702
0.758553
0.758408
0.737954
0.738136
0.738586
0.739486
0.74072
0.742209
0.743969
0.746061
0.748507
0.751255
0.75377
0.755538
0.756622
0.757215
0.757472
0.757493
0.757382
0.757256
0.757154
0.757029
0.73271
0.732858
0.733302
0.734245
0.73558
0.737216
0.739182
0.741572
0.744441
0.747761
0.750892
0.75319
0.754706
0.755643
0.756172
0.756395
0.756422
0.756385
0.756325
0.756215
0.727113
0.727231
0.727677
0.728681
0.730148
0.731979
0.734228
0.737001
0.740374
0.744373
0.748277
0.751264
0.753317
0.754646
0.755456
0.755924
0.756113
0.756173
0.756157
0.756061
0.721062
0.721134
0.721599
0.722694
0.724351
0.726446
0.729057
0.732338
0.736416
0.741313
0.746142
0.74989
0.752542
0.754348
0.755523
0.756226
0.756609
0.756775
0.7568
0.756714
0.714402
0.714472
0.714951
0.71614
0.717987
0.720378
0.72342
0.727292
0.732168
0.738122
0.74411
0.74887
0.752325
0.754745
0.756387
0.757448
0.758065
0.758352
0.758419
0.75834
0.706895
0.706944
0.707471
0.70877
0.710886
0.713684
0.717304
0.721982
0.727928
0.735232
0.742621
0.748537
0.752869
0.755989
0.758225
0.759714
0.760628
0.761065
0.761177
0.761099
0.698265
0.698294
0.698881
0.700344
0.702786
0.706094
0.710435
0.716102
0.723364
0.73233
0.741431
0.748776
0.754235
0.758223
0.761147
0.763149
0.764429
0.765044
0.765197
0.765111
0.688013
0.688036
0.68871
0.690408
0.693287
0.697268
0.702556
0.709512
0.718443
0.72946
0.74065
0.749693
0.756458
0.761464
0.765193
0.767825
0.76953
0.770335
0.770524
0.770422
0.675472
0.675498
0.676317
0.678382
0.681904
0.686836
0.69342
0.702091
0.713179
0.726754
0.740422
0.751439
0.759712
0.765887
0.77051
0.773837
0.775991
0.776986
0.777209
0.777085
0.659813
0.659847
0.660894
0.663524
0.667989
0.674256
0.682608
0.693541
0.707363
0.724064
0.740698
0.754028
0.764027
0.771527
0.777193
0.781284
0.783905
0.785091
0.785344
0.785195
0.63991
0.639958
0.641366
0.644885
0.650784
0.659
0.669845
0.68382
0.701141
0.721643
0.741725
0.757669
0.769622
0.778608
0.785409
0.79033
0.793442
0.794814
0.79509
0.794915
0.614044
0.614131
0.616162
0.621133
0.629306
0.640403
0.654791
0.672819
0.694534
0.719572
0.743601
0.762472
0.776577
0.787215
0.795265
0.801134
0.804763
0.806302
0.806587
0.80638
0.579261
0.579484
0.582795
0.590408
0.602353
0.617907
0.637318
0.660692
0.687825
0.718143
0.74657
0.768606
0.785025
0.797443
0.806908
0.813784
0.817922
0.819586
0.819852
0.819608
0.529762
0.530868
0.537506
0.550545
0.569014
0.591405
0.617744
0.647889
0.681436
0.717672
0.750825
0.776179
0.795004
0.809294
0.820276
0.82821
0.832804
0.834537
0.834746
0.834453
0.456485
0.464007
0.479354
0.502512
0.530682
0.562201
0.59704
0.63502
0.675745
0.718502
0.756855
0.785934
0.807533
0.824057
0.836851
0.846012
0.851239
0.853191
0.853441
0.853203
0.377789
0.395134
0.419899
0.453665
0.491952
0.532812
0.57628
0.62235
0.670731
0.720832
0.76552
0.799478
0.824874
0.844455
0.859709
0.870627
0.876689
0.878856
0.879179
0.879124
0.312701
0.332913
0.365509
0.408062
0.455211
0.504845
0.556645
0.610603
0.666447
0.723614
0.774296
0.812783
0.84162
0.863817
0.880878
0.89285
0.899592
0.902388
0.902745
0.902757
0.259591
0.281539
0.319399
0.368204
0.422313
0.479246
0.538374
0.599552
0.662368
0.726222
0.782488
0.825035
0.856751
0.880933
0.899323
0.912443
0.920342
0.923057
0.923524
0.923601
0.215651
0.238627
0.28006
0.333722
0.393396
0.456319
0.521711
0.589272
0.658435
0.72844
0.789828
0.835952
0.870085
0.895924
0.915546
0.929538
0.937998
0.941108
0.941771
0.941884
0.17834
0.201925
0.246035
0.303456
0.367651
0.435638
0.506467
0.579684
0.654582
0.730225
0.796256
0.845548
0.881743
0.908935
0.92947
0.944105
0.952993
0.95656
0.957384
0.957509
0.145639
0.169635
0.2158
0.276265
0.344232
0.416572
0.492192
0.570501
0.650644
0.73148
0.801783
0.853902
0.891853
0.920115
0.941299
0.956391
0.965566
0.969448
0.970406
0.970534
0.116017
0.140412
0.188222
0.251236
0.322436
0.398558
0.478455
0.561393
0.646382
0.732089
0.806405
0.861154
0.900683
0.929868
0.951547
0.966968
0.976337
0.980424
0.981416
0.981505
0.0885123
0.113278
0.16255
0.227741
0.301729
0.381184
0.464914
0.552086
0.641601
0.731937
0.81013
0.867432
0.908472
0.938512
0.960647
0.976268
0.98573
0.989899
0.990936
0.990986
0.062338
0.0875313
0.138223
0.205272
0.281735
0.364146
0.451331
0.542391
0.636146
0.730933
0.812961
0.872839
0.915437
0.946347
0.968934
0.984748
0.994239
0.9984
0.999507
0.999571
0.0371914
0.062823
0.11454
0.183511
0.262177
0.347243
0.437551
0.53218
0.629917
0.729015
0.814896
0.877473
0.92175
0.953636
0.976731
0.992751
1.00228
1.00638
1.00743
1.00746
0.012679
0.0389025
0.0916285
0.162244
0.242884
0.330335
0.423474
0.521379
0.622846
0.72612
0.815927
0.881385
0.927535
0.960543
0.984248
1.00053
1.01009
1.01413
1.01504
1.01501
-0.0112941
0.0154113
0.0692707
0.141348
0.223768
0.313359
0.40905
0.509952
0.614897
0.722216
0.816025
0.884598
0.932863
0.967174
0.991599
1.00818
1.01773
1.02164
1.02244
1.02231
-0.0348111
-0.0075315
0.047332
0.120763
0.204795
0.296301
0.39428
0.497894
0.606064
0.717263
0.815127
0.887066
0.937741
0.973585
0.998837
1.01571
1.02518
1.02887
1.02952
1.02933
-0.0579465
-0.030039
0.0257754
0.100477
0.185959
0.279178
0.379195
0.485246
0.596362
0.71123
0.813149
0.888703
0.942155
0.979823
1.00603
1.02317
1.03245
1.03582
1.0363
1.03606
-0.0806869
-0.052094
0.004656
0.0805161
0.167302
0.26203
0.363853
0.47206
0.585828
0.7041
0.810015
0.889404
0.946029
0.985922
1.01328
1.03059
1.03946
1.0424
1.04268
1.0424
-0.102859
-0.0736219
-0.0159807
0.0609252
0.148874
0.244932
0.348321
0.458419
0.57453
0.695904
0.805663
0.889034
0.949223
0.991877
1.02075
1.03815
1.04627
1.04851
1.04857
1.04828
-0.124425
-0.0945784
-0.0361032
0.0417631
0.130739
0.227952
0.332698
0.444411
0.562557
0.686685
0.800048
0.887434
0.951539
0.997588
1.02866
1.04631
1.05314
1.05417
1.05389
1.05363
-0.145444
-0.114916
-0.0556674
0.0230725
0.112964
0.211175
0.317074
0.430146
0.550013
0.67652
0.793134
0.88446
0.952709
1.00278
1.03709
1.05583
1.06109
1.05985
1.05864
1.05862
-0.165731
-0.134605
-0.0746081
0.00492416
0.0956143
0.194686
0.301548
0.415738
0.53702
0.665516
0.784936
0.879977
0.952424
1.00692
1.04565
1.06736
1.07227
1.06806
1.0642
1.06334
-0.185377
-0.15363
-0.0929398
-0.0127058
0.078657
0.178438
0.286061
0.401126
0.523508
0.653601
0.775324
0.87372
0.950347
1.00928
1.05327
1.08047
1.08865
1.08439
1.07422
1.05782
-0.204303
-0.171981
-0.110782
-0.0300098
0.0617987
0.162092
0.27019
0.385816
0.508925
0.640115
0.763619
0.864843
0.945808
1.00877
1.05744
1.09144
1.10382
1.09371
1.07561
1.05961
-0.222328
-0.189781
-0.127943
-0.0467498
0.0453446
0.145998
0.254164
0.370143
0.493592
0.625348
0.749966
0.852988
0.93825
1.00434
1.05311
1.08692
1.10281
1.08336
1.01361
0.981159
-0.238791
-0.208214
-0.144097
-0.0623336
0.0300177
0.130656
0.238282
0.354335
0.477733
0.609439
0.734353
0.837958
0.926556
0.995823
1.03616
1.06202
1.06192
1.01156
0.941017
0.897145
-0.295175
-0.224437
-0.158962
-0.0778522
0.0143466
0.114647
0.222484
0.338118
0.460994
0.591966
0.716242
0.819354
0.907303
0.983698
0.988793
1.00142
0.963892
0.898651
0.822315
0.779424
-0.256545
-0.240454
-0.180698
-0.0998159
-0.00845647
0.0915937
0.198438
0.313266
0.434917
0.564062
0.685703
0.786356
0.865695
0.94301
0.938291
0.833358
0.731207
0.660069
0.587146
0.621147
-0.288053
-0.258572
-0.197884
-0.117623
-0.0261913
0.0735352
0.180566
0.294693
0.415172
0.542335
0.660872
0.757379
0.829057
0.869517
0.825219
0.68236
0.556077
0.465772
0.366471
0.419904
-0.312377
-0.279941
-0.217976
-0.137419
-0.0458958
0.0536945
0.160587
0.273814
0.392804
0.517442
0.632115
0.72296
0.784996
0.793975
0.691834
0.51974
0.366289
0.246537
0.114663
0.149487
-0.3362
-0.302198
-0.239009
-0.157584
-0.0658697
0.0335965
0.139959
0.25217
0.369492
0.491285
0.60132
0.685816
0.7327
0.710427
0.555409
0.358102
0.165198
-0.00854949
-0.203063
-0.216208
-0.359373
-0.324954
-0.260858
-0.17867
-0.0867223
0.0125708
0.118295
0.22939
0.34482
0.463434
0.56829
0.645562
0.675258
0.618218
0.425841
0.213049
-0.00866116
-0.205172
-0.456406
-0.772493
-0.382839
-0.348422
-0.283793
-0.201081
-0.108885
-0.0097063
0.0954593
0.205426
0.318885
0.434117
0.533628
0.602703
0.614729
0.507076
0.31355
0.101164
-0.107428
-0.284742
-0.351825
-0.442129
-0.407506
-0.373061
-0.308149
-0.225161
-0.132848
-0.0338666
0.0706553
0.179336
0.290531
0.401897
0.495658
0.554737
0.541851
0.400209
0.214466
0.0216978
-0.143105
-0.236761
-0.260856
-0.277707
-0.4337
-0.399191
-0.334092
-0.250994
-0.158737
-0.0601088
0.0435433
0.150651
0.259188
0.366071
0.453588
0.500181
0.468351
0.300672
0.124752
-0.0417737
-0.170283
-0.207519
-0.222451
-0.22412
-0.461628
-0.426974
-0.361681
-0.278561
-0.186489
-0.0884237
0.0141237
0.119342
0.224804
0.326643
0.40712
0.440583
0.391256
0.207406
0.0410528
-0.107456
-0.187612
-0.203512
-0.204938
-0.204943
-0.491334
-0.456418
-0.390931
-0.307844
-0.216103
-0.11878
-0.017584
0.0854196
0.187401
0.283707
0.356152
0.378511
0.29418
0.12097
-0.0369874
-0.159046
-0.19364
-0.195968
-0.196267
-0.195743
-0.522524
-0.487412
-0.421721
-0.33874
-0.247469
-0.151099
-0.0515184
0.0489457
0.147034
0.237378
0.301338
0.306911
0.199413
0.0399003
-0.100461
-0.178948
-0.18863
-0.190874
-0.191639
-0.191462
-0.554622
-0.519413
-0.453788
-0.371012
-0.280377
-0.185189
-0.0874898
0.0100974
0.10393
0.187929
0.24361
0.231812
0.11213
-0.0331172
-0.151889
-0.17507
-0.18766
-0.189783
-0.18898
-0.18861
-0.587184
-0.551933
-0.486645
-0.404254
-0.314455
-0.220693
-0.125173
-0.0307844
0.0584447
0.136014
0.182563
0.159076
0.0273185
-0.102571
-0.19046
-0.219781
-0.200788
-0.190171
-0.1876
-0.18682
-0.619361
-0.584333
-0.519457
-0.437818
-0.349134
-0.257093
-0.16406
-0.0731574
0.0111408
0.0824701
0.119082
0.0906523
-0.0503035
-0.170414
-0.22155
-0.207805
-0.204012
-0.199531
-0.194713
-0.192309
-0.649584
-0.615458
-0.551347
-0.470807
-0.383611
-0.293632
-0.203418
-0.116251
-0.0370867
0.0279461
0.0585606
0.0186048
-0.115193
-0.247003
-0.296169
-0.274044
-0.235655
-0.211184
-0.202423
-0.199677
-0.676431
-0.643217
-0.581217
-0.502086
-0.416837
-0.329299
-0.242273
-0.159091
-0.0849744
-0.0266457
0.00443687
-0.0540391
-0.164804
-0.283107
-0.329081
-0.296265
-0.261737
-0.240667
-0.23308
-0.229968
-0.697908
-0.666532
-0.606923
-0.530242
-0.447498
-0.362884
-0.279375
-0.200462
-0.131159
-0.0797928
-0.0470174
-0.112389
-0.189758
-0.215134
-0.293008
-0.320663
-0.360688
-0.373391
-0.364604
-0.356111
-0.71203
-0.683291
-0.626945
-0.553477
-0.474018
-0.392941
-0.313302
-0.238819
-0.174403
-0.129127
-0.0973552
-0.16633
-0.212714
-0.199838
-0.247513
-0.43689
-0.55442
-0.575762
-0.5596
-0.554573
-0.716335
-0.691497
-0.639455
-0.570078
-0.494668
-0.417787
-0.342385
-0.272373
-0.213258
-0.172974
-0.145655
-0.248519
-0.347127
-0.424589
-0.467616
-0.552322
-0.625106
-0.634589
-0.638385
-0.641208
-0.709167
-0.688891
-0.642454
-0.578491
-0.507935
-0.435743
-0.364797
-0.299105
-0.245053
-0.210955
-0.200819
-0.366072
-0.518091
-0.456223
-0.367085
-0.559423
-0.72978
-0.738651
-0.741519
-0.741846
-0.688609
-0.672787
-0.634391
-0.577542
-0.512734
-0.445485
-0.378759
-0.316634
-0.266162
-0.238544
-0.25538
-0.447746
-0.744318
-1.00975
-1.18272
-1.42594
-1.32053
-1.09178
-0.947349
-0.944476
-0.656229
-0.645589
-0.615626
-0.567367
-0.508834
-0.446368
-0.383028
-0.322692
-0.272258
-0.24519
-0.269955
-0.49045
-1.06026
-1.90736
-2.49967
-2.74389
-2.59727
-2.18001
-1.82225
-1.63945
-0.616931
-0.610774
-0.589946
-0.550021
-0.497712
-0.438916
-0.377244
-0.316012
-0.260693
-0.224058
-0.239298
-0.402916
-0.760408
-1.16079
-1.48544
-1.62247
-1.51602
-1.28186
-1.05843
-0.945863
-0.577793
-0.574363
-0.562298
-0.530193
-0.482101
-0.425432
-0.363072
-0.297088
-0.232312
-0.170558
-0.13046
-0.0931548
-0.00156315
0.236418
0.528999
0.83802
1.09771
1.27751
1.39059
1.43792
-0.545198
-0.54316
-0.536939
-0.512237
-0.467279
-0.409413
-0.34391
-0.270444
-0.189674
-0.10152
0.00494394
0.147208
0.498905
1.04184
1.63613
2.17127
2.56905
2.80145
2.89913
2.92647
-0.515962
-0.515358
-0.513683
-0.497151
-0.455153
-0.395143
-0.324678
-0.244745
-0.15322
-0.0487801
0.0709285
0.1962
0.4881
1.01631
1.5736
2.06903
2.4309
2.64386
2.74415
2.77382
-0.491608
-0.491318
-0.491191
-0.481599
-0.444327
-0.382831
-0.307955
-0.22354
-0.129791
-0.0228974
0.0871242
0.207468
0.381456
0.823098
1.29048
1.69111
1.99764
2.17836
2.2602
2.28306
-0.470324
-0.469105
-0.468804
-0.46486
-0.432867
-0.370063
-0.292119
-0.206191
-0.113996
-0.0103231
0.0952728
0.203677
0.330161
0.611101
0.981475
1.28377
1.511
1.64435
1.70454
1.72024
-0.459895
-0.459373
-0.460915
-0.457584
-0.42266
-0.354057
-0.272802
-0.18744
-0.0982492
-0.000751623
0.0934225
0.182465
0.26673
0.456222
0.706342
0.919488
1.07943
1.17264
1.21429
1.22441
-0.446464
-0.449866
-0.454361
-0.447412
-0.404377
-0.328444
-0.245262
-0.163657
-0.0822789
0.00317566
0.0839177
0.154742
0.225359
0.338931
0.507754
0.650795
0.756581
0.818115
0.844342
0.85022
-0.382755
-0.389363
-0.395466
-0.386402
-0.343709
-0.274713
-0.20216
-0.132142
-0.0633556
0.00780027
0.0742147
0.129302
0.181695
0.250415
0.359955
0.454746
0.522925
0.561606
0.57731
0.578195
-0.24824
-0.253232
-0.257669
-0.25228
-0.226142
-0.185319
-0.139061
-0.0903565
-0.0396906
0.0146828
0.0640109
0.102534
0.137944
0.179523
0.24867
0.31256
0.356463
0.381564
0.390884
0.390977
-0.0934806
-0.0957727
-0.0996126
-0.102315
-0.0980493
-0.0874713
-0.0691256
-0.044427
-0.0133702
0.0231438
0.0561166
0.080828
0.102357
0.127555
0.170545
0.211723
0.241164
0.257221
0.263428
0.262666
0.0215643
0.0206257
0.0170136
0.00887068
-0.0023801
-0.009627
-0.010196
-0.00299959
0.0121368
0.0334727
0.0529621
0.065197
0.0730589
0.0883837
0.11859
0.146848
0.165774
0.175157
0.178123
0.177007
0.0830022
0.0824105
0.0789563
0.0696217
0.0551379
0.0412017
0.031935
0.0293115
0.0338868
0.0442365
0.0537783
0.0559727
0.0532951
0.0647237
0.0890795
0.108557
0.119924
0.124527
0.125503
0.124433
0.106801
0.106292
0.103492
0.0958404
0.0833444
0.0699018
0.0588427
0.0523084
0.0514296
0.0554419
0.0593829
0.0572408
0.050992
0.0593803
0.0779942
0.0916349
0.0984343
0.100574
0.10078
0.0998228
0.11134
0.110907
0.108897
0.103588
0.0946062
0.084114
0.0744592
0.0676295
0.0648045
0.0663859
0.0692911
0.0685771
0.0659419
0.0753577
0.087846
0.0946387
0.0972823
0.0978406
0.097625
0.0968407
0.108006
0.107641
0.106265
0.102884
0.0970333
0.0897649
0.0825507
0.0770092
0.0745106
0.0766126
0.08217
0.0876187
0.0926167
0.102203
0.109416
0.111392
0.111431
0.110945
0.110733
0.109915
0.102556
0.102255
0.101313
0.0992183
0.0956076
0.0908645
0.0859085
0.0819725
0.0805319
0.0838583
0.0941464
0.10934
0.124613
0.132928
0.132908
0.132299
0.132786
0.133694
0.133689
0.132442
0.0973101
0.0970669
0.0963862
0.0949852
0.0927471
0.0896378
0.0862108
0.0834191
0.0827593
0.0870693
0.101072
0.125045
0.149596
0.156598
0.150485
0.147732
0.148909
0.15208
0.152991
0.151601
0.0928165
0.092619
0.0920839
0.0909547
0.0892217
0.0870596
0.0844575
0.0820899
0.0810871
0.0843701
0.0978075
0.124449
0.152923
0.156996
0.147992
0.14746
0.15216
0.157306
0.158351
0.156426
0.0889736
0.0888204
0.0884105
0.087416
0.0858849
0.0838143
0.0814168
0.0786501
0.0760559
0.0752399
0.0812561
0.0994131
0.120995
0.119456
0.111828
0.116022
0.126514
0.134716
0.135083
0.132611
0.0854042
0.0852815
0.0849816
0.0841539
0.0827411
0.0807098
0.0777995
0.0743133
0.0692142
0.0618565
0.0531776
0.049051
0.0481492
0.0414775
0.0435431
0.0552506
0.0677747
0.0741861
0.074318
0.0726738
0.0818498
0.0817663
0.0816027
0.0810762
0.0796534
0.0778875
0.075018
0.070544
0.0630977
0.0487815
0.0229691
-0.0141524
-0.0515096
-0.057689
-0.0412941
-0.0225332
-0.0110269
-0.00758713
-0.00758957
-0.00848022
0.0778433
0.0777987
0.0778016
0.0776993
0.0770411
0.0754005
0.0730091
0.0688012
0.0606473
0.0418365
0.00202074
-0.0690201
-0.130454
-0.133376
-0.1096
-0.0937636
-0.0897272
-0.0894416
-0.089468
-0.0899016
0.0731062
0.0730617
0.073126
0.0731819
0.0732619
0.0732443
0.0723912
0.070125
0.0636923
0.0465013
0.00914915
-0.0673499
-0.131992
-0.135241
-0.128317
-0.136042
-0.148034
-0.154795
-0.153333
-0.15198
0.0673829
0.0674463
0.0679945
0.069074
0.0704979
0.0721579
0.0736165
0.0741886
0.0729827
0.0626228
0.0374353
-0.0156272
-0.0610363
-0.0797858
-0.097594
-0.130554
-0.159723
-0.172504
-0.172724
-0.171469
0.0588859
0.0590584
0.0599326
0.0618408
0.0647214
0.0685594
0.0735561
0.0789258
0.0834694
0.0848415
0.0786594
0.0555737
0.0311598
-0.00237507
-0.0479468
-0.0943234
-0.12949
-0.14587
-0.146969
-0.14469
0.045838
0.0460941
0.0473474
0.0504276
0.054436
0.0601321
0.0676988
0.0776649
0.0887528
0.100425
0.108352
0.108288
0.099527
0.0543759
0.00251703
-0.0362537
-0.0595892
-0.0718079
-0.075005
-0.0735582
0.027857
0.0280666
0.0296944
0.0327887
0.0372292
0.0431598
0.0511017
0.0615495
0.0761477
0.0911477
0.101802
0.106574
0.104439
0.0611936
0.0246042
0.00866111
0.00563624
-0.00385959
-0.00894118
-0.00883447
0.0066576
0.00630012
0.00568965
0.00475891
0.00535851
0.0066736
0.00809628
0.0110153
0.0165141
0.0256524
0.0317939
0.0400372
0.0397647
0.0265848
0.0184843
0.0112378
0.00606338
0.00136799
0.00686711
0.00737011
0.0336342
0.209222
0.414379
0.591279
0.733576
0.846818
0.941118
1.02083
1.0565
1.03336
0.353471
0.479696
0.614969
0.732153
0.831337
0.913782
0.980513
1.02776
1.05156
1.06347
0.582276
0.668564
0.76084
0.842668
0.913124
0.972094
1.01892
1.0531
1.07766
1.09549
0.749075
0.810185
0.874904
0.934095
0.985664
1.02941
1.06527
1.09381
1.11712
1.13532
0.878652
0.923447
0.970715
1.01587
1.05578
1.09057
1.1203
1.14497
1.16569
1.18347
0.985331
1.01917
1.05821
1.09467
1.12807
1.15795
1.18402
1.20589
1.22396
1.24128
1.07937
1.10863
1.14327
1.17596
1.2064
1.23398
1.25806
1.27802
1.29369
1.31076
1.1689
1.19847
1.23289
1.26528
1.29519
1.32205
1.34513
1.36378
1.37727
1.39431
1.26483
1.29819
1.33512
1.36894
1.39919
1.42555
1.44764
1.46502
1.47697
1.49438
1.38025
1.41811
1.45692
1.49134
1.52081
1.54567
1.56613
1.58209
1.59361
1.61169
1.52545
1.5641
1.60025
1.63101
1.65677
1.67893
1.69803
1.71361
1.72607
1.74408
1.70055
1.73233
1.75855
1.78101
1.80103
1.81979
1.83754
1.85404
1.86941
1.88749
1.88924
1.9065
1.9216
1.93786
1.95379
1.96834
1.98156
1.99551
2.01306
2.03322
2.07111
2.0806
2.09216
2.10298
2.11228
2.12188
2.13268
2.14406
2.15544
2.1708
2.27829
2.28198
2.26704
2.25223
2.24598
2.25167
2.27016
2.30048
2.33266
2.35932
2.58461
2.44976
2.37314
2.33079
2.31338
2.31734
2.34475
2.40117
2.50379
2.72816
0.867997
0.865865
0.861379
0.852748
0.840515
0.828373
0.818126
0.810201
0.804539
0.801225
0.800793
0.803447
0.808482
0.815653
0.825003
0.836515
0.849146
0.860167
0.866272
0.869319
0.792464
0.798309
0.804644
0.809129
0.811588
0.811249
0.808492
0.804652
0.801097
0.79877
0.798537
0.800648
0.804238
0.80847
0.812235
0.814087
0.813128
0.809629
0.804453
0.797827
0.784072
0.786368
0.789767
0.792755
0.794819
0.796299
0.79703
0.796678
0.795603
0.794649
0.794729
0.79606
0.797795
0.799036
0.799165
0.798237
0.796658
0.7943
0.791021
0.788094
0.778602
0.779688
0.781517
0.783886
0.785898
0.787308
0.788303
0.789014
0.789359
0.789501
0.789885
0.790581
0.791084
0.791072
0.790597
0.7897
0.788193
0.786079
0.783971
0.782581
0.773455
0.774118
0.775222
0.776919
0.778688
0.780302
0.781569
0.78254
0.783356
0.784053
0.784657
0.785076
0.785155
0.784893
0.784248
0.78313
0.781651
0.780067
0.778722
0.777935
0.768551
0.769011
0.769794
0.771086
0.772562
0.774061
0.775497
0.776747
0.777809
0.778755
0.779523
0.779929
0.779932
0.779536
0.778736
0.777662
0.776468
0.775282
0.774333
0.773809
0.763816
0.76416
0.764769
0.765833
0.767117
0.768474
0.769882
0.771278
0.77257
0.773724
0.774656
0.77515
0.775146
0.774712
0.77398
0.773094
0.772152
0.771214
0.7705
0.770116
0.7592
0.759467
0.759959
0.760867
0.762031
0.763312
0.764674
0.766109
0.767561
0.768937
0.770072
0.770696
0.770766
0.770442
0.769878
0.769174
0.768407
0.767674
0.767132
0.766838
0.754631
0.754841
0.75525
0.756052
0.75714
0.758373
0.759721
0.76119
0.762751
0.764331
0.765708
0.766537
0.766795
0.766666
0.766289
0.765764
0.765165
0.764598
0.764186
0.763956
0.750035
0.750202
0.750553
0.751285
0.752332
0.753546
0.754917
0.756452
0.758141
0.759937
0.7616
0.762717
0.763237
0.763339
0.763162
0.762815
0.762384
0.761955
0.761648
0.761465
0.745338
0.74547
0.745778
0.746469
0.747505
0.748745
0.750179
0.751829
0.753698
0.755747
0.757758
0.759254
0.760092
0.760452
0.76049
0.760321
0.760045
0.759746
0.759525
0.75938
0.740474
0.740577
0.740854
0.741531
0.742592
0.743902
0.745444
0.747266
0.749395
0.751804
0.754258
0.756184
0.757374
0.758021
0.758293
0.758312
0.758186
0.758005
0.757857
0.757744
0.735377
0.735454
0.735713
0.736394
0.737512
0.738929
0.740617
0.742654
0.745094
0.747937
0.750941
0.753406
0.755039
0.756044
0.756598
0.756835
0.756863
0.756795
0.756715
0.756629
0.729966
0.730017
0.730263
0.730968
0.73217
0.73373
0.735624
0.737948
0.740779
0.744167
0.747846
0.750972
0.753142
0.754566
0.755443
0.755937
0.756147
0.756209
0.756194
0.75613
0.724146
0.724171
0.724412
0.725161
0.726484
0.728236
0.730402
0.733108
0.736461
0.740528
0.745041
0.748985
0.751802
0.753712
0.754951
0.755711
0.756146
0.756342
0.756396
0.756356
0.717821
0.717831
0.718066
0.718858
0.720324
0.722309
0.724809
0.727979
0.73198
0.736924
0.742476
0.747382
0.750977
0.753515
0.755222
0.75631
0.757016
0.75737
0.757495
0.757477
0.710765
0.710745
0.711003
0.711868
0.713497
0.715747
0.718662
0.722415
0.727204
0.733182
0.740002
0.746148
0.750708
0.753984
0.756277
0.75786
0.758893
0.759444
0.759653
0.759653
0.702738
0.702693
0.702969
0.703932
0.70578
0.708408
0.711873
0.716399
0.722245
0.729594
0.737981
0.745544
0.751221
0.755371
0.758355
0.760492
0.76192
0.762717
0.76302
0.763033
0.693355
0.69329
0.69361
0.694713
0.696829
0.699919
0.704068
0.709549
0.716672
0.725661
0.735974
0.745332
0.752406
0.757633
0.761475
0.764276
0.766197
0.767289
0.76769
0.767707
0.682026
0.681942
0.68234
0.683656
0.68617
0.689917
0.695014
0.701795
0.710626
0.721734
0.734392
0.745833
0.75449
0.760947
0.765749
0.769303
0.771784
0.773183
0.773681
0.773698
0.667997
0.667894
0.668423
0.67008
0.673188
0.67787
0.684269
0.692782
0.703805
0.717548
0.733056
0.746977
0.757498
0.76538
0.771279
0.775676
0.778769
0.780487
0.781078
0.781091
0.650311
0.650188
0.650928
0.653108
0.657113
0.663168
0.671408
0.682287
0.696186
0.713226
0.732145
0.748936
0.761584
0.77105
0.778209
0.783549
0.787277
0.789314
0.789996
0.790005
0.627579
0.627446
0.62854
0.63155
0.636961
0.64507
0.655975
0.67011
0.687752
0.708865
0.7318
0.751866
0.766887
0.778148
0.786679
0.793045
0.797483
0.799852
0.800612
0.800609
0.597565
0.597464
0.599204
0.603635
0.611369
0.622693
0.637532
0.656138
0.678596
0.704637
0.732204
0.755912
0.773538
0.786749
0.796782
0.804335
0.809516
0.812192
0.813007
0.812981
0.556163
0.55624
0.559402
0.566775
0.578733
0.595308
0.615943
0.640582
0.669058
0.700897
0.733641
0.761277
0.781652
0.796931
0.808598
0.817432
0.823366
0.826274
0.827102
0.827041
0.495577
0.496823
0.504534
0.518394
0.538096
0.56299
0.591745
0.624082
0.659706
0.698047
0.736334
0.768052
0.79125
0.808649
0.821996
0.832096
0.838689
0.841772
0.842517
0.84241
0.423132
0.425111
0.439735
0.463629
0.494229
0.528891
0.566577
0.607194
0.650563
0.696189
0.741066
0.778052
0.805195
0.825702
0.84145
0.853145
0.860775
0.86428
0.865219
0.865217
0.348582
0.355156
0.376556
0.410558
0.451337
0.495574
0.542171
0.591105
0.642293
0.695313
0.746966
0.789434
0.820712
0.844509
0.862939
0.876664
0.885362
0.88861
0.889448
0.889604
0.288305
0.296834
0.322939
0.363825
0.412416
0.464714
0.519288
0.575967
0.634583
0.694662
0.752747
0.800302
0.835257
0.861765
0.88206
0.897035
0.906236
0.910387
0.911896
0.912145
0.239345
0.248427
0.277991
0.323849
0.378419
0.437176
0.498439
0.561928
0.627285
0.693933
0.757993
0.810169
0.848296
0.876967
0.898804
0.914932
0.925268
0.930123
0.931925
0.932221
0.198523
0.207811
0.239674
0.289302
0.348638
0.41268
0.479609
0.549031
0.620419
0.693045
0.762592
0.818905
0.859775
0.890291
0.913394
0.930421
0.941664
0.947084
0.949109
0.949424
0.163301
0.172663
0.206241
0.258877
0.322023
0.390495
0.462336
0.536999
0.613825
0.691922
0.766492
0.826546
0.86979
0.901814
0.925876
0.943654
0.955367
0.961301
0.963469
0.963811
0.131994
0.141386
0.176252
0.231374
0.297688
0.369937
0.446083
0.525448
0.607241
0.690392
0.769643
0.833139
0.878509
0.911809
0.93663
0.954877
0.96693
0.973215
0.975495
0.975857
0.10331
0.112755
0.148723
0.205942
0.274936
0.350456
0.430413
0.51403
0.600392
0.688288
0.771982
0.838758
0.886129
0.920594
0.94608
0.964663
0.97697
0.983431
0.985707
0.986086
0.0763923
0.085892
0.122867
0.1819
0.253267
0.331658
0.415008
0.502482
0.59308
0.685461
0.773458
0.843468
0.892823
0.928435
0.954548
0.973453
0.985867
0.99242
0.994687
0.994971
0.050679
0.0603001
0.0982028
0.158766
0.232311
0.313255
0.399652
0.490638
0.58516
0.681807
0.774026
0.847315
0.898743
0.935585
0.962367
0.9816
0.994157
1.00068
1.00294
1.00316
0.0257461
0.0355746
0.0742756
0.136365
0.211813
0.295052
0.384197
0.47838
0.576546
0.677252
0.773647
0.85034
0.904001
0.942218
0.969777
0.989392
1.00209
1.00859
1.01076
1.01099
0.00138519
0.0114526
0.0509466
0.114496
0.191643
0.276935
0.368558
0.46565
0.567182
0.671749
0.77229
0.852543
0.908674
0.948455
0.976927
0.997008
1.00986
1.01631
1.01835
1.01853
-0.0224585
-0.0121529
0.0281886
0.093021
0.171723
0.258865
0.352704
0.452427
0.557051
0.665262
0.769907
0.853903
0.912767
0.954356
0.983897
1.0045
1.01748
1.0238
1.02568
1.02579
-0.0458925
-0.0352512
0.00583076
0.071904
0.152027
0.240827
0.336646
0.438728
0.546169
0.657787
0.766439
0.854332
0.916242
0.959948
0.990746
1.01192
1.02496
1.03108
1.03273
1.03274
-0.0688621
-0.0579214
-0.0160524
0.051147
0.132567
0.222849
0.320429
0.424606
0.534574
0.649324
0.761832
0.853732
0.919027
0.965235
0.997544
1.01932
1.03229
1.03804
1.03941
1.03934
-0.0913888
-0.0801179
-0.0374359
0.0307986
0.113385
0.204978
0.304106
0.410128
0.52233
0.639905
0.756054
0.852008
0.920991
0.970161
1.00438
1.02683
1.0395
1.04464
1.04565
1.04549
-0.113272
-0.101745
-0.0582853
0.0109064
0.0945427
0.187296
0.287755
0.395378
0.509523
0.629602
0.749099
0.849055
0.921962
0.974602
1.01133
1.03476
1.04684
1.05089
1.05135
1.05111
-0.13464
-0.122752
-0.0785606
-0.00849266
0.0760813
0.16985
0.271473
0.380444
0.496251
0.618508
0.740987
0.844769
0.921741
0.978318
1.01837
1.04352
1.05496
1.05716
1.05651
1.05613
-0.155319
-0.143103
-0.0982191
-0.0273391
0.0580869
0.152729
0.255344
0.365452
0.482632
0.606702
0.731774
0.839072
0.920115
0.980945
1.02517
1.05342
1.06515
1.06496
1.06177
1.06033
-0.175358
-0.162831
-0.117201
-0.0455727
0.0406039
0.136005
0.239456
0.350485
0.468784
0.594331
0.721553
0.831907
0.916892
0.982015
1.03095
1.06399
1.07859
1.07783
1.07058
1.06082
-0.194672
-0.181892
-0.135603
-0.063345
0.0234215
0.11939
0.223464
0.335129
0.454238
0.580864
0.709754
0.822644
0.911484
0.980919
1.03454
1.07372
1.09459
1.09684
1.08718
1.07872
-0.213204
-0.200199
-0.153419
-0.0806108
0.00655426
0.102884
0.207388
0.319369
0.438956
0.566198
0.696216
0.810953
0.903218
0.976915
1.03349
1.07706
1.10092
1.10841
1.07166
1.01828
-0.230666
-0.216973
-0.170538
-0.0973027
-0.0101012
0.08635
0.191187
0.303324
0.423006
0.550408
0.680896
0.796696
0.891123
0.969686
1.02582
1.06283
1.08772
1.07648
1.0196
0.954977
-0.247386
-0.232784
-0.186771
-0.112783
-0.0262047
0.0702712
0.174634
0.287058
0.406535
0.533669
0.663827
0.779745
0.874128
0.960356
1.00993
1.06187
1.0327
0.991736
0.922285
0.853903
-0.233505
-0.215385
-0.166467
-0.0880604
0.00354047
0.103861
0.213624
0.328999
0.451502
0.581949
0.705634
0.808334
0.894393
0.986186
1.03373
0.954162
0.90937