/*--------------------------------*- C++ -*----------------------------------*\
  =========                 |
  \\      /  F ield         | OpenFOAM: The Open Source CFD Toolbox
   \\    /   O peration     | Website:  https://openfoam.org
    \\  /    A nd           | Version:  7
     \\/     M anipulation  |
\*---------------------------------------------------------------------------*/
FoamFile
{
    version     2.0;
    format      ascii;
    class       volScalarField;
    location    "4.5";
    object      rho;
}
// * * * * * * * * * * * * * * * * * * * * * * * * * * * * * * * * * * * * * //

dimensions      [1 -3 0 0 0 0 0];

internalField   nonuniform List<scalar> 
19968
(
1.40001
1.40001
1.40001
1.40001
1.40001
1.40001
1.40001
1.40001
1.40001
1.40001
1.40001
1.40001
1.40001
1.40001
1.40001
1.40001
1.40001
1.40001
1.40001
1.40001
1.40001
1.40001
1.40001
1.40001
1.40001
1.40001
1.40001
1.40001
1.40001
1.40001
1.40001
1.40001
1.40001
1.40001
1.40001
1.40001
1.40001
1.40001
1.40001
1.40001
1.40001
1.40001
1.40001
1.40001
1.40001
1.40001
1.40001
1.40001
1.6821
4.54642
5.43585
5.43636
5.45801
5.47581
5.49742
5.52038
5.5433
5.56524
5.58628
5.60657
5.62606
5.64463
5.66257
5.68031
5.69791
5.71496
5.73094
5.74592
5.76078
5.77634
5.79283
5.80959
5.82511
5.83818
5.84886
5.8585
5.86887
5.88129
5.8958
5.91112
5.92536
5.93714
5.94623
5.95335
5.95957
5.96585
5.97262
5.97971
5.98648
5.99226
5.99686
6.00052
6.00362
6.00644
6.00891
6.01151
1.40001
1.40001
1.40001
1.40001
1.40001
1.40001
1.40001
1.40001
1.40001
1.40001
1.40001
1.40001
1.40001
1.40001
1.40001
1.40001
1.40001
1.40001
1.40001
1.40001
1.40001
1.40001
1.40001
1.40001
1.40001
1.40001
1.40001
1.40001
1.40001
1.40001
1.40001
1.40001
1.40001
1.40001
1.40001
1.40001
1.40001
1.40001
1.40001
1.40001
1.40001
1.40001
1.40001
1.40001
1.40001
1.40001
1.40001
1.40001
1.66428
4.51502
5.43021
5.43815
5.45719
5.47583
5.49758
5.52052
5.54322
5.5648
5.58542
5.60529
5.62457
5.64319
5.66134
5.67928
5.69691
5.71387
5.72974
5.74466
5.75951
5.77505
5.79148
5.80814
5.8236
5.83668
5.84742
5.85716
5.86765
5.88013
5.89457
5.9097
5.92369
5.93526
5.94424
5.95131
5.95749
5.96368
5.97031
5.9773
5.98412
5.99014
5.99506
5.99893
6.00195
6.00438
6.00633
6.00838
1.40001
1.40001
1.40001
1.40001
1.40001
1.40001
1.40001
1.40001
1.40001
1.40001
1.40001
1.40001
1.40001
1.40001
1.40001
1.40001
1.40001
1.40001
1.40001
1.40001
1.40001
1.40001
1.40001
1.40001
1.40001
1.40001
1.40001
1.40001
1.40001
1.40001
1.40001
1.40001
1.40001
1.40001
1.40001
1.40001
1.40001
1.40001
1.40001
1.40001
1.40001
1.40001
1.40001
1.40001
1.40001
1.40001
1.40001
1.40001
1.62679
4.45523
5.42822
5.43413
5.45357
5.4741
5.49694
5.52021
5.54246
5.56319
5.58296
5.60221
5.62135
5.64026
5.65888
5.67716
5.69484
5.71162
5.72727
5.74207
5.75689
5.77243
5.7888
5.80535
5.82079
5.83397
5.84493
5.8549
5.86558
5.8781
5.8924
5.90725
5.92095
5.93232
5.94122
5.94828
5.95442
5.96044
5.96677
5.97347
5.98019
5.98642
5.99175
5.9959
5.99884
6.00076
6.00204
6.0033
1.40001
1.40001
1.40001
1.40001
1.40001
1.40001
1.40001
1.40001
1.40001
1.40001
1.40001
1.40001
1.40001
1.40001
1.40001
1.40001
1.40001
1.40001
1.40001
1.40001
1.40001
1.40001
1.40001
1.40001
1.40001
1.40001
1.40001
1.40001
1.40001
1.40001
1.40001
1.40001
1.40001
1.40001
1.40001
1.40001
1.40001
1.40001
1.40001
1.40001
1.40001
1.40001
1.40001
1.40001
1.40001
1.40001
1.40001
1.40001
1.57171
4.3591
5.42254
5.431
5.45161
5.47384
5.49726
5.52022
5.54129
5.56052
5.57912
5.59777
5.61691
5.63627
5.65542
5.67397
5.6915
5.70785
5.72309
5.73767
5.75249
5.76805
5.78438
5.80082
5.81622
5.82955
5.84084
5.85119
5.86214
5.87467
5.88869
5.90308
5.91633
5.92741
5.9362
5.94325
5.94932
5.95513
5.96115
5.96756
5.97425
5.98076
5.98652
5.99086
5.99344
5.99447
5.99468
5.99486
1.40001
1.40001
1.40001
1.40001
1.40001
1.40001
1.40001
1.40001
1.40001
1.40001
1.40001
1.40001
1.40001
1.40001
1.40001
1.40001
1.40001
1.40001
1.40001
1.40001
1.40001
1.40001
1.40001
1.40001
1.40001
1.40001
1.40001
1.40001
1.40001
1.40001
1.40001
1.40001
1.40001
1.40001
1.40001
1.40001
1.40001
1.40001
1.40001
1.40001
1.40001
1.40001
1.40001
1.40001
1.40001
1.40001
1.40001
1.40001
1.50011
4.23204
5.41508
5.42774
5.44942
5.47209
5.49516
5.51722
5.53705
5.55516
5.57309
5.59158
5.61099
5.63096
5.65073
5.66949
5.68675
5.7025
5.71723
5.73161
5.74649
5.76216
5.7785
5.7948
5.81015
5.82369
5.83543
5.8463
5.85759
5.87012
5.88375
5.89753
5.91023
5.921
5.92968
5.93672
5.94275
5.94841
5.95421
5.96048
5.96722
5.974
5.97998
5.9841
5.9859
5.98566
5.98445
5.98332
1.40001
1.40001
1.40001
1.40001
1.40001
1.40001
1.40001
1.40001
1.40001
1.40001
1.40001
1.40001
1.40001
1.40001
1.40001
1.40001
1.40001
1.40001
1.40001
1.40001
1.40001
1.40001
1.40001
1.40001
1.40001
1.40001
1.40001
1.40001
1.40001
1.40001
1.40001
1.40001
1.40001
1.40001
1.40001
1.40001
1.40001
1.40001
1.40001
1.40001
1.40001
1.40001
1.40001
1.40001
1.40001
1.40001
1.40001
1.40001
1.4046
4.03671
5.39376
5.41809
5.44283
5.46745
5.49173
5.51394
5.53337
5.55103
5.56854
5.5867
5.60605
5.62635
5.64641
5.66495
5.68138
5.69602
5.70987
5.72382
5.73865
5.75425
5.77029
5.78609
5.801
5.8144
5.82634
5.83763
5.84924
5.8617
5.87483
5.88786
5.89988
5.91022
5.91876
5.92581
5.93192
5.93769
5.94365
5.95016
5.95726
5.96445
5.97074
5.97491
5.97634
5.97519
5.97292
5.97086
1.40001
1.40001
1.40001
1.40001
1.40001
1.40001
1.40001
1.40001
1.40001
1.40001
1.40001
1.40001
1.40001
1.40001
1.40001
1.40001
1.40001
1.40001
1.40001
1.40001
1.40001
1.40001
1.40001
1.40001
1.40001
1.40001
1.40001
1.40001
1.40001
1.40001
1.40001
1.40001
1.40001
1.40001
1.40001
1.40001
1.40001
1.40001
1.40001
1.40001
1.40001
1.40001
1.40001
1.40001
1.40001
1.40001
1.40001
1.40001
1.40003
3.73919
5.35799
5.40482
5.43044
5.4559
5.48009
5.50188
5.52078
5.538
5.55521
5.5733
5.59275
5.61321
5.63342
5.65192
5.66811
5.68242
5.69619
5.71031
5.72537
5.741
5.75668
5.77193
5.78625
5.79942
5.81165
5.82364
5.83597
5.8488
5.86174
5.87418
5.88554
5.89543
5.90381
5.91094
5.9173
5.92344
5.92987
5.93684
5.94428
5.95156
5.95762
5.96143
5.9623
5.96045
5.95748
5.95499
1.40001
1.40001
1.40001
1.40001
1.40001
1.40001
1.40001
1.40001
1.40001
1.40001
1.40001
1.40001
1.40001
1.40001
1.40001
1.40001
1.40001
1.40001
1.40001
1.40001
1.40001
1.40001
1.40001
1.40001
1.40001
1.40001
1.40001
1.40001
1.40001
1.40001
1.40001
1.40001
1.40001
1.40001
1.40001
1.40001
1.40001
1.40001
1.40001
1.40001
1.40001
1.40001
1.40001
1.40001
1.40001
1.40001
1.40001
1.40001
1.40001
3.34773
5.30995
5.39684
5.41984
5.44571
5.47046
5.49351
5.51362
5.53145
5.54853
5.5661
5.58463
5.60388
5.62304
5.64095
5.65685
5.67099
5.68472
5.69884
5.71361
5.72875
5.74348
5.75767
5.77096
5.78349
5.7956
5.80792
5.82074
5.83379
5.84644
5.85817
5.86868
5.8779
5.88595
5.8931
5.89975
5.90638
5.91336
5.92076
5.92832
5.93531
5.94077
5.94375
5.94391
5.94179
5.93858
5.93606
1.40001
1.40001
1.40001
1.40001
1.40001
1.40001
1.40001
1.40001
1.40001
1.40001
1.40001
1.40001
1.40001
1.40001
1.40001
1.40001
1.40001
1.40001
1.40001
1.40001
1.40001
1.40001
1.40001
1.40001
1.40001
1.40001
1.40001
1.40001
1.40001
1.40001
1.40001
1.40001
1.40001
1.40001
1.40001
1.40001
1.40001
1.40001
1.40001
1.40001
1.40001
1.40001
1.40001
1.40001
1.40001
1.40001
1.40001
1.40001
1.40001
2.87645
5.21826
5.39855
5.41477
5.43917
5.46303
5.48627
5.50741
5.52629
5.54364
5.56053
5.57757
5.59469
5.61172
5.62837
5.64384
5.65793
5.6718
5.68598
5.70017
5.71437
5.7274
5.73974
5.75124
5.76246
5.77386
5.78611
5.79923
5.8125
5.82496
5.83602
5.84564
5.85409
5.86172
5.86887
5.87589
5.88311
5.89072
5.89857
5.90619
5.91275
5.9175
5.9198
5.91961
5.91764
5.91477
5.91274
1.40001
1.40001
1.40001
1.40001
1.40001
1.40001
1.40001
1.40001
1.40001
1.40001
1.40001
1.40001
1.40001
1.40001
1.40001
1.40001
1.40001
1.40001
1.40001
1.40001
1.40001
1.40001
1.40001
1.40001
1.40001
1.40001
1.40001
1.40001
1.40001
1.40001
1.40001
1.40001
1.40001
1.40001
1.40001
1.40001
1.40001
1.40001
1.40001
1.40001
1.40001
1.40001
1.40001
1.40001
1.40001
1.40001
1.40001
1.40001
1.40001
2.34026
5.03207
5.40795
5.42249
5.44395
5.46395
5.4843
5.50438
5.52335
5.54059
5.55657
5.57191
5.58664
5.60105
5.61594
5.63085
5.64502
5.65914
5.67339
5.68689
5.69994
5.71112
5.72128
5.73065
5.74022
5.75045
5.76195
5.77466
5.78755
5.79937
5.80946
5.81797
5.82549
5.83261
5.8397
5.84698
5.85459
5.86247
5.8703
5.87746
5.88312
5.88676
5.8881
5.88742
5.88557
5.88315
5.88164
1.40001
1.40001
1.40001
1.40001
1.40001
1.40001
1.40001
1.40001
1.40001
1.40001
1.40001
1.40001
1.40001
1.40001
1.40001
1.40001
1.40001
1.40001
1.40001
1.40001
1.40001
1.40001
1.40001
1.40001
1.40001
1.40001
1.40001
1.40001
1.40001
1.40001
1.40001
1.40001
1.40001
1.40001
1.40001
1.40001
1.40001
1.40001
1.40001
1.40001
1.40001
1.40001
1.40001
1.40001
1.40001
1.40001
1.40001
1.40001
1.40001
1.82535
4.69547
5.42557
5.41646
5.4377
5.45485
5.47395
5.49332
5.51225
5.52966
5.54571
5.56107
5.57549
5.58867
5.60209
5.6162
5.63021
5.64443
5.65879
5.67184
5.68379
5.69353
5.70185
5.70949
5.71754
5.72666
5.73716
5.7489
5.76075
5.77127
5.77971
5.78637
5.79207
5.7976
5.8034
5.80964
5.81632
5.8234
5.83057
5.83722
5.8425
5.84584
5.84711
5.84661
5.84523
5.84349
5.84255
1.40001
1.40001
1.40001
1.40001
1.40001
1.40001
1.40001
1.40001
1.40001
1.40001
1.40001
1.40001
1.40001
1.40001
1.40001
1.40001
1.40001
1.40001
1.40001
1.40001
1.40001
1.40001
1.40001
1.40001
1.40001
1.40001
1.40001
1.40001
1.40001
1.40001
1.40001
1.40001
1.40001
1.40001
1.40001
1.40001
1.40001
1.40001
1.40001
1.40001
1.40001
1.40001
1.40001
1.40001
1.40001
1.40001
1.40001
1.40001
1.40001
1.41965
4.02688
5.39966
5.41263
5.42827
5.4468
5.46475
5.48243
5.49986
5.51655
5.53225
5.54754
5.56177
5.57406
5.58579
5.59822
5.61087
5.62379
5.6372
5.64948
5.66012
5.66879
5.67545
5.68169
5.68843
5.69645
5.70575
5.71622
5.72681
5.73612
5.74329
5.7486
5.75296
5.75722
5.76181
5.76679
5.77215
5.77785
5.78361
5.78879
5.7925
5.79426
5.79373
5.79136
5.78867
5.78617
5.78484
1.40001
1.40001
1.40001
1.40001
1.40001
1.40001
1.40001
1.40001
1.40001
1.40001
1.40001
1.40001
1.40001
1.40001
1.40001
1.40001
1.40001
1.40001
1.40001
1.40001
1.40001
1.40001
1.40001
1.40001
1.40001
1.40001
1.40001
1.40001
1.40001
1.40001
1.40001
1.40001
1.40001
1.40001
1.40001
1.40001
1.40001
1.40001
1.40001
1.40001
1.40001
1.40001
1.40001
1.40001
1.40001
1.40001
1.40001
1.40001
1.40001
1.40004
3.13834
5.23503
5.36609
5.39107
5.41514
5.43369
5.45064
5.46639
5.4819
5.49727
5.51271
5.52797
5.5416
5.5536
5.56536
5.57718
5.58907
5.60152
5.61362
5.6239
5.63253
5.6389
5.64473
5.65085
5.65794
5.66596
5.67478
5.68368
5.6914
5.69704
5.70072
5.70321
5.70522
5.70704
5.70864
5.71009
5.71172
5.71378
5.71608
5.71805
5.71919
5.71912
5.71751
5.71556
5.71335
5.71214
1.40001
1.40001
1.40001
1.40001
1.40001
1.40001
1.40001
1.40001
1.40001
1.40001
1.40001
1.40001
1.40001
1.40001
1.40001
1.40001
1.40001
1.40001
1.40001
1.40001
1.40001
1.40001
1.40001
1.40001
1.40001
1.40001
1.40001
1.40001
1.40001
1.40001
1.40001
1.40001
1.40001
1.40001
1.40001
1.40001
1.40001
1.40001
1.40001
1.40001
1.40001
1.40001
1.40001
1.40001
1.40001
1.40001
1.40001
1.40001
1.40001
1.4
2.12488
4.86746
5.37085
5.37772
5.40254
5.4207
5.43696
5.45085
5.46403
5.47742
5.49136
5.50588
5.51976
5.53169
5.54229
5.5523
5.562
5.57191
5.58221
5.59139
5.59918
5.60495
5.60956
5.61407
5.61891
5.62421
5.62991
5.63577
5.64077
5.64404
5.64535
5.64536
5.64472
5.64313
5.64063
5.63813
5.6361
5.63488
5.63434
5.63379
5.63169
5.62724
5.61917
5.60895
5.59842
5.58923
1.40001
1.40001
1.40001
1.40001
1.40001
1.40001
1.40001
1.40001
1.40001
1.40001
1.40001
1.40001
1.40001
1.40001
1.40001
1.40001
1.40001
1.40001
1.40001
1.40001
1.40001
1.40001
1.40001
1.40001
1.40001
1.40001
1.40001
1.40001
1.40001
1.40001
1.40001
1.40001
1.40001
1.40001
1.40001
1.40001
1.40001
1.40001
1.40001
1.40001
1.40001
1.40001
1.40001
1.40001
1.40001
1.40001
1.40001
1.40001
1.40001
1.40001
1.43822
3.9132
5.37541
5.39421
5.40183
5.41422
5.42383
5.43302
5.4425
5.45312
5.46466
5.47689
5.48919
5.50017
5.50934
5.51727
5.52441
5.53116
5.53845
5.54603
5.55278
5.55828
5.56202
5.56484
5.56725
5.5694
5.57141
5.57345
5.57493
5.57523
5.57388
5.57116
5.56668
5.55984
5.55131
5.54162
5.53108
5.51971
5.50718
5.49304
5.47713
5.45985
5.44383
5.42861
5.42015
5.41485
1.40001
1.40001
1.40001
1.40001
1.40001
1.40001
1.40001
1.40001
1.40001
1.40001
1.40001
1.40001
1.40001
1.40001
1.40001
1.40001
1.40001
1.40001
1.40001
1.40001
1.40001
1.40001
1.40001
1.40001
1.40001
1.40001
1.40001
1.40001
1.40001
1.40001
1.40001
1.40001
1.40001
1.40001
1.40001
1.40001
1.40001
1.40001
1.40001
1.40001
1.40001
1.40001
1.40001
1.40001
1.40001
1.40001
1.40001
1.40001
1.40001
1.40001
1.40005
2.56001
5.02897
5.34495
5.35475
5.37222
5.38607
5.39916
5.41092
5.42225
5.43346
5.44472
5.45578
5.46584
5.47397
5.48017
5.48499
5.48899
5.49277
5.49699
5.50145
5.5056
5.50859
5.51008
5.51019
5.50862
5.50574
5.50244
5.49901
5.49488
5.48955
5.48229
5.47203
5.45878
5.44246
5.4236
5.40276
5.38014
5.35588
5.33063
5.30495
5.27897
5.24473
5.20396
5.14598
5.16208
1.40001
1.40001
1.40001
1.40001
1.40001
1.40001
1.40001
1.40001
1.40001
1.40001
1.40001
1.40001
1.40001
1.40001
1.40001
1.40001
1.40001
1.40001
1.40001
1.40001
1.40001
1.40001
1.40001
1.40001
1.40001
1.40001
1.40001
1.40001
1.40001
1.40001
1.40001
1.40001
1.40001
1.40001
1.40001
1.40001
1.40001
1.40001
1.40001
1.40001
1.40001
1.40001
1.40001
1.40001
1.40001
1.40001
1.40001
1.40001
1.40001
1.40001
1.40001
1.50519
4.288
5.38006
5.36403
5.3643
5.37445
5.38485
5.39465
5.40377
5.41244
5.42078
5.42856
5.43559
5.44139
5.44562
5.44844
5.45006
5.45056
5.45057
5.45142
5.45313
5.45484
5.45525
5.45333
5.44852
5.44132
5.43312
5.4245
5.41541
5.40516
5.39262
5.37672
5.35674
5.33212
5.3029
5.26888
5.22953
5.18259
5.12652
5.05454
4.9603
4.8152
4.58865
4.17782
3.26882
1.40001
1.40001
1.40001
1.40001
1.40001
1.40001
1.40001
1.40001
1.40001
1.40001
1.40001
1.40001
1.40001
1.40001
1.40001
1.40001
1.40001
1.40001
1.40001
1.40001
1.40001
1.40001
1.40001
1.40001
1.40001
1.40001
1.40001
1.40001
1.40001
1.40001
1.40001
1.40001
1.40001
1.40001
1.40001
1.40001
1.40001
1.40001
1.40001
1.40001
1.40001
1.40001
1.40001
1.40001
1.40001
1.40001
1.40001
1.40001
1.40001
1.40001
1.40001
1.40052
3.14135
5.19353
5.31924
5.32795
5.34217
5.35292
5.36349
5.3736
5.38262
5.39066
5.39775
5.40364
5.40803
5.4109
5.41256
5.41331
5.41291
5.41123
5.40891
5.40737
5.40658
5.40514
5.40186
5.39495
5.38481
5.37254
5.35904
5.34476
5.32928
5.31156
5.29027
5.26429
5.23217
5.19353
5.14649
5.09085
5.02163
4.93844
4.82937
4.69137
4.48902
4.21256
3.68492
2.92235
1.40001
1.40001
1.40001
1.40001
1.40001
1.40001
1.40001
1.40001
1.40001
1.40001
1.40001
1.40001
1.40001
1.40001
1.40001
1.40001
1.40001
1.40001
1.40001
1.40001
1.40001
1.40001
1.40001
1.40001
1.40001
1.40001
1.40001
1.40001
1.40001
1.40001
1.40001
1.40001
1.40001
1.40001
1.40001
1.40001
1.40001
1.40001
1.40001
1.40001
1.40001
1.40001
1.40001
1.40001
1.40001
1.40001
1.40001
1.40001
1.40001
1.40001
1.40001
1.4
1.88028
4.69573
5.35847
5.33167
5.33407
5.33948
5.34743
5.35648
5.36423
5.3705
5.37532
5.37843
5.37982
5.37984
5.37934
5.37882
5.37753
5.37447
5.36914
5.36358
5.35913
5.35503
5.34915
5.33932
5.32593
5.30974
5.29159
5.27215
5.25108
5.22765
5.20021
5.168
5.12859
5.0816
5.02334
4.95362
4.86688
4.76202
4.63038
4.46278
4.24701
3.9336
3.49334
2.97568
1.40001
1.40001
1.40001
1.40001
1.40001
1.40001
1.40001
1.40001
1.40001
1.40001
1.40001
1.40001
1.40001
1.40001
1.40001
1.40001
1.40001
1.40001
1.40001
1.40001
1.40001
1.40001
1.40001
1.40001
1.40001
1.40001
1.40001
1.40001
1.40001
1.40001
1.40001
1.40001
1.40001
1.40001
1.40001
1.40001
1.40001
1.40001
1.40001
1.40001
1.40001
1.40001
1.40001
1.40001
1.40001
1.40001
1.40001
1.40001
1.40001
1.40001
1.40001
1.4
1.41666
3.48428
5.25343
5.30843
5.31791
5.32319
5.32986
5.33817
5.34538
5.35104
5.35464
5.35588
5.35487
5.35171
5.34759
5.34388
5.34006
5.33472
5.32696
5.31845
5.31126
5.30467
5.29584
5.28304
5.26633
5.24631
5.22374
5.19963
5.17316
5.14394
5.10991
5.07085
5.02436
4.97013
4.90434
4.82525
4.72839
4.61054
4.468
4.2904
4.07067
3.79293
3.4574
3.07135
1.40001
1.40001
1.40001
1.40001
1.40001
1.40001
1.40001
1.40001
1.40001
1.40001
1.40001
1.40001
1.40001
1.40001
1.40001
1.40001
1.40001
1.40001
1.40001
1.40001
1.40001
1.40001
1.40001
1.40001
1.40001
1.40001
1.40001
1.40001
1.40001
1.40001
1.40001
1.40001
1.40001
1.40001
1.40001
1.40001
1.40001
1.40001
1.40001
1.40001
1.40001
1.40001
1.40001
1.40001
1.40001
1.40001
1.40001
1.40001
1.40001
1.40001
1.40001
1.40001
1.39999
2.03567
4.78995
5.3114
5.30223
5.30764
5.31405
5.32164
5.32765
5.33178
5.33368
5.33311
5.33014
5.32503
5.31874
5.3125
5.30595
5.2977
5.28715
5.27589
5.26589
5.25606
5.24388
5.22804
5.20796
5.18431
5.15763
5.12931
5.09816
5.06382
5.02404
4.97849
4.92559
4.86503
4.79453
4.71123
4.61114
4.49004
4.34739
4.17071
3.96878
3.73087
3.4698
3.17217
1.40001
1.40001
1.40001
1.40001
1.40001
1.40001
1.40001
1.40001
1.40001
1.40001
1.40001
1.40001
1.40001
1.40001
1.40001
1.40001
1.40001
1.40001
1.40001
1.40001
1.40001
1.40001
1.40001
1.40001
1.40001
1.40001
1.40001
1.40001
1.40001
1.40001
1.40001
1.40001
1.40001
1.40001
1.40001
1.40001
1.40001
1.40001
1.40001
1.40001
1.40001
1.40001
1.40001
1.40001
1.40001
1.40001
1.40001
1.40001
1.40001
1.40001
1.40001
1.40001
1.4
1.42825
3.53534
5.22019
5.27574
5.28554
5.29308
5.30032
5.30558
5.30872
5.30934
5.30733
5.3023
5.29652
5.29048
5.28392
5.27549
5.26437
5.25065
5.23645
5.22323
5.2093
5.19325
5.17405
5.1506
5.12379
5.09371
5.06163
5.02648
4.98798
4.94401
4.89353
4.83533
4.76928
4.6949
4.60989
4.51132
4.39404
4.25769
4.09593
3.91487
3.71325
3.49972
3.25749
1.40001
1.40001
1.40001
1.40001
1.40001
1.40001
1.40001
1.40001
1.40001
1.40001
1.40001
1.40001
1.40001
1.40001
1.40001
1.40001
1.40001
1.40001
1.40001
1.40001
1.40001
1.40001
1.40001
1.40001
1.40001
1.40001
1.40001
1.40001
1.40001
1.40001
1.40001
1.40001
1.40001
1.40001
1.40001
1.40001
1.40001
1.40001
1.40001
1.40001
1.40001
1.40001
1.40001
1.40001
1.40001
1.40001
1.40001
1.40001
1.40001
1.40001
1.40001
1.40001
1.4
1.40001
1.97399
4.73544
5.27448
5.26889
5.27057
5.27551
5.28089
5.28398
5.28292
5.27791
5.26928
5.26144
5.25605
5.25087
5.2428
5.23146
5.21714
5.20161
5.18529
5.16647
5.14532
5.12201
5.09541
5.06646
5.03435
4.99922
4.96052
4.91823
4.8712
4.818
4.75692
4.68781
4.61088
4.52503
4.42974
4.31746
4.19233
4.04845
3.88935
3.7143
3.53345
3.33175
1.40001
1.40001
1.40001
1.40001
1.40001
1.40001
1.40001
1.40001
1.40001
1.40001
1.40001
1.40001
1.40001
1.40001
1.40001
1.40001
1.40001
1.40001
1.40001
1.40001
1.40001
1.40001
1.40001
1.40001
1.40001
1.40001
1.40001
1.40001
1.40001
1.40001
1.40001
1.40001
1.40001
1.40001
1.40001
1.40001
1.40001
1.40001
1.40001
1.40001
1.40001
1.40001
1.40001
1.40001
1.40001
1.40001
1.40001
1.40001
1.40001
1.40001
1.40001
1.40001
1.40001
1.40001
1.42104
3.31548
5.12537
5.24067
5.24153
5.24367
5.2497
5.25304
5.2534
5.25012
5.24229
5.23268
5.22498
5.21776
5.20806
5.19676
5.18327
5.16773
5.14907
5.1265
5.10089
5.07355
5.04377
5.01261
4.97893
4.94176
4.90033
4.85475
4.80501
4.75011
4.68815
4.61851
4.54134
4.45566
4.36319
4.25623
4.14173
4.01459
3.87458
3.72313
3.56594
3.39469
1.40001
1.40001
1.40001
1.40001
1.40001
1.40001
1.40001
1.40001
1.40001
1.40001
1.40001
1.40001
1.40001
1.40001
1.40001
1.40001
1.40001
1.40001
1.40001
1.40001
1.40001
1.40001
1.40001
1.40001
1.40001
1.40001
1.40001
1.40001
1.40001
1.40001
1.40001
1.40001
1.40001
1.40001
1.40001
1.40001
1.40001
1.40001
1.40001
1.40001
1.40001
1.40001
1.40001
1.40001
1.40001
1.40001
1.40001
1.40001
1.40001
1.40001
1.40001
1.40001
1.40001
1.40001
1.40001
1.70603
4.49946
5.26816
5.24569
5.23637
5.23151
5.22672
5.22281
5.21753
5.20906
5.19892
5.18971
5.18085
5.17045
5.15947
5.14688
5.13199
5.11237
5.08774
5.05922
5.02895
4.9964
4.96328
4.92836
4.89008
4.84716
4.79926
4.74697
4.69038
4.62843
4.56001
4.4856
4.40141
4.31212
4.21116
4.10415
3.99082
3.86541
3.7335
3.59363
3.44653
1.40001
1.40001
1.40001
1.40001
1.40001
1.40001
1.40001
1.40001
1.40001
1.40001
1.40001
1.40001
1.40001
1.40001
1.40001
1.40001
1.40001
1.40001
1.40001
1.40001
1.40001
1.40001
1.40001
1.40001
1.40001
1.40001
1.40001
1.40001
1.40001
1.40001
1.40001
1.40001
1.40001
1.40001
1.40001
1.40001
1.40001
1.40001
1.40001
1.40001
1.40001
1.40001
1.40001
1.40001
1.40001
1.40001
1.40001
1.40001
1.40001
1.40001
1.40001
1.40001
1.40001
1.40001
1.40001
1.40504
2.89227
5.01197
5.18232
5.18638
5.19262
5.19154
5.18893
5.18528
5.17636
5.16498
5.15337
5.14226
5.13046
5.11888
5.10618
5.09139
5.07093
5.04534
5.01648
4.98575
4.95223
4.91801
4.88205
4.84295
4.79945
4.75064
4.69637
4.63825
4.57656
4.50922
4.43832
4.35701
4.27299
4.17866
4.07815
3.97514
3.86009
3.74293
3.61762
3.48997
1.40001
1.40001
1.40001
1.40001
1.40001
1.40001
1.40001
1.40001
1.40001
1.40001
1.40001
1.40001
1.40001
1.40001
1.40001
1.40001
1.40001
1.40001
1.40001
1.40001
1.40001
1.40001
1.40001
1.40001
1.40001
1.40001
1.40001
1.40001
1.40001
1.40001
1.40001
1.40001
1.40001
1.40001
1.40001
1.40001
1.40001
1.40001
1.40001
1.40001
1.40001
1.40001
1.40001
1.40001
1.40001
1.40001
1.40001
1.40001
1.40001
1.40001
1.40001
1.40001
1.40001
1.40001
1.40001
1.40001
1.54443
3.91838
5.16294
5.18473
5.17447
5.16902
5.16724
5.16251
5.15236
5.13858
5.12441
5.11113
5.09775
5.08436
5.06956
5.05369
5.03265
5.0063
4.97771
4.94714
4.91323
4.87842
4.84164
4.80165
4.75816
4.70964
4.65436
4.59523
4.53391
4.46658
4.39785
4.32059
4.24278
4.1552
4.06185
3.96649
3.8594
3.75422
3.64045
3.52744
1.40001
1.40001
1.40001
1.40001
1.40001
1.40001
1.40001
1.40001
1.40001
1.40001
1.40001
1.40001
1.40001
1.40001
1.40001
1.40001
1.40001
1.40001
1.40001
1.40001
1.40001
1.40001
1.40001
1.40001
1.40001
1.40001
1.40001
1.40001
1.40001
1.40001
1.40001
1.40001
1.40001
1.40001
1.40001
1.40001
1.40001
1.40001
1.40001
1.40001
1.40001
1.40001
1.40001
1.40001
1.40001
1.40001
1.40001
1.40001
1.40001
1.40001
1.40001
1.40001
1.40001
1.40001
1.40001
1.40001
1.40102
2.03979
4.71617
5.19637
5.15644
5.15492
5.14717
5.13841
5.1265
5.112
5.097
5.08216
5.0667
5.05073
5.03305
5.01474
4.99324
4.96653
4.93827
4.90835
4.875
4.84034
4.80314
4.76246
4.71971
4.67115
4.61783
4.55911
4.4978
4.43151
4.36428
4.29097
4.2182
4.13681
4.0508
3.96179
3.86291
3.76757
3.66237
3.56052
1.40001
1.40001
1.40001
1.40001
1.40001
1.40001
1.40001
1.40001
1.40001
1.40001
1.40001
1.40001
1.40001
1.40001
1.40001
1.40001
1.40001
1.40001
1.40001
1.40001
1.40001
1.40001
1.40001
1.40001
1.40001
1.40001
1.40001
1.40001
1.40001
1.40001
1.40001
1.40001
1.40001
1.40001
1.40001
1.40001
1.40001
1.40001
1.40001
1.40001
1.40001
1.40001
1.40001
1.40001
1.40001
1.40001
1.40001
1.40001
1.40001
1.40001
1.40001
1.40001
1.40001
1.40001
1.40001
1.40001
1.40001
1.42398
3.03151
5.03924
5.13711
5.13292
5.12737
5.11688
5.10358
5.08806
5.07213
5.0562
5.03962
5.02173
5.00198
4.98031
4.95778
4.93105
4.90252
4.87281
4.84034
4.80618
4.76853
4.72808
4.68613
4.63802
4.58592
4.52881
4.46885
4.40491
4.33941
4.26897
4.19969
4.12286
4.04291
3.9598
3.86947
3.78053
3.68379
3.59195
1.40001
1.40001
1.40001
1.40001
1.40001
1.40001
1.40001
1.40001
1.40001
1.40001
1.40001
1.40001
1.40001
1.40001
1.40001
1.40001
1.40001
1.40001
1.40001
1.40001
1.40001
1.40001
1.40001
1.40001
1.40001
1.40001
1.40001
1.40001
1.40001
1.40001
1.40001
1.40001
1.40001
1.40001
1.40001
1.40001
1.40001
1.40001
1.40001
1.40001
1.40001
1.40001
1.40001
1.40001
1.40001
1.40001
1.40001
1.40001
1.40001
1.40001
1.40001
1.40001
1.40001
1.40001
1.40001
1.40001
1.40001
1.40005
1.56252
3.73241
5.08408
5.12943
5.12122
5.11221
5.09717
5.07813
5.05841
5.03856
5.01926
4.99891
4.97702
4.95261
4.92711
4.90024
4.87057
4.84031
4.8085
4.77456
4.7367
4.69696
4.65472
4.60804
4.55719
4.50246
4.44404
4.38292
4.31992
4.25238
4.18626
4.11329
4.0382
3.95968
3.87695
3.79308
3.70563
3.62095
1.40001
1.40001
1.40001
1.40001
1.40001
1.40001
1.40001
1.40001
1.40001
1.40001
1.40001
1.40001
1.40001
1.40001
1.40001
1.40001
1.40001
1.40001
1.40001
1.40001
1.40001
1.40001
1.40001
1.40001
1.40001
1.40001
1.40001
1.40001
1.40001
1.40001
1.40001
1.40001
1.40001
1.40001
1.40001
1.40001
1.40001
1.40001
1.40001
1.40001
1.40001
1.40001
1.40001
1.40001
1.40001
1.40001
1.40001
1.40001
1.40001
1.40001
1.40001
1.40001
1.40001
1.40001
1.40001
1.40001
1.40001
1.40001
1.40139
1.77637
4.41546
5.15828
5.12789
5.10991
5.08454
5.06128
5.03934
5.01852
4.99795
4.97755
4.95542
4.92974
4.9019
4.8733
4.84232
4.81014
4.77807
4.74472
4.70746
4.66782
4.62694
4.5816
4.53258
4.48018
4.42366
4.3649
4.30424
4.23981
4.17672
4.10781
4.03686
3.96221
3.886
3.80683
3.72758
3.64714
1.40001
1.40001
1.40001
1.40001
1.40001
1.40001
1.40001
1.40001
1.40001
1.40001
1.40001
1.40001
1.40001
1.40001
1.40001
1.40001
1.40001
1.40001
1.40001
1.40001
1.40001
1.40001
1.40001
1.40001
1.40001
1.40001
1.40001
1.40001
1.40001
1.40001
1.40001
1.40001
1.40001
1.40001
1.40001
1.40001
1.40001
1.40001
1.40001
1.40001
1.40001
1.40001
1.40001
1.40001
1.40001
1.40001
1.40001
1.40001
1.40001
1.40001
1.40001
1.40001
1.40001
1.40001
1.40001
1.40001
1.40001
1.40001
1.40001
1.40765
2.4707
4.8685
5.10912
5.07448
5.05329
5.03382
5.01626
4.99818
4.97926
4.95867
4.93693
4.91114
4.88277
4.85263
4.82019
4.78628
4.75208
4.7182
4.68081
4.64219
4.60109
4.55736
4.51063
4.46045
4.40596
4.34911
4.29062
4.22963
4.16898
4.10414
4.03715
3.96737
3.89642
3.82198
3.74889
3.67179
1.40001
1.40001
1.40001
1.40001
1.40001
1.40001
1.40001
1.40001
1.40001
1.40001
1.40001
1.40001
1.40001
1.40001
1.40001
1.40001
1.40001
1.40001
1.40001
1.40001
1.40001
1.40001
1.40001
1.40001
1.40001
1.40001
1.40001
1.40001
1.40001
1.40001
1.40001
1.40001
1.40001
1.40001
1.40001
1.40001
1.40001
1.40001
1.40001
1.40001
1.40001
1.40001
1.40001
1.40001
1.40001
1.40001
1.40001
1.40001
1.40001
1.40001
1.40001
1.40001
1.40001
1.40001
1.40001
1.40001
1.40001
1.40001
1.40001
1.40002
1.46621
3.13497
4.97969
5.0418
5.02313
5.0185
5.0075
4.99263
4.97441
4.95324
4.93004
4.90349
4.87405
4.84194
4.80726
4.77127
4.73463
4.698
4.66039
4.62018
4.57969
4.53748
4.49234
4.4438
4.39125
4.33633
4.27992
4.22189
4.1631
4.10173
4.03826
3.97351
3.90691
3.83739
3.7687
3.69536
1.40001
1.40001
1.40001
1.40001
1.40001
1.40001
1.40001
1.40001
1.40001
1.40001
1.40001
1.40001
1.40001
1.40001
1.40001
1.40001
1.40001
1.40001
1.40001
1.40001
1.40001
1.40001
1.40001
1.40001
1.40001
1.40001
1.40001
1.40001
1.40001
1.40001
1.40001
1.40001
1.40001
1.40001
1.40001
1.40001
1.40001
1.40001
1.40001
1.40001
1.40001
1.40001
1.40001
1.40001
1.40001
1.40001
1.40001
1.40001
1.40001
1.40001
1.40001
1.40001
1.40001
1.40001
1.40001
1.40001
1.40001
1.40001
1.40001
1.40001
1.40031
1.58312
3.53527
4.98037
5.00756
5.00351
4.99754
4.98455
4.96735
4.94651
4.92275
4.89575
4.86586
4.83319
4.79834
4.76189
4.72434
4.6861
4.64682
4.60527
4.56352
4.52169
4.47736
4.42986
4.37905
4.32615
4.27189
4.21618
4.15927
4.10086
4.04038
3.97975
3.91657
3.85139
3.78585
3.71663
1.40001
1.40001
1.40001
1.40001
1.40001
1.40001
1.40001
1.40001
1.40001
1.40001
1.40001
1.40001
1.40001
1.40001
1.40001
1.40001
1.40001
1.40001
1.40001
1.40001
1.40001
1.40001
1.40001
1.40001
1.40001
1.40001
1.40001
1.40001
1.40001
1.40001
1.40001
1.40001
1.40001
1.40001
1.40001
1.40001
1.40001
1.40001
1.40001
1.40001
1.40001
1.40001
1.40001
1.40001
1.40001
1.40001
1.40001
1.40001
1.40001
1.40001
1.40001
1.40001
1.40001
1.40001
1.40001
1.40001
1.40001
1.40001
1.40001
1.40001
1.40001
1.40189
1.70228
3.84273
5.0057
5.00534
4.99148
4.97531
4.95628
4.93505
4.9119
4.88646
4.85785
4.8264
4.79267
4.75715
4.71984
4.68104
4.64096
4.59921
4.55658
4.51346
4.46856
4.42108
4.37109
4.31957
4.26702
4.21286
4.15758
4.10103
4.04258
3.98461
3.92428
3.86293
3.80061
3.73579
1.40001
1.40001
1.40001
1.40001
1.40001
1.40001
1.40001
1.40001
1.40001
1.40001
1.40001
1.40001
1.40001
1.40001
1.40001
1.40001
1.40001
1.40001
1.40001
1.40001
1.40001
1.40001
1.40001
1.40001
1.40001
1.40001
1.40001
1.40001
1.40001
1.40001
1.40001
1.40001
1.40001
1.40001
1.40001
1.40001
1.40001
1.40001
1.40001
1.40001
1.40001
1.40001
1.40001
1.40001
1.40001
1.40001
1.40001
1.40001
1.40001
1.40001
1.40001
1.40001
1.40001
1.40001
1.40001
1.40001
1.40001
1.40001
1.40001
1.40001
1.40001
1.40001
1.40499
1.82757
4.12018
5.00762
4.99473
4.97261
4.94878
4.92513
4.90059
4.87473
4.84662
4.81649
4.78483
4.75126
4.71536
4.67746
4.63786
4.59687
4.55464
4.51109
4.46559
4.4177
4.36772
4.31664
4.2649
4.21158
4.15735
4.10203
4.04546
3.98951
3.93164
3.87316
3.81403
3.75322
1.40001
1.40001
1.40001
1.40001
1.40001
1.40001
1.40001
1.40001
1.40001
1.40001
1.40001
1.40001
1.40001
1.40001
1.40001
1.40001
1.40001
1.40001
1.40001
1.40001
1.40001
1.40001
1.40001
1.40001
1.40001
1.40001
1.40001
1.40001
1.40001
1.40001
1.40001
1.40001
1.40001
1.40001
1.40001
1.40001
1.40001
1.40001
1.40001
1.40001
1.40001
1.40001
1.40001
1.40001
1.40001
1.40001
1.40001
1.40001
1.40001
1.40001
1.40001
1.40001
1.40001
1.40001
1.40001
1.40001
1.40001
1.40001
1.40001
1.40001
1.40001
1.40001
1.40002
1.40989
1.96972
4.32144
5.01041
4.98732
4.95959
4.931
4.9025
4.87229
4.84129
4.81008
4.77821
4.74497
4.70998
4.67339
4.63532
4.59586
4.55474
4.51161
4.46619
4.41848
4.36887
4.31828
4.26697
4.21427
4.16074
4.10648
4.05184
3.99748
3.94149
3.88483
3.82846
3.7706
1.40001
1.40001
1.40001
1.40001
1.40001
1.40001
1.40001
1.40001
1.40001
1.40001
1.40001
1.40001
1.40001
1.40001
1.40001
1.40001
1.40001
1.40001
1.40001
1.40001
1.40001
1.40001
1.40001
1.40001
1.40001
1.40001
1.40001
1.40001
1.40001
1.40001
1.40001
1.40001
1.40001
1.40001
1.40001
1.40001
1.40001
1.40001
1.40001
1.40001
1.40001
1.40001
1.40001
1.40001
1.40001
1.40001
1.40001
1.40001
1.40001
1.40001
1.40001
1.40001
1.40001
1.40001
1.40001
1.40001
1.40001
1.40001
1.40001
1.40001
1.40001
1.40001
1.40001
1.40003
1.4175
2.10541
4.4647
5.00928
4.98304
4.9506
4.91564
4.8812
4.84783
4.81374
4.77851
4.74245
4.70635
4.66961
4.63199
4.59321
4.55288
4.51056
4.46605
4.41955
4.37133
4.32207
4.27181
4.22029
4.16778
4.11461
4.0614
4.00818
3.95358
3.89831
3.84403
3.78833
1.40001
1.40001
1.40001
1.40001
1.40001
1.40001
1.40001
1.40001
1.40001
1.40001
1.40001
1.40001
1.40001
1.40001
1.40001
1.40001
1.40001
1.40001
1.40001
1.40001
1.40001
1.40001
1.40001
1.40001
1.40001
1.40001
1.40001
1.40001
1.40001
1.40001
1.40001
1.40001
1.40001
1.40001
1.40001
1.40001
1.40001
1.40001
1.40001
1.40001