/*--------------------------------*- C++ -*----------------------------------*\
  =========                 |
  \\      /  F ield         | OpenFOAM: The Open Source CFD Toolbox
   \\    /   O peration     | Website:  https://openfoam.org
    \\  /    A nd           | Version:  7
     \\/     M anipulation  |
\*---------------------------------------------------------------------------*/
FoamFile
{
    version     2.0;
    format      ascii;
    class       volScalarField;
    location    "4.5";
    object      T;
}
// * * * * * * * * * * * * * * * * * * * * * * * * * * * * * * * * * * * * * //

dimensions      [0 0 0 1 0 0 0];

internalField   nonuniform List<scalar> 
19968
(
1
1
1
1
1
1
1
1
1
1
1
1
1
1
1
1
1
1
1
1
1
1
1
1
1
1
1
1
1
1
1
1
1
1
1
1
1
1
1
1
1
1
1
1
1
1
1
1
1.25171
2.44914
2.68623
2.68937
2.69714
2.70339
2.70894
2.71276
2.71524
2.71736
2.7201
2.72406
2.72917
2.73456
2.73916
2.74244
2.74472
2.74675
2.74917
2.75232
2.75606
2.75988
2.76329
2.76613
2.76851
2.77063
2.77269
2.77479
2.77702
2.77944
2.78209
2.78485
2.78751
2.7898
2.79161
2.79304
2.79427
2.79549
2.79678
2.79807
2.79924
2.8002
2.80102
2.80186
2.80281
2.8038
2.80462
2.80523
1
1
1
1
1
1
1
1
1
1
1
1
1
1
1
1
1
1
1
1
1
1
1
1
1
1
1
1
1
1
1
1
1
1
1
1
1
1
1
1
1
1
1
1
1
1
1
1
1.2379
2.44001
2.68536
2.69061
2.69752
2.70356
2.70875
2.7124
2.71489
2.7171
2.71992
2.7239
2.72897
2.73429
2.73885
2.74212
2.74441
2.74646
2.7489
2.75207
2.75582
2.75962
2.76301
2.76583
2.76821
2.77034
2.77242
2.77454
2.77679
2.77922
2.78185
2.78458
2.78719
2.78944
2.79124
2.79266
2.79388
2.79509
2.79635
2.79762
2.79879
2.79979
2.80068
2.80156
2.8025
2.80341
2.80413
2.80465
1
1
1
1
1
1
1
1
1
1
1
1
1
1
1
1
1
1
1
1
1
1
1
1
1
1
1
1
1
1
1
1
1
1
1
1
1
1
1
1
1
1
1
1
1
1
1
1
1.20686
2.42006
2.68588
2.69087
2.69736
2.70291
2.70764
2.71118
2.71387
2.71643
2.71956
2.72365
2.72861
2.73374
2.73814
2.74137
2.74369
2.74582
2.74835
2.75158
2.75534
2.7591
2.76244
2.76523
2.76763
2.76982
2.77197
2.77415
2.77642
2.77884
2.78143
2.78412
2.78668
2.78891
2.79069
2.7921
2.79332
2.79449
2.79569
2.7969
2.79805
2.79909
2.80005
2.80098
2.80191
2.80273
2.80333
2.8037
1
1
1
1
1
1
1
1
1
1
1
1
1
1
1
1
1
1
1
1
1
1
1
1
1
1
1
1
1
1
1
1
1
1
1
1
1
1
1
1
1
1
1
1
1
1
1
1
1.15945
2.38857
2.68664
2.69109
2.69673
2.70163
2.70592
2.7095
2.71259
2.7157
2.71927
2.72346
2.72819
2.733
2.73713
2.74027
2.74265
2.7449
2.74756
2.75084
2.75458
2.75827
2.76153
2.76429
2.76673
2.76901
2.77126
2.77351
2.77581
2.77821
2.78074
2.78335
2.78584
2.78802
2.78979
2.79119
2.79239
2.79352
2.79465
2.79581
2.79694
2.79802
2.79906
2.80003
2.80089
2.80155
2.80194
2.80211
1
1
1
1
1
1
1
1
1
1
1
1
1
1
1
1
1
1
1
1
1
1
1
1
1
1
1
1
1
1
1
1
1
1
1
1
1
1
1
1
1
1
1
1
1
1
1
1
1.09496
2.34677
2.68741
2.69097
2.69558
2.69988
2.70404
2.70791
2.7115
2.71513
2.71904
2.72324
2.7277
2.73211
2.73596
2.73901
2.74151
2.74393
2.7467
2.75
2.75364
2.75719
2.76035
2.76309
2.76559
2.768
2.77038
2.77272
2.77504
2.7774
2.77984
2.78234
2.78475
2.78688
2.78862
2.79002
2.7912
2.7923
2.79339
2.79451
2.79564
2.79676
2.79782
2.79877
2.79952
2.7999
2.79999
2.79993
1
1
1
1
1
1
1
1
1
1
1
1
1
1
1
1
1
1
1
1
1
1
1
1
1
1
1
1
1
1
1
1
1
1
1
1
1
1
1
1
1
1
1
1
1
1
1
1
1.00323
2.28447
2.68609
2.68982
2.69392
2.69823
2.70279
2.70732
2.71155
2.71553
2.71954
2.72362
2.72771
2.73157
2.735
2.73792
2.7405
2.74304
2.74586
2.74905
2.75247
2.75576
2.75873
2.76139
2.76391
2.7664
2.76886
2.77126
2.77357
2.77586
2.77819
2.78056
2.78286
2.78493
2.78664
2.78804
2.78922
2.79033
2.79145
2.79261
2.7938
2.79498
2.79611
2.79711
2.79774
2.79788
2.79782
2.79759
1
1
1
1
1
1
1
1
1
1
1
1
1
1
1
1
1
1
1
1
1
1
1
1
1
1
1
1
1
1
1
1
1
1
1
1
1
1
1
1
1
1
1
1
1
1
1
1
1.00001
2.19531
2.68115
2.6879
2.69172
2.69594
2.7004
2.70489
2.70915
2.71317
2.71721
2.72129
2.72527
2.72893
2.73228
2.73529
2.73806
2.74078
2.74367
2.74677
2.74999
2.75308
2.75592
2.75858
2.76118
2.76376
2.76631
2.76877
2.77113
2.77343
2.77571
2.77801
2.78022
2.78222
2.78391
2.7853
2.78652
2.78769
2.7889
2.79015
2.79139
2.79258
2.79367
2.79465
2.79511
2.79507
2.79491
2.79461
1
1
1
1
1
1
1
1
1
1
1
1
1
1
1
1
1
1
1
1
1
1
1
1
1
1
1
1
1
1
1
1
1
1
1
1
1
1
1
1
1
1
1
1
1
1
1
1
1
2.06511
2.66697
2.6846
2.68867
2.69338
2.6979
2.70212
2.70596
2.70967
2.71355
2.71767
2.72188
2.72593
2.72968
2.733
2.73589
2.73853
2.74123
2.7441
2.74709
2.75007
2.75291
2.75566
2.75832
2.76093
2.76344
2.76587
2.76822
2.77051
2.77276
2.77499
2.7771
2.77901
2.78062
2.782
2.78326
2.78453
2.78585
2.78718
2.78845
2.78958
2.79055
2.79134
2.79165
2.79158
2.79135
2.79103
1
1
1
1
1
1
1
1
1
1
1
1
1
1
1
1
1
1
1
1
1
1
1
1
1
1
1
1
1
1
1
1
1
1
1
1
1
1
1
1
1
1
1
1
1
1
1
1
1
1.88592
2.63283
2.67828
2.68343
2.68895
2.69356
2.69757
2.70105
2.7044
2.70803
2.71222
2.71689
2.72166
2.72608
2.72986
2.73285
2.73525
2.73759
2.74015
2.74295
2.74596
2.7489
2.75177
2.75444
2.75694
2.75928
2.76157
2.76388
2.7662
2.7685
2.77072
2.77276
2.77456
2.7761
2.77746
2.77878
2.78017
2.78163
2.78306
2.78435
2.78539
2.78623
2.78684
2.78706
2.78704
2.78686
2.78661
1
1
1
1
1
1
1
1
1
1
1
1
1
1
1
1
1
1
1
1
1
1
1
1
1
1
1
1
1
1
1
1
1
1
1
1
1
1
1
1
1
1
1
1
1
1
1
1
1
1.64779
2.57232
2.67198
2.6785
2.68399
2.6883
2.69221
2.69559
2.69867
2.70195
2.70601
2.71099
2.71643
2.72156
2.72585
2.72899
2.73117
2.73313
2.73536
2.738
2.74111
2.74428
2.74733
2.75001
2.75234
2.7544
2.75642
2.75859
2.76091
2.76325
2.76547
2.76744
2.76912
2.77056
2.77191
2.77328
2.77477
2.77632
2.77778
2.779
2.77987
2.78049
2.78086
2.78097
2.781
2.78089
2.78073
1
1
1
1
1
1
1
1
1
1
1
1
1
1
1
1
1
1
1
1
1
1
1
1
1
1
1
1
1
1
1
1
1
1
1
1
1
1
1
1
1
1
1
1
1
1
1
1
1
1.33888
2.4661
2.67306
2.67325
2.67837
2.68264
2.68688
2.69045
2.69349
2.69652
2.70023
2.70504
2.71062
2.71605
2.72067
2.72401
2.72611
2.72781
2.72978
2.73224
2.73539
2.7388
2.7421
2.7449
2.74712
2.74893
2.75069
2.75267
2.75491
2.75724
2.75939
2.76119
2.76261
2.76378
2.76488
2.76607
2.76743
2.76889
2.77029
2.77144
2.77224
2.77276
2.77311
2.77328
2.77338
2.77339
2.77337
1
1
1
1
1
1
1
1
1
1
1
1
1
1
1
1
1
1
1
1
1
1
1
1
1
1
1
1
1
1
1
1
1
1
1
1
1
1
1
1
1
1
1
1
1
1
1
1
1
1.01241
2.28046
2.67897
2.67799
2.67908
2.68176
2.68503
2.6883
2.69129
2.69407
2.69704
2.70073
2.70522
2.70994
2.71427
2.71762
2.71972
2.72117
2.72281
2.72498
2.7279
2.73139
2.73482
2.73777
2.73998
2.74165
2.74317
2.74496
2.74712
2.74949
2.7517
2.75349
2.75479
2.75577
2.75667
2.75769
2.75888
2.76017
2.76138
2.76229
2.76281
2.76302
2.76295
2.76271
2.76258
2.76246
2.76236
1
1
1
1
1
1
1
1
1
1
1
1
1
1
1
1
1
1
1
1
1
1
1
1
1
1
1
1
1
1
1
1
1
1
1
1
1
1
1
1
1
1
1
1
1
1
1
1
1
1.00002
1.99311
2.64655
2.66236
2.66655
2.67212
2.67681
2.6809
2.68431
2.68723
2.6899
2.69282
2.69637
2.70035
2.70428
2.70767
2.71007
2.71173
2.71335
2.71544
2.71815
2.72154
2.72499
2.72808
2.7304
2.73206
2.73345
2.73504
2.73706
2.73938
2.74162
2.7434
2.74455
2.74521
2.74567
2.74614
2.74669
2.74731
2.7479
2.74834
2.74859
2.74872
2.74871
2.7485
2.74832
2.74799
2.74774
1
1
1
1
1
1
1
1
1
1
1
1
1
1
1
1
1
1
1
1
1
1
1
1
1
1
1
1
1
1
1
1
1
1
1
1
1
1
1
1
1
1
1
1
1
1
1
1
1
1
1.51546
2.50886
2.64584
2.65284
2.66194
2.66823
2.67348
2.67771
2.68112
2.68393
2.68655
2.68946
2.69276
2.69615
2.69932
2.70193
2.70386
2.7055
2.70738
2.70966
2.71246
2.71544
2.71818
2.72031
2.72176
2.72285
2.72403
2.72562
2.72761
2.72964
2.73127
2.73225
2.73261
2.73254
2.73235
2.73227
2.73233
2.73243
2.73249
2.73242
2.73202
2.73112
2.72935
2.72671
2.72359
2.72094
1
1
1
1
1
1
1
1
1
1
1
1
1
1
1
1
1
1
1
1
1
1
1
1
1
1
1
1
1
1
1
1
1
1
1
1
1
1
1
1
1
1
1
1
1
1
1
1
1
1
1.02436
2.23617
2.65585
2.65391
2.65486
2.65892
2.66376
2.66834
2.67205
2.67497
2.67744
2.6799
2.68265
2.68563
2.68862
2.69135
2.69356
2.69527
2.69692
2.69879
2.70096
2.70335
2.70559
2.70739
2.70859
2.70934
2.71003
2.71103
2.71242
2.71401
2.71528
2.71594
2.71581
2.71513
2.71396
2.71259
2.71111
2.70942
2.70734
2.70474
2.70164
2.69815
2.69471
2.69085
2.68789
2.68597
1
1
1
1
1
1
1
1
1
1
1
1
1
1
1
1
1
1
1
1
1
1
1
1
1
1
1
1
1
1
1
1
1
1
1
1
1
1
1
1
1
1
1
1
1
1
1
1
1
1
1.00004
1.73515
2.55169
2.63119
2.63673
2.6433
2.64932
2.65485
2.65925
2.66263
2.66537
2.66794
2.67065
2.67359
2.67662
2.6795
2.68196
2.68385
2.68533
2.68673
2.68825
2.68996
2.69168
2.69318
2.69416
2.6944
2.69438
2.69445
2.6948
2.69541
2.69589
2.69586
2.69514
2.69349
2.69099
2.68795
2.68457
2.68086
2.67669
2.67201
2.66679
2.66135
2.65596
2.65353
2.6503
2.66418
1
1
1
1
1
1
1
1
1
1
1
1
1
1
1
1
1
1
1
1
1
1
1
1
1
1
1
1
1
1
1
1
1
1
1
1
1
1
1
1
1
1
1
1
1
1
1
1
1
1
1
1.07096
2.32084
2.6352
2.6331
2.63469
2.63947
2.64458
2.64907
2.65252
2.65516
2.65746
2.6598
2.6624
2.66523
2.66807
2.67063
2.67262
2.67394
2.67482
2.67575
2.67685
2.67818
2.67938
2.67988
2.67979
2.67928
2.67847
2.67771
2.67714
2.67658
2.67564
2.67398
2.67125
2.66733
2.66236
2.65644
2.64947
2.64088
2.63005
2.61534
2.59548
2.56602
2.52399
2.45979
2.33089
1
1
1
1
1
1
1
1
1
1
1
1
1
1
1
1
1
1
1
1
1
1
1
1
1
1
1
1
1
1
1
1
1
1
1
1
1
1
1
1
1
1
1
1
1
1
1
1
1
1
1
1.00039
1.97413
2.59468
2.61346
2.6189
2.62519
2.6308
2.63585
2.63986
2.64287
2.64543
2.64798
2.65075
2.65369
2.6566
2.65926
2.66146
2.66294
2.6638
2.66439
2.66503
2.66589
2.66663
2.66694
2.66672
2.66591
2.66445
2.66271
2.66099
2.65924
2.65719
2.65444
2.65061
2.64535
2.6386
2.63008
2.6198
2.60664
2.59022
2.56777
2.53827
2.4948
2.43679
2.32742
2.16473
1
1
1
1
1
1
1
1
1
1
1
1
1
1
1
1
1
1
1
1
1
1
1
1
1
1
1
1
1
1
1
1
1
1
1
1
1
1
1
1
1
1
1
1
1
1
1
1
1
1
1
0.999999
1.33746
2.40812
2.59823
2.60512
2.61271
2.61894
2.62388
2.62775
2.63067
2.63323
2.63592
2.63887
2.64195
2.64489
2.64753
2.64977
2.65132
2.65222
2.65259
2.6528
2.65312
2.65347
2.65347
2.65303
2.6518
2.64974
2.64719
2.64442
2.64141
2.63801
2.63387
2.62875
2.62208
2.61371
2.6029
2.58962
2.57267
2.55157
2.52417
2.48791
2.43999
2.36809
2.26297
2.13483
1
1
1
1
1
1
1
1
1
1
1
1
1
1
1
1
1
1
1
1
1
1
1
1
1
1
1
1
1
1
1
1
1
1
1
1
1
1
1
1
1
1
1
1
1
1
1
1
1
1
1
1
1.01048
2.08787
2.59578
2.59723
2.60096
2.60574
2.61026
2.61396
2.61677
2.61942
2.62245
2.6259
2.62933
2.63243
2.6349
2.63681
2.63813
2.63889
2.63915
2.63922
2.63938
2.6396
2.63945
2.6387
2.63701
2.63442
2.63121
2.62762
2.62348
2.61874
2.61306
2.60639
2.59819
2.5883
2.57587
2.56049
2.54116
2.51701
2.48694
2.44807
2.39825
2.33217
2.24743
2.1471
1
1
1
1
1
1
1
1
1
1
1
1
1
1
1
1
1
1
1
1
1
1
1
1
1
1
1
1
1
1
1
1
1
1
1
1
1
1
1
1
1
1
1
1
1
1
1
1
1
1
1
1
1
1.42722
2.43572
2.58455
2.59087
2.59583
2.59917
2.60172
2.60357
2.60558
2.60837
2.61188
2.61558
2.619
2.62158
2.62326
2.62425
2.62469
2.62481
2.62487
2.62505
2.62519
2.62495
2.62392
2.62178
2.61873
2.615
2.61079
2.60582
2.60001
2.593
2.5848
2.5751
2.56376
2.55021
2.53375
2.51346
2.48825
2.45777
2.41867
2.37238
2.31544
2.24982
2.17063
1
1
1
1
1
1
1
1
1
1
1
1
1
1
1
1
1
1
1
1
1
1
1
1
1
1
1
1
1
1
1
1
1
1
1
1
1
1
1
1
1
1
1
1
1
1
1
1
1
1
1
1
1
1.01728
2.10448
2.58639
2.58622
2.58711
2.58888
2.59055
2.59171
2.59302
2.59509
2.59797
2.60131
2.60481
2.6076
2.60924
2.60982
2.60984
2.6097
2.60976
2.61
2.61002
2.60966
2.60834
2.60579
2.60242
2.59832
2.59367
2.58815
2.58166
2.57383
2.56451
2.55352
2.54082
2.52626
2.50923
2.48901
2.46428
2.43481
2.39873
2.35704
2.30881
2.25574
2.19264
1
1
1
1
1
1
1
1
1
1
1
1
1
1
1
1
1
1
1
1
1
1
1
1
1
1
1
1
1
1
1
1
1
1
1
1
1
1
1
1
1
1
1
1
1
1
1
1
1
1
1
1
1
1.00002
1.3871
2.41264
2.57349
2.57717
2.5795
2.5809
2.58191
2.58303
2.58418
2.58564
2.58758
2.59014
2.59268
2.59419
2.59448
2.59439
2.59423
2.59441
2.59463
2.59445
2.59367
2.59193
2.58909
2.58561
2.58142
2.57651
2.57067
2.56377
2.55557
2.54578
2.53413
2.52063
2.50534
2.48793
2.46822
2.44433
2.41706
2.38482
2.34811
2.30608
2.26166
2.21038
1
1
1
1
1
1
1
1
1
1
1
1
1
1
1
1
1
1
1
1
1
1
1
1
1
1
1
1
1
1
1
1
1
1
1
1
1
1
1
1
1
1
1
1
1
1
1
1
1
1
1
1
1
1
1.01293
2.02536
2.55887
2.56716
2.56883
2.56991
2.57148
2.5729
2.57442
2.57581
2.57711
2.57842
2.57955
2.57985
2.57949
2.579
2.57876
2.57886
2.57884
2.57843
2.57721
2.57503
2.57188
2.56821
2.56396
2.55897
2.55302
2.54597
2.53769
2.5279
2.51624
2.50264
2.4872
2.46969
2.45046
2.42759
2.40255
2.374
2.34169
2.30586
2.26733
2.22428
1
1
1
1
1
1
1
1
1
1
1
1
1
1
1
1
1
1
1
1
1
1
1
1
1
1
1
1
1
1
1
1
1
1
1
1
1
1
1
1
1
1
1
1
1
1
1
1
1
1
1
1
1
1
1.00001
1.21507
2.34684
2.56444
2.56088
2.56129
2.56202
2.56278
2.56396
2.56526
2.56622
2.56674
2.56679
2.56643
2.56537
2.56433
2.56375
2.56357
2.56319
2.56229
2.56057
2.55802
2.55452
2.55058
2.54619
2.54119
2.53533
2.52837
2.52019
2.51062
2.49938
2.48627
2.47152
2.45433
2.43576
2.41421
2.39085
2.36549
2.33665
2.30553
2.27156
2.23494
1
1
1
1
1
1
1
1
1
1
1
1
1
1
1
1
1
1
1
1
1
1
1
1
1
1
1
1
1
1
1
1
1
1
1
1
1
1
1
1
1
1
1
1
1
1
1
1
1
1
1
1
1
1
1
1.0032
1.84074
2.50114
2.53875
2.54373
2.54745
2.54979
2.55165
2.55371
2.55483
2.55493
2.55456
2.55362
2.55206
2.55053
2.54936
2.54858
2.54746
2.5459
2.54382
2.54109
2.53735
2.53307
2.52836
2.5232
2.51743
2.51072
2.50274
2.49351
2.48292
2.4705
2.4568
2.44041
2.42311
2.40317
2.38142
2.35861
2.33238
2.3049
2.27471
2.24329
1
1
1
1
1
1
1
1
1
1
1
1
1
1
1
1
1
1
1
1
1
1
1
1
1
1
1
1
1
1
1
1
1
1
1
1
1
1
1
1
1
1
1
1
1
1
1
1
1
1
1
1
1
1
1
1
1.09489
2.19119
2.52962
2.53549
2.53476
2.53587
2.53853
2.54148
2.54352
2.54374
2.54329
2.54221
2.54058
2.53879
2.53697
2.53553
2.53372
2.53139
2.52883
2.52573
2.52157
2.51684
2.51161
2.50598
2.5001
2.49358
2.48575
2.47685
2.46696
2.45512
2.44234
2.42718
2.41151
2.39332
2.37346
2.35275
2.32859
2.30437
2.2774
2.24999
1
1
1
1
1
1
1
1
1
1
1
1
1
1
1
1
1
1
1
1
1
1
1
1
1
1
1
1
1
1
1
1
1
1
1
1
1
1
1
1
1
1
1
1
1
1
1
1
1
1
1
1
1
1
1
1
1.0006
1.4104
2.34802
2.51381
2.51226
2.51603
2.52043
2.52552
2.52939
2.53097
2.53078
2.52996
2.52849
2.52664
2.52449
2.52256
2.52045
2.5177
2.51478
2.51137
2.5069
2.50176
2.49595
2.48966
2.48347
2.47664
2.46918
2.46058
2.45111
2.43999
2.42803
2.41415
2.39996
2.38349
2.36564
2.34677
2.32514
2.30371
2.27931
2.25516
1
1
1
1
1
1
1
1
1
1
1
1
1
1
1
1
1
1
1
1
1
1
1
1
1
1
1
1
1
1
1
1
1
1
1
1
1
1
1
1
1
1
1
1
1
1
1
1
1
1
1
1
1
1
1
1
1
1.01433
1.86599
2.4605
2.49494
2.50095
2.50595
2.51042
2.51429
2.51645
2.51652
2.51611
2.51509
2.51352
2.51156
2.50944
2.50746
2.50489
2.50195
2.49847
2.49397
2.48864
2.48231
2.47549
2.46881
2.46143
2.45375
2.44527
2.43612
2.42573
2.41449
2.4016
2.38852
2.37339
2.35728
2.34012
2.32095
2.3017
2.27993
2.25888
1
1
1
1
1
1
1
1
1
1
1
1
1
1
1
1
1
1
1
1
1
1
1
1
1
1
1
1
1
1
1
1
1
1
1
1
1
1
1
1
1
1
1
1
1
1
1
1
1
1
1
1
1
1
1
1
1
1.00002
1.10711
2.10266
2.47148
2.49642
2.49737
2.49952
2.50133
2.5022
2.50207
2.50148
2.50053
2.49916
2.49752
2.49563
2.49384
2.49194
2.48936
2.48618
2.48203
2.47678
2.47027
2.46322
2.45588
2.44808
2.43995
2.4314
2.42223
2.41235
2.4017
2.38961
2.3774
2.36332
2.34853
2.33266
2.31567
2.29815
2.27922
2.2605
1
1
1
1
1
1
1
1
1
1
1
1
1
1
1
1
1
1
1
1
1
1
1
1
1
1
1
1
1
1
1
1
1
1
1
1
1
1
1
1
1
1
1
1
1
1
1
1
1
1
1
1
1
1
1
1
1
1
1.00078
1.25144
2.25046
2.47908
2.48047
2.48334
2.48324
2.48361
2.48389
2.48384
2.48345
2.48281
2.4819
2.48063
2.4793
2.478
2.47609
2.47337
2.4698
2.46512
2.45897
2.45193
2.4446
2.43659
2.42821
2.41952
2.41022
2.40048
2.39014
2.37865
2.36709
2.3539
2.33999
2.32514
2.30983
2.29368
2.27727
2.2601
1
1
1
1
1
1
1
1
1
1
1
1
1
1
1
1
1
1
1
1
1
1
1
1
1
1
1
1
1
1
1
1
1
1
1
1
1
1
1
1
1
1
1
1
1
1
1
1
1
1
1
1
1
1
1
1
1
1
1
1.00448
1.60854
2.36095
2.45857
2.45601
2.45775
2.45978
2.46185
2.46334
2.46417
2.46437
2.46446
2.46412
2.46364
2.46302
2.46181
2.45974
2.45668
2.4527
2.44717
2.44074
2.43356
2.42584
2.41768
2.40908
2.3998
2.3901
2.37995
2.36901
2.35783
2.34539
2.33219
2.31828
2.30406
2.28898
2.27418
2.2583
1
1
1
1
1
1
1
1
1
1
1
1
1
1
1
1
1
1
1
1
1
1
1
1
1
1
1
1
1
1
1
1
1
1
1
1
1
1
1
1
1
1
1
1
1
1
1
1
1
1
1
1
1
1
1
1
1
1
1
1.00001
1.03998
1.88029
2.41375
2.44362
2.44178
2.44357
2.44501
2.44626
2.44702
2.44733
2.44759
2.44772
2.44778
2.44749
2.4466
2.44496
2.4424
2.43889
2.43425
2.42835
2.42192
2.41497
2.40742
2.39927
2.39038
2.38101
2.37122
2.36082
2.34992
2.33809
2.32548
2.31242
2.29887
2.28465
2.27067
2.25563
1
1
1
1
1
1
1
1
1
1
1
1
1
1
1
1
1
1
1
1
1
1
1
1
1
1
1
1
1
1
1
1
1
1
1
1
1
1
1
1
1
1
1
1
1
1
1
1
1
1
1
1
1
1
1
1
1
1
1
1
1.00015
1.11957
2.00741
2.41184
2.4331
2.43408
2.43497
2.43461
2.43411
2.43347
2.43285
2.43234
2.43198
2.43144
2.43052
2.42901
2.42673
2.42362
2.41958
2.41441
2.40869
2.40268
2.39605
2.38874
2.38071
2.37215
2.36309
2.3534
2.34303
2.33187
2.31986
2.30753
2.29445
2.28089
2.26727
2.25285
1
1
1
1
1
1
1
1
1
1
1
1
1
1
1
1
1
1
1
1
1
1
1
1
1
1
1
1
1
1
1
1
1
1
1
1
1
1
1
1
1
1
1
1
1
1
1
1
1
1
1
1
1
1
1
1
1
1
1
1
1
1.00101
1.19789
2.08473
2.39854
2.42662
2.42574
2.42495
2.42379
2.42246
2.42116
2.41993
2.41864
2.41723
2.4156
2.4136
2.41104
2.40786
2.40402
2.39944
2.39437
2.38903
2.38323
2.37686
2.3699
2.36244
2.35446
2.34571
2.33616
2.32575
2.3144
2.30272
2.29021
2.27731
2.26416
2.25045
1
1
1
1
1
1
1
1
1
1
1
1
1
1
1
1
1
1
1
1
1
1
1
1
1
1
1
1
1
1
1
1
1
1
1
1
1
1
1
1
1
1
1
1
1
1
1
1
1
1
1
1
1
1
1
1
1
1
1
1
1
1
1.00275
1.27483
2.13932
2.3867
2.41035
2.41142
2.41125
2.41078
2.40988
2.40853
2.40673
2.40462
2.40232
2.39967
2.39655
2.39296
2.38893
2.38449
2.37975
2.37475
2.36944
2.36372
2.3576
2.35114
2.34423
2.33649
2.32792
2.31845
2.30804
2.2972
2.28551
2.2734
2.26099
2.24813
1
1
1
1
1
1
1
1
1
1
1
1
1
1
1
1
1
1
1
1
1
1
1
1
1
1
1
1
1
1
1
1
1
1
1
1
1
1
1
1
1
1
1
1
1
1
1
1
1
1
1
1
1
1
1
1
1
1
1
1
1
1
1
1.00552
1.35393
2.17631
2.3737
2.38968
2.39379
2.39566
2.39588
2.39529
2.39401
2.39221
2.38991
2.38703
2.3836
2.37975
2.37554
2.37104
2.36625
2.36121
2.35593
2.35045
2.34476
2.3389
2.3327
2.32582
2.31821
2.30977
2.30057
2.29078
2.2801
2.26884
2.25739
2.24542
1
1
1
1
1
1
1
1
1
1
1
1
1
1
1
1
1
1
1
1
1
1
1
1
1
1
1
1
1
1
1
1
1
1
1
1
1
1
1
1
1
1
1
1
1
1
1
1
1
1
1
1
1
1
1
1
1
1
1
1
1
1
1
1.00001
1.0099
1.42275
2.20332
2.3599
2.37047
2.37464
2.37674
2.3781
2.3782
2.37757
2.37593
2.37352
2.37057
2.36706
2.36304
2.35856
2.35371
2.34858
2.34325
2.33779
2.33222
2.32656
2.32067
2.31429
2.30733
2.29973
2.29154
2.28276
2.27311
2.26283
2.25243
2.24146
1
1
1
1
1
1
1
1
1
1
1
1
1
1
1
1
1
1
1
1
1
1
1
1
1
1
1
1
1
1
1
1
1
1
1
1
1
1
1
1
1
1
1
1
1
1
1
1
1
1
1
1
1
1
1
1
1
1
1
1
1
1
1
1
1.00002
1.01549
1.47997
2.2215
2.34958
2.35327
2.35498
2.35682
2.35805
2.35863
2.35841
2.35753
2.35584
2.35331
2.3499
2.34584
2.34135
2.3365
2.33133
2.32597
2.32049
2.31486
2.309
2.30279
2.29616
2.28905
2.2815
2.27347
2.2647
2.25536
2.24589
2.23596
1
1
1
1
1
1
1
1
1
1
1
1
1
1
1
1
1
1
1
1
1
1
1
1
1
1
1
1
1
1
1
1
1
1
1
1
1
1
1
1
1
1
1
1
1
1
1
1
1
1
1
1
1
1
1
1
1
1
1
1
1
1
1
1
1
1.00004
1.02171
1.52918
2.23328
2.33918
2.33864
2.33808
2.33809
2.33819
2.33835
2.33823
2.33772
2.33649
2.33441
2.33153
2.32796
2.3238
2.31922
2.31433
2.30918
2.30373
2.29798
2.29188
2.28541
2.27854
2.27129
2.26368
2.25553
2.24693
2.23815
2.22911
1
1
1
1
1
1
1
1
1
1
1
1
1
1
1
1
1
1
1
1
1
1
1
1
1
1
1
1
1
1
1
1
1
1
1
1
1
1
1
1
1
1
1
1
1
1
1
1
1
1
1
1
1
1
1
1
1
1
1
1
1
1
1
1
1
1
1.00007
1.02849
1.56219
2.23676
2.32785
2.32591
2.32363
2.32213
2.32076
2.3198
2.31892
2.31778
2.31636
2.31452
2.31208
2.30903
2.30546
2.30147
2.29702
2.29213
2.28679
2.28103
2.27489
2.26833
2.26138
2.25409
2.24639
2.2383
2.22999
2.22153
1
1
1
1
1
1
1
1
1
1
1
1
1
1
1
1
1
1
1
1
1
1
1
1
1
1
1
1
1
1
1
1
1
1
1
1
1
1
1
1
1
1
1
1
1
1
1
1
1
1
1
1
1
1
1
1
1
1
1
1
1
1
1
1
1
1
1
1.00011
1.03403
1.57088
2.22937
2.31681
2.31444
2.31099
2.30827
2.30579
2.3034
2.30105
2.2989
2.29683
2.29466
2.29223
2.2895
2.2864
2.28285
2.27881
2.27428
2.26926
2.26378
2.25783
2.25141
2.24458
2.23736
2.22974
2.2219
2.21384
1
1
1
1
1
1
1
1
1
1
1
1
1
1
1
1
1
1
1
1
1
1
1
1
1
1
1
1
1
1
1
1
1
1
1
1
1
1
1
1
1
1
1
1
1
1
1
1
1
1
1
1
1
1
1
1
1
1
1
1
1
1
1
1
1
1
1
1
1.00014
1.03578
1.56702
2.21214
2.30531
2.30333
2.29932
2.29556
2.29176
2.28838
2.28519
2.28202
2.27897
2.27604
2.27319
2.27027
2.26713
2.26369
2.2599
2.25571
2.25109
2.24601
2.24042
2.23437
2.22785
2.22093
2.21368
2.20615
1
1
1
1
1
1
1
1
1
1
1
1
1
1
1
1
1
1
1
1
1
1
1
1
1
1
1
1
1
1
1
1
1
1
1
1
1
1
1
1
1
1
1
1
1
1
1
1
1
1
1
1
1
1
1
1
1
1
1
1
1
1
1
1
1
1
1
1
1
1.00016
1.03523
1.54432
2.18392
2.29286
2.2918
2.2875
2.28347
2.27929
2.27528
2.27129
2.26727
2.26331
2.25948
2.25566
2.25187
2.24814
2.2444
2.24059
2.23661
2.23233
2.22768
2.2226
2.21706
2.2111
2.20473
2.19805
1
1
1
1
1
1
1
1
1
1
1
1
1
1
1
1
1
1
1
1
1
1
1
1
1
1
1
1
1
1
1
1
1
1
1
1
1
1
1
1
1
1
1
1
1
1
1
1
1
1
1
1
1
1
1
1
1
1
1
1
1
1
1
1
1
1
1
1
1
1
1.00016
1.03158
1.50421
2.14362
2.27692
2.27983
2.27582
2.27216
2.26782
2.26343
2.25897
2.25438
2.24967
2.24479
2.23993
2.23529
2.23086
2.22662
2.22249
2.21842
2.21424
2.20985
2.20518
2.20015
2.19474
2.18896
1
1
1
1
1
1
1
1
1
1
1
1
1
1
1
1
1
1
1
1
1
1
1
1
1
1
1
1
1
1
1
1
1
1
1
1
1
1
1
1
1
1
1
1
1
1
1
1
1
1
1
1
1
1
1
1
1
1
1
1
1
1
1
1
1
1
1
1
1
1
1
1.00013
1.02578
1.44786
2.0873
2.25494
2.26858
2.26438
2.2605
2.25611
2.25158
2.24681
2.24183
2.23661
2.23126
2.22596
2.22079
2.21582
2.21108
2.20655
2.20212
2.19775
2.19326
2.18867
2.18381
2.17876
1
1
1
1
1
1
1
1
1
1
1
1
1
1
1
1
1
1
1
1
1
1
1
1
1
1
1
1
1
1
1
1
1
1
1
1
1
1
1
1
1
1
1
1
1
1
1
1
1
1
1
1
1
1
1
1
1
1
1
1
1
1
1
1
1
1
1
1
1
1
1
1
1.0001
1.01896
1.37609
2.00684
2.22601
2.25698
2.25086
2.24724
2.24328
2.23907
2.23449
2.22957
2.22444
2.21924
2.21398
2.2087
2.20348
2.1983
2.19322
2.18822
2.18325
2.17835
2.17335
2.16837
1
1
1
1
1
1
1
1
1
1
1
1
1
1
1
1
1
1
1
1
1
1
1
1
1
1
1
1
1
1
1
1
1
1
1
1
1
1
1
1
1
1
1
1
1
1
1
1
1
1
1
1
1
1
1
1
1
1
1
1
1
1
1
1
1
1
1
1
1
1
1
1
1
1.00006
1.01235
1.29187
1.89325
2.19249
2.23927
2.23485
2.233
2.23053
2.22732
2.22342
2.21908
2.21438
2.20937
2.20415
2.19875
2.19323
2.18763
2.18197
2.17632
2.17069
2.16512
2.15958
1
1
1
1
1
1
1
1
1
1
1
1
1
1
1
1
1
1
1
1
1
1
1
1
1
1
1
1
1
1
1
1
1
1
1
1
1
1
1
1
1
1
1
1
1
1
1
1
1
1
1
1
1
1
1
1
1
1
1
1
1
1
1
1
1
1
1
1
1
1
1
1
1
1
1.00003
1.00706
1.19907
1.76849
2.14653
2.21787
2.21741
2.21713
2.21552
2.21349
2.2107
2.20719
2.20312
2.19857
2.19359
2.18832
2.18271
2.17696
2.17112
2.16516
2.1592
2.15311
1
1
1
1
1
1
1
1
1
1
1
1
1
1
1
1
1
1
1
1
1
1
1
1
1
1
1
1
1
1
1
1
1
1
1
1
1
1
1
1
1
1
1
1
1
1
1
1
1
1
1
1
1
1
1
1
1
1
1
1
1
1
1
1
1
1
1
1
1
1
1
1
1
1
1
1.00002
1.00334
1.12162
1.6339
2.09463
2.18698
2.20152
2.19769
2.19774
2.19705
2.19547
2.19313
2.19004
2.1863
2.18194
2.17712
2.17199
2.16644
2.16069
2.1548
2.14875
1
1
1
1
1
1
1
1
1
1
1
1
1
1
1
1
1
1
1
1
1
1
1
1
1
1
1
1
1
1
1
1
1
1
1
1
1
1
1
1
1
1
1
1
1
1
1
1
1
1
1
1
1
1
1
1
1
1
1
1
1
1
1
1
1
1
1
1
1
1
1
1
1
1
1
1
1.00001
1.00138
1.06514
1.50432
2.01255
2.1566
2.18841
2.18075
2.18083
2.18046
2.17945
2.1777
2.17537
2.17239
2.16892
2.16476
2.1602
2.1554
2.15011
2.14452
1
1
1
1
1
1
1
1
1
1
1
1
1
1
1
1
1
1
1
1
1
1
1
1
1
1
1
1
1
1
1
1
1
1
1
1
1
1
1
1
1
1
1
1
1
1
1
1
1
1
1
1
1
1
1
1
1
1
1
1
1
1
1
1
1
1
1
1
1
1
1
1
1
1
1
1
1
1
1.00049
1.03142
1.36988
1.89313
2.12794
2.16865
2.16609
2.16424
2.16305
2.16194
2.16038
2.15865
2.15649
2.15386
2.15091
2.14713
2.14287
2.13856
1
1
1
1
1
1
1
1
1
1
1
1
1
1
1
1
1
1
1
1
1
1
1
1
1
1
1
1
1
1
1
1
1
1
1
1
1
1
1
1
1
1
1
1
1
1
1
1
1
1
1
1
1
1
1
1
1
1
1
1
1
1
1
1
1
1
1
1
1
1
1
1
1
1
1
1
1
1
1
1.00015
1.01346
1.23512
1.74099
2.08508
2.1438
2.15255
2.14774
2.14604
2.14513
2.14388
2.14224
2.14062
2.13838
2.13606
2.13338
2.13006
1
1
1
1
1
1
1
1
1
1
1
1
1
1
1
1
1
1
1
1
1
1
1
1
1
1
1
1
1
1
1
1
1
1
1
1
1
1
1
1
1
1
1
1
1
1
1
1
1
1
1
1
1
1
1
1
1
1
1
1
1
1
1
1
1
1
1
1
1
1
1
1
1
1
1
1
1
1
1
1
1.00004
1.00495
1.12273
1.57804
2.0099
2.1151
2.1389
2.13518
2.1318
2.12965
2.12809
2.12628
2.12469
2.12306
2.1208
2.11813
1
1
1
1
1
1
1
1
1
1
1
1
1
1
1
1
1
1
1
1
1
1
1
1
1
1
1
1
1
1
1
1
1
1
1
1
1
1
1
1
1
1
1
1
1
1
1
1
1
1
1
1
1
1
1
1
1
1
1
1
1
1
1
1
1
1
1
1
1
1
1
1
1
1
1
1
1
1
1
1
1
1.00001
1.0015
1.05279
1.41672
1.8891
2.0822
2.12418
2.12242
2.11909
2.11686
2.11421
2.11154
2.10849
2.1066
2.1043
1
1
1
1
1
1
1
1
1
1
1
1
1
1
1
1
1
1
1
1
1
1
1
1
1
1
1
1
1
1
1
1
1
1
1
1
1
1
1
1
1
1
1
1
1
1
1
1
1
1
1
1
1
1
1
1
1
1
1
1
1
1
1
1
1
1
1
1
1
1
1
1
1
1
1
1
1
1
1
1
1
1
1
1.00037
1.01967
1.25872
1.71619
2.04174
2.1013
2.11097
2.10748
2.10313
2.098
2.09508
2.09313
2.09098
1
1
1
1
1
1
1
1
1
1
1
1
1
1
1
1
1
1
1
1
1
1
1
1
1
1
1
1
1
1
1
1
1
1
1
1
1
1
1
1
1
1
1
1
1
1
1
1
1
1
1
1
1
1
1
1
1
1
1
1
1
1
1
1
1
1
1
1
1
1
1
1
1
1
1
1
1
1
1
1
1
1
1
1
1.00008
1.00633
1.12016
1.54734
1.94292
2.06968
2.1005
2.09584
2.08966
2.0861
2.08814
2.10213
1
1
1
1
1
1
1
1
1
1
1
1
1
1
1
1
1
1
1
1
1
1
1
1
1
1
1
1
1
1
1
1
1
1
1
1
1
1
1
1
1
1
1
1
1
1
1
1
1
1
1
1
1
1
1
1
1
1
1
1
1
1
1
1
1
1
1
1
1
1
1
1
1
1
1
1
1
1
1
1
1
1
1
1
1
1.00001
1.0015
1.0476
1.36154
1.78786
2.04506
2.07306
2.09164
2.11963
2.16934
2.23283
1
1
1
1
1
1
1
1
1
1
1
1
1
1
1
1
1
1
1
1
1
1
1
1
1
1
1
1
1
1
1
1
1
1
1
1
1
1
1
1
1
1
1
1
1
1
1
1
1
1
1
1
1
1
1
1
1
1
1
1
1
1
1
1
1
1
1
1
1
1
1
1
1
1
1
1
1
1
1
1
1
1
1
1
1
1
1
1.00033
1.01445
1.18828
1.62707
1.92411
2.21278
2.3048
2.35105
2.37354
1
1
1
1
1
1
1
1
1
1
1
1
1
1
1
1
1
1
1
1
1
1
1
1
1
1
1
1
1
1
1
1
1
1
1
1
1
1
1
1
1
1
1
1
1
1
1
1
1
1
1
1
1
1
1
1
1
1
1
1
1
1
1
1
1
1
1
1
1
1
1
1
1
1
1
1
1
1
1
1
1
1
1
1
1
1
1
1
1.00005
1.00369
1.07527
1.82112
2.56816
2.55522
2.51635
2.48908
1
1
1
1
1
1
1
1
1
1
1
1
1
1
1
1
1
1
1
1
1
1
1
1
1
1
1
1
1
1
1
1
1
1
1
1
1
1
1
1
1
1
1
1
1
1
1
1
1
1
1
1
1
1
1
1
1
1
1
1
1
1
1
1
1
1
1
1
1
1
1
1
1
1
1
1
1
1
1
1
1
1
1
1
1
1
1
1
1
1.00001
1.00077
2.0005
2.73171
2.69635
2.63858
2.59092
1
1
1
1
1
1
1
1
1
1
1
1
1
1
1
1
1
1
1
1
1
1
1
1
1
1
1
1
1
1
1
1
1
1
1
1
1
1
1
1
1
1
1
1
1
1
1
1
1
1
1
1
1
1
1
1
1
1
1
1
1
1
1
1
1
1
1
1
1
1
1
1
1
1
1
1
1
1
1
1
1
1
1
1
1
1
1
1
1
1
1
1.97379
2.72841
2.72787
2.71741
2.69873
1
1
1
1
1
1
1
1
1
1
1
1
1
1
1
1
1
1
1
1
1
1
1
1
1
1
1
1
1
1
1
1
1
1
1
1
1
1
1
1
1
1
1
1
1
1
1
1
1
1
1
1
1
1
1
1
1
1
1
1
1
1
1
1
1
1
1
1
1
1
1
1
1
1
1
1
1
1
1
1
1
1
1
1
1
1
1
1
1
1
1
1.7845
2.6686
2.73127
2.72827
2.72435
1
1
1
1
1
1
1
1
1
1
1
1
1
1
1
1
1
1
1
1
1
1
1
1
1
1
1
1
1
1
1
1
1
1
1
1
1
1
1
1
1
1
1
1
1
1
1
1
1
1
1
1
1
1
1
1
1
1
1
1
1
1
1
1
1
1
1
1
1
1
1
1
1
1
1
1
1
1
1
1
1
1
1
1
1
1
1
1
1
1
1
1.53023
2.57219
2.71712
2.71733
2.7172
1
1
1
1
1
1
1
1
1
1
1
1
1
1
1
1
1
1
1
1
1
1
1
1
1
1
1
1
1
1
1
1
1
1
1
1
1
1
1
1
1
1
1
1
1
1
1
1
1
1
1
1
1
1
1
1
1
1
1
1
1
1
1
1
1
1
1
1
1
1
1
1
1
1
1
1
1
1
1
1
1
1
1
1
1
1
1
1
1
1
1
1.26675
2.45476
2.70152
2.70686
2.70751
1
1
1
1
1
1
1
1
1
1
1
1
1
1
1
1
1
1
1
1
1
1
1
1
1
1
1
1
1
1
1
1
1
1
1
1
1
1
1
1
1
1
1
1
1
1
1
1
1
1
1
1
1
1
1
1
1
1
1
1
1
1
1
1
1
1
1
1
1
1
1
1
1
1
1
1
1
1
1
1
1
1
1
1
1
1
1
1
1
1
1
1.02616
2.32309
2.69413
2.70575
2.70292
1
1
1
1
1
1
1
1
1
1
1
1
1
1
1
1
1
1
1
1
1
1
1
1
1
1
1
1
1
1
1
1
1
1
1
1
1
1
1
1
1
1
1
1
1
1
1
1
1
1
1
1
1
1
1
1
1
1
1
1
1
1
1
1
1
1
1
1
1
1
1
1
1
1
1
1
1
1
1
1
1
1
1
1
1
1
1
1
1
1
1
1.00007
2.18189
2.6919
2.70824
2.70479
1
1
1
1
1
1
1
1
1
1
1
1
1
1
1
1
1
1
1
1
1
1
1
1
1
1
1
1
1
1
1
1
1
1
1
1
1
1
1
1
1
1
1
1
1
1
1
1
1
1
1
1
1
1
1
1
1
1
1
1
1
1
1
1
1
1
1
1
1
1
1
1
1
1
1
1
1
1
1
1
1
1
1
1
1
1
1
1
1
1
1
1
2.02643
2.68955
2.71592
2.71074
1
1
1
1
1
1
1
1
1
1
1
1
1
1
1
1
1
1
1
1
1
1
1
1
1
1
1
1
1
1
1
1
1
1
1
1
1
1
1
1
1
1
1
1
1
1
1
1
1
1
1
1
1
1
1
1
1
1
1
1
1
1
1
1
1
1
1
1
1
1
1
1
1
1
1
1
1
1
1
1
1
1
1
1
1
1
1
1
1
1
1
1
1.86884
2.67349
2.72247
2.7157
1
1
1
1
1
1
1
1
1
1
1
1
1
1
1
1
1
1
1
1
1
1
1
1
1
1
1
1
1
1
1
1
1
1
1
1
1
1
1
1
1
1
1
1
1
1
1
1
1
1
1
1
1
1
1
1
1
1
1
1
1
1
1
1
1
1
1
1
1
1
1
1
1
1
1
1
1
1
1
1
1
1
1
1
1
1
1
1
1
1
1
1
1.70782
2.64258
2.72359
2.71626
1
1
1
1
1
1
1
1
1
1
1
1
1
1
1
1
1
1
1
1
1
1
1
1
1
1
1
1
1
1
1
1
1
1
1
1
1
1
1
1
1
1
1
1
1
1
1
1
1
1
1
1
1
1
1
1
1
1
1
1
1
1
1
1
1
1
1
1
1
1
1
1
1
1
1
1
1
1
1
1
1
1
1
1
1
1
1
1
1
1
1
1
1.56186
2.59933
2.72032
2.71373
1
1
1
1
1
1
1
1
1
1
1
1
1
1
1
1
1
1
1
1
1
1
1
1
1
1
1
1
1
1
1
1
1
1
1
1
1
1
1
1
1
1
1
1
1
1
1
1
1
1
1
1
1
1
1
1
1
1
1
1
1
1
1
1
1
1
1
1
1
1
1
1
1
1
1
1
1
1
1
1
1
1
1
1
1
1
1
1
1
1
1
1
1.43741
2.55296
2.71369
2.70809
1
1
1
1
1
1
1
1
1
1
1
1
1
1
1
1
1
1
1
1
1
1
1
1
1
1
1
1
1
1
1
1
1
1
1
1
1
1
1
1
1
1
1
1
1
1
1
1
1
1
1
1
1
1
1
1
1
1
1
1
1
1
1
1
1
1
1
1
1
1
1
1
1
1
1
1
1
1
1
1
1
1
1
1
1
1
1
1
1
1
1
1
1.32617
2.49929
2.70561
2.70067
1
1
1
1
1
1
1
1
1
1
1
1
1
1
1
1
1
1
1
1
1
1
1
1
1
1
1
1
1
1
1
1
1
1
1
1
1
1
1
1
1
1
1
1
1
1
1
1
1
1
1
1
1
1
1
1
1
1
1
1
1
1
1
1
1
1
1
1
1
1
1
1
1
1
1
1
1
1
1
1
1
1
1
1
1
1
1
1
1
1
1
1
1.20581
2.42723
2.69782
2.69493
1
1
1
1
1
1
1
1
1
1
1
1
1
1
1
1
1
1
1
1
1
1
1
1
1
1
1
1
1
1
1
1
1
1
1
1
1
1
1
1
1
1
1
1
1
1
1
1
1
1
1
1
1
1
1
1
1
1
1
1
1
1
1
1
1
1
1
1
1
1
1
1
1
1
1
1
1
1
1
1
1
1
1
1
1
1
1
1
1
1
1
1
1.06548
2.34145
2.68842
2.69675
1
1
1
1
1
1
1
1
1
1
1
1
1
1
1
1
1
1
1
1
1
1
1
1
1
1
1
1
1
1
1
1
1
1
1
1
1
1
1
1
1
1
1
1
1
1
1
1
1
1
1
1
1
1
1
1
1
1
1
1
1
1
1
1
1
1
1
1
1
1
1
1
1
1
1
1
1
1
1
1
1
1
1
1
1
1
1
1
1
1
1
1
1.0007
2.26616
2.67984
2.70519
1
1
1
1
1
1
1
1
1
1
1
1
1
1
1
1
1
1
1
1
1
1
1
1
1
1
1
1
1
1
1
1
1
1
1
1
1
1
1
1
1
1
1
1
1
1
1
1
1
1
1
1
1
1
1
1
1
1
1
1
1
1
1
1
1
1
1
1
1
1
1
1
1
1
1
1
1
1
1
1
1
1
1
1
1
1
1
1
1
1
1
1
1
2.20556
2.67431
2.71296
1
1
1
1
1
1
1
1
1
1
1
1
1
1
1
1
1
1
1
1
1
1
1
1
1
1
1
1
1
1
1
1
1
1
1
1
1
1
1
1
1
1
1
1
1
1
1
1
1
1
1
1
1
1
1
1
1
1
1
1
1
1
1
1
1
1
1
1
1
1
1
1
1
1
1
1
1
1
1
1
1
1
1
1
1
1
1
1
1
1
1
1
1
2.16187
2.67506
2.71337
1
1
1
1
1
1
1
1
1
1
1
1
1
1
1
1
1
1
1
1
1
1
1
1
1
1
1
1
1
1
1
1
1
1
1
1
1
1
1
1
1
1
1
1
1
1
1
1
1
1
1
1
1
1
1
1
1
1
1
1
1
1
1
1
1
1
1
1
1
1
1
1
1
1
1
1
1
1
1
1
1
1
1
1
1
1
1
1
1
1
1
1
1
2.13207
2.67612
2.71208
1
1
1
1
1
1
1
1
1
1
1
1
1
1
1
1
1
1
1
1
1
1
1
1
1
1
1
1
1
1
1
1
1
1
1
1
1
1
1
1
1
1
1
1
1
1
1
1
1
1
1
1
1
1
1
1
1
1
1
1
1
1
1
1
1
1
1
1
1
1
1
1
1
1
1
1
1
1
1
1
1
1
1
1
1
1
1
1
1
1
1
1
1
2.11874
2.67563
2.71095
1.50422
0.929181
0.503571
0.553367
0.824524
0.873535
0.942904
1.0421
1.14574
1.23375
1.30371
1.36353
1.4029
1.40042
1.41533
1.48185
1.5752
1.61673
1.61071
1.58758
1.57312
1.57714
1.59482
1.62015
1.6196
1.60114
1.58074
1.57993
1.59063
1.61458
1.63808
1.64589
1.64573
1.64365
1.63827
1.6377
1.64253
1.65217
1.65707
1.65712
1.65611
1.65393
1.65143
1.64971
1.64813
1.64583
1.64357
1.64338
1.64365
1.64385
1.64454
1.64405
1.66331
2.43527
2.76213
2.75714
2.74925
2.74031
2.73128
2.72308
2.71586
2.70915
2.70204
2.69452
2.68647
2.67822
2.66998
2.66189
2.65415
2.64727
2.64183
2.63699
2.63259
2.62847
2.62437
2.61913
2.61068
2.60015
2.58943
2.57935
2.57104
2.56601
2.56404
2.56205
2.55733
2.55035
2.54226
2.53326
2.52393
2.51488
2.50697
2.50039
2.49391
2.486
2.47685
2.46758
2.45881
2.45095
2.44427
2.43876
2.43382
2.42867
2.42293
2.41702
2.41148
2.40644
2.40197
2.39825
2.39521
2.3916
2.38671
2.3814
2.37557
2.36914
2.36247
2.35594
2.34964
2.34359
2.33797
2.33293
2.32829
2.32384
2.31937
2.31479
2.30965
2.30367
2.29707
2.2902
2.28319
2.27622
2.2697
2.26372
2.25835
2.2537
2.24885
2.24347
2.23795
2.23206
2.22599
2.22018
2.21494
2.21032
2.20624
2.20263
2.19935
2.19638