/*--------------------------------*- C++ -*----------------------------------*\
  =========                 |
  \\      /  F ield         | OpenFOAM: The Open Source CFD Toolbox
   \\    /   O peration     | Website:  https://openfoam.org
    \\  /    A nd           | Version:  7
     \\/     M anipulation  |
\*---------------------------------------------------------------------------*/
FoamFile
{
    version     2.0;
    format      ascii;
    class       volVectorField;
    location    "4.5";
    object      U;
}
// * * * * * * * * * * * * * * * * * * * * * * * * * * * * * * * * * * * * * //

dimensions      [0 1 -1 0 0 0 0];

internalField   nonuniform List<vector> 
19968
(
(3 4.32382e-18 0)
(3 6.94242e-17 0)
(3 3.46181e-16 0)
(3 2.58994e-16 0)
(3 -3.79648e-17 0)
(3 -1.46411e-16 0)
(3 -9.28142e-17 0)
(3 4.44363e-16 0)
(3 6.15183e-16 0)
(3 9.76012e-16 0)
(3 7.05389e-16 0)
(3 2.60292e-16 0)
(3 3.35386e-16 0)
(3 5.9112e-16 0)
(3 8.73824e-16 0)
(3 1.22083e-15 0)
(3 1.21994e-15 0)
(3 1.03526e-15 0)
(3 7.59972e-16 0)
(3 1.55034e-16 0)
(3 -5.31977e-18 0)
(3 1.8465e-16 0)
(3 3.50969e-16 0)
(3 3.17617e-16 0)
(3 -1.45114e-16 0)
(3 -1.02317e-15 0)
(3 -1.21759e-15 0)
(3 -1.13149e-15 0)
(3 -6.63002e-16 0)
(3 5.66576e-16 0)
(3 4.89637e-16 0)
(3 1.13907e-16 0)
(3 -4.42667e-16 0)
(3 7.70711e-17 0)
(3 5.6755e-16 0)
(3 4.09554e-16 0)
(3 6.01775e-16 0)
(3 1.58088e-15 0)
(3 8.93568e-16 0)
(3 -1.61058e-15 0)
(3 -2.34907e-15 0)
(3 -1.28342e-15 0)
(3 2.81951e-16 0)
(3 6.75994e-16 0)
(3 8.61414e-16 0)
(3 6.38078e-16 0)
(3 3.34547e-16 0)
(3 -7.8412e-17 0)
(2.8272 0.00200353 0)
(0.976385 0.00707466 0)
(0.758319 0.00395098 0)
(0.746894 0.00839312 0)
(0.729267 0.00935089 0)
(0.712809 0.0101974 0)
(0.695805 0.00985945 0)
(0.680376 0.00870774 0)
(0.66667 0.00798532 0)
(0.653605 0.00815449 0)
(0.639782 0.00887497 0)
(0.624491 0.00952623 0)
(0.608191 0.00959454 0)
(0.59188 0.0092947 0)
(0.576029 0.00918774 0)
(0.560529 0.00937089 0)
(0.545265 0.00953552 0)
(0.530325 0.00953604 0)
(0.515582 0.00959523 0)
(0.500647 0.00979548 0)
(0.48531 0.00994375 0)
(0.469633 0.010002 0)
(0.453685 0.0100624 0)
(0.437597 0.0101172 0)
(0.421593 0.0101908 0)
(0.405758 0.010349 0)
(0.389994 0.0105455 0)
(0.374173 0.0106835 0)
(0.358166 0.0107578 0)
(0.341821 0.0108331 0)
(0.325091 0.0109406 0)
(0.30814 0.011055 0)
(0.291241 0.0111642 0)
(0.274547 0.0112861 0)
(0.258018 0.0114244 0)
(0.241526 0.0115747 0)
(0.224915 0.0117374 0)
(0.208012 0.0119152 0)
(0.190635 0.0121192 0)
(0.17264 0.0123551 0)
(0.153958 0.0126372 0)
(0.134585 0.0129814 0)
(0.114579 0.0133652 0)
(0.0940615 0.0137635 0)
(0.0731831 0.0141597 0)
(0.0521268 0.0145048 0)
(0.0311015 0.014622 0)
(0.0106486 0.0147169 0)
(3 -1.55512e-16 0)
(3 -3.46257e-16 0)
(3 -2.43434e-16 0)
(3 -3.05792e-16 0)
(3 -1.98012e-16 0)
(3 -5.30117e-17 0)
(3 1.13911e-16 0)
(3 2.81341e-16 0)
(3 1.00374e-16 0)
(3 1.43986e-16 0)
(3 -2.19277e-17 0)
(3 -2.08305e-16 0)
(3 2.94243e-16 0)
(3 9.93524e-16 0)
(3 1.01956e-15 0)
(3 1.09904e-15 0)
(3 1.30723e-15 0)
(3 1.69436e-15 0)
(3 1.47224e-15 0)
(3 4.47806e-16 0)
(3 -8.4137e-16 0)
(3 -1.05686e-15 0)
(3 -4.79106e-16 0)
(3 -9.42231e-16 0)
(3 -1.00395e-15 0)
(3 -1.80273e-15 0)
(3 -1.93572e-15 0)
(3 -1.86474e-15 0)
(3 -1.79503e-15 0)
(3 -7.65815e-16 0)
(3 -9.0648e-16 0)
(3 4.19256e-16 0)
(3 9.16086e-16 0)
(3 1.51963e-15 0)
(3 1.57818e-15 0)
(3 1.66082e-15 0)
(3 1.83608e-15 0)
(3 1.86445e-15 0)
(3 1.33958e-15 0)
(3 2.59769e-16 0)
(3 -9.43794e-16 0)
(3 -1.58946e-15 0)
(3 -6.57761e-16 0)
(3 1.37334e-16 0)
(3 7.82781e-16 0)
(3 1.30504e-15 0)
(3 1.81554e-15 0)
(3 6.42535e-16 0)
(2.84022 0.011419 0)
(0.98189 0.0310351 0)
(0.754752 0.0201228 0)
(0.740195 0.0231477 0)
(0.724279 0.0267399 0)
(0.708557 0.0291456 0)
(0.692444 0.0288225 0)
(0.677464 0.0264101 0)
(0.663495 0.0245763 0)
(0.649943 0.0248572 0)
(0.635889 0.0267545 0)
(0.620585 0.0285787 0)
(0.604385 0.0288652 0)
(0.588159 0.0281448 0)
(0.572285 0.0278703 0)
(0.556761 0.0283667 0)
(0.541488 0.0288524 0)
(0.526488 0.0289251 0)
(0.511608 0.0291432 0)
(0.496519 0.0296996 0)
(0.481076 0.0300406 0)
(0.465377 0.0301448 0)
(0.449453 0.030367 0)
(0.433364 0.0306271 0)
(0.417311 0.0308884 0)
(0.401411 0.03134 0)
(0.385589 0.0319058 0)
(0.369706 0.0323189 0)
(0.353632 0.0325377 0)
(0.337242 0.0327458 0)
(0.320511 0.0330646 0)
(0.303598 0.0334413 0)
(0.286759 0.0338275 0)
(0.270143 0.0342554 0)
(0.25373 0.0347219 0)
(0.237402 0.0352142 0)
(0.221005 0.0357452 0)
(0.204366 0.0363288 0)
(0.187311 0.0369864 0)
(0.16971 0.0377124 0)
(0.151516 0.0385311 0)
(0.132726 0.0395038 0)
(0.113364 0.0406057 0)
(0.0934819 0.0418311 0)
(0.073147 0.0431845 0)
(0.0524452 0.0445332 0)
(0.0315031 0.0452469 0)
(0.0108216 0.0459708 0)
(3 -3.10447e-17 0)
(3 -9.02117e-17 0)
(3 -4.99292e-16 0)
(3 -5.82685e-16 0)
(3 -4.68536e-16 0)
(3 -5.47991e-16 0)
(3 -7.42709e-16 0)
(3 -1.45372e-15 0)
(3 -1.88983e-15 0)
(3 -2.26904e-15 0)
(3 -1.50459e-15 0)
(3 7.55728e-17 0)
(3 5.54951e-16 0)
(3 7.91892e-16 0)
(3 4.78903e-16 0)
(3 2.81819e-17 0)
(3 3.01433e-16 0)
(3 8.57095e-16 0)
(3 2.11357e-15 0)
(3 2.57128e-15 0)
(3 1.07659e-15 0)
(3 4.19448e-16 0)
(3 -6.19869e-16 0)
(3 -3.23615e-16 0)
(3 -2.79951e-16 0)
(3 -7.36749e-16 0)
(3 -1.54056e-15 0)
(3 -1.97275e-15 0)
(3 -2.57719e-15 0)
(3 -2.44593e-15 0)
(3 -2.16551e-15 0)
(3 -7.31819e-16 0)
(3 1.6665e-15 0)
(3 2.21502e-15 0)
(3 1.08653e-15 0)
(3 1.97427e-16 0)
(3 1.297e-16 0)
(3 9.70908e-17 0)
(3 1.13396e-16 0)
(3 8.9187e-16 0)
(3 1.46671e-15 0)
(3 3.46813e-16 0)
(3 1.56621e-16 0)
(3 5.58352e-17 0)
(3 -2.89596e-16 0)
(3 7.58169e-16 0)
(3 9.88718e-16 0)
(3 6.09559e-16 0)
(2.87128 0.0189509 0)
(0.997969 0.0520457 0)
(0.758683 0.0373031 0)
(0.743124 0.0413095 0)
(0.72673 0.0458969 0)
(0.710945 0.0489909 0)
(0.695188 0.0484155 0)
(0.680291 0.0453458 0)
(0.665768 0.0430018 0)
(0.651359 0.043464 0)
(0.636708 0.0462589 0)
(0.621096 0.0489696 0)
(0.604743 0.049416 0)
(0.588406 0.0483865 0)
(0.572366 0.0480095 0)
(0.556723 0.0487779 0)
(0.541365 0.049577 0)
(0.526213 0.049823 0)
(0.511069 0.0503143 0)
(0.495665 0.0512538 0)
(0.479917 0.0517234 0)
(0.463987 0.0517825 0)
(0.447898 0.0521441 0)
(0.431641 0.0526583 0)
(0.415358 0.0531221 0)
(0.399179 0.0538117 0)
(0.383053 0.0546917 0)
(0.366842 0.0553827 0)
(0.350425 0.0557827 0)
(0.333708 0.0561384 0)
(0.316684 0.0566355 0)
(0.299483 0.0571951 0)
(0.282333 0.0577417 0)
(0.265392 0.0583385 0)
(0.248677 0.0589911 0)
(0.232104 0.0596829 0)
(0.215539 0.060441 0)
(0.198823 0.0612971 0)
(0.181802 0.0622968 0)
(0.164385 0.0634335 0)
(0.146565 0.0647379 0)
(0.128368 0.0663188 0)
(0.1098 0.0681473 0)
(0.0908394 0.0702433 0)
(0.0714423 0.072638 0)
(0.0515559 0.0751291 0)
(0.0311572 0.0766062 0)
(0.0107102 0.0782229 0)
(3 2.3953e-16 0)
(3 4.19249e-16 0)
(3 3.65532e-16 0)
(3 1.42722e-16 0)
(3 -2.96513e-16 0)
(3 -5.57543e-16 0)
(3 -1.36499e-15 0)
(3 -1.32959e-15 0)
(3 -1.04585e-15 0)
(3 -8.6228e-16 0)
(3 -5.67113e-16 0)
(3 1.19111e-16 0)
(3 5.57217e-16 0)
(3 4.07502e-16 0)
(3 7.83045e-16 0)
(3 7.44965e-16 0)
(3 5.53375e-16 0)
(3 7.11969e-16 0)
(3 1.45344e-15 0)
(3 2.25598e-15 0)
(3 2.68526e-15 0)
(3 1.67125e-15 0)
(3 7.22158e-16 0)
(3 6.01299e-16 0)
(3 8.74714e-16 0)
(3 -9.7229e-16 0)
(3 -1.26285e-15 0)
(3 -1.41448e-15 0)
(3 -1.31124e-15 0)
(3 -6.5517e-16 0)
(3 -2.96282e-16 0)
(3 -8.46858e-16 0)
(3 -1.00614e-15 0)
(3 -1.172e-15 0)
(3 -1.26541e-16 0)
(3 -4.8952e-16 0)
(3 -4.52546e-16 0)
(3 -2.31897e-17 0)
(3 4.51662e-17 0)
(3 1.39178e-15 0)
(3 2.43373e-15 0)
(3 3.13752e-15 0)
(3 1.95991e-15 0)
(3 9.36526e-16 0)
(3 1.66853e-16 0)
(3 4.70776e-16 0)
(3 7.38133e-16 0)
(3 5.3804e-16 0)
(2.91416 0.0239233 0)
(1.02154 0.070669 0)
(0.761119 0.0546219 0)
(0.745672 0.0609249 0)
(0.72955 0.0660848 0)
(0.714102 0.0688994 0)
(0.699035 0.0679264 0)
(0.684535 0.0647881 0)
(0.66997 0.0625897 0)
(0.65523 0.0634006 0)
(0.640367 0.0668649 0)
(0.624755 0.0701901 0)
(0.608455 0.0708138 0)
(0.592104 0.0696159 0)
(0.575981 0.069137 0)
(0.560341 0.0700705 0)
(0.545063 0.0711866 0)
(0.529916 0.0717966 0)
(0.514638 0.0727925 0)
(0.498994 0.0742604 0)
(0.482951 0.0748973 0)
(0.466762 0.0748909 0)
(0.450467 0.0754252 0)
(0.433994 0.076318 0)
(0.417401 0.0770823 0)
(0.400829 0.0780287 0)
(0.384261 0.0792416 0)
(0.367557 0.0802925 0)
(0.350602 0.0809843 0)
(0.333344 0.0815688 0)
(0.315792 0.0822866 0)
(0.298049 0.0830505 0)
(0.280297 0.0837585 0)
(0.262697 0.0844972 0)
(0.245296 0.0852756 0)
(0.228047 0.0860653 0)
(0.210841 0.0869027 0)
(0.193549 0.0878381 0)
(0.176068 0.0889501 0)
(0.158367 0.0902438 0)
(0.140505 0.0917592 0)
(0.122573 0.0936814 0)
(0.104592 0.0960122 0)
(0.0865013 0.0988367 0)
(0.0681591 0.10221 0)
(0.0493835 0.105898 0)
(0.0299224 0.108264 0)
(0.0102591 0.110939 0)
(3 -9.94663e-17 0)
(3 -1.48948e-16 0)
(3 2.33598e-17 0)
(3 2.3457e-16 0)
(3 5.57836e-16 0)
(3 8.29959e-16 0)
(3 5.93128e-16 0)
(3 7.81336e-16 0)
(3 1.12865e-15 0)
(3 1.355e-15 0)
(3 1.01607e-15 0)
(3 3.97551e-16 0)
(3 -4.25332e-16 0)
(3 -4.76666e-16 0)
(3 -2.07879e-16 0)
(3 8.97021e-17 0)
(3 8.98589e-16 0)
(3 1.14932e-15 0)
(3 1.50911e-15 0)
(3 1.67429e-15 0)
(3 1.71057e-15 0)
(3 1.15257e-15 0)
(3 7.59672e-16 0)
(3 2.26753e-16 0)
(3 6.57327e-17 0)
(3 5.26603e-17 0)
(3 3.55213e-16 0)
(3 6.7377e-16 0)
(3 6.61364e-16 0)
(3 1.06091e-16 0)
(3 -9.41317e-16 0)
(3 -1.94262e-15 0)
(3 -2.27155e-15 0)
(3 -2.28268e-15 0)
(3 -1.8468e-15 0)
(3 -1.52522e-15 0)
(3 -1.36823e-15 0)
(3 -1.12591e-15 0)
(3 -8.14371e-16 0)
(3 -2.20505e-16 0)
(3 9.62801e-16 0)
(3 2.35137e-15 0)
(3 2.40618e-15 0)
(3 1.07531e-15 0)
(3 3.99106e-16 0)
(3 6.86927e-17 0)
(3 3.18979e-16 0)
(3 -8.21553e-16 0)
(2.95904 0.0170008 0)
(1.04917 0.092319 0)
(0.765361 0.0727697 0)
(0.750076 0.082087 0)
(0.73394 0.0870377 0)
(0.718862 0.0887145 0)
(0.704466 0.087195 0)
(0.690394 0.0842938 0)
(0.676022 0.0826467 0)
(0.661345 0.0840693 0)
(0.646609 0.0880835 0)
(0.631273 0.0918373 0)
(0.615203 0.0927895 0)
(0.598873 0.0917284 0)
(0.582662 0.0911559 0)
(0.567038 0.0920587 0)
(0.551957 0.0934132 0)
(0.537021 0.0945526 0)
(0.521871 0.0963153 0)
(0.506245 0.0985289 0)
(0.490105 0.0994588 0)
(0.473829 0.0994258 0)
(0.457499 0.100202 0)
(0.441002 0.10166 0)
(0.424258 0.102902 0)
(0.40741 0.104169 0)
(0.390489 0.105751 0)
(0.373363 0.107262 0)
(0.355916 0.108388 0)
(0.338134 0.109326 0)
(0.320051 0.110369 0)
(0.301735 0.111447 0)
(0.283317 0.112425 0)
(0.264945 0.113391 0)
(0.246687 0.114349 0)
(0.22853 0.115255 0)
(0.2104 0.116151 0)
(0.192206 0.117104 0)
(0.173891 0.118214 0)
(0.155472 0.119483 0)
(0.13706 0.120926 0)
(0.118816 0.122796 0)
(0.100824 0.125139 0)
(0.0830367 0.128162 0)
(0.0652474 0.131983 0)
(0.0471668 0.136478 0)
(0.028544 0.139536 0)
(0.00971599 0.143146 0)
(3 8.9788e-17 0)
(3 9.43462e-17 0)
(3 1.3887e-16 0)
(3 2.9309e-16 0)
(3 1.3475e-15 0)
(3 1.5717e-15 0)
(3 1.86659e-15 0)
(3 1.69863e-15 0)
(3 1.49007e-15 0)
(3 1.35725e-15 0)
(3 1.05526e-15 0)
(3 -4.03983e-16 0)
(3 -1.27399e-15 0)
(3 -1.59852e-15 0)
(3 -1.57452e-15 0)
(3 -1.41223e-15 0)
(3 -4.16716e-16 0)
(3 -2.306e-17 0)
(3 2.48003e-17 0)
(3 4.93016e-17 0)
(3 -4.11399e-16 0)
(3 -1.17113e-15 0)
(3 -8.66196e-16 0)
(3 -4.62075e-16 0)
(3 -6.39997e-16 0)
(3 -8.93193e-16 0)
(3 -1.04862e-15 0)
(3 -9.24339e-16 0)
(3 -1.08922e-15 0)
(3 -1.34631e-15 0)
(3 -1.37358e-15 0)
(3 -1.52975e-15 0)
(3 -1.64477e-15 0)
(3 -1.82666e-15 0)
(3 -2.48169e-15 0)
(3 -2.84004e-15 0)
(3 -2.48989e-15 0)
(3 -2.37957e-15 0)
(3 -2.74075e-15 0)
(3 -2.14974e-15 0)
(3 -9.03271e-16 0)
(3 -7.61837e-16 0)
(3 -8.94482e-16 0)
(3 -6.3598e-16 0)
(3 -7.95589e-16 0)
(3 -1.37739e-15 0)
(3 -1.58039e-15 0)
(3 -2.53584e-15 0)
(3.00019 0.00242098 0)
(1.12377 0.10802 0)
(0.771782 0.0888297 0)
(0.756596 0.103784 0)
(0.740737 0.107943 0)
(0.726036 0.108092 0)
(0.711909 0.106182 0)
(0.698011 0.103874 0)
(0.683943 0.10312 0)
(0.669719 0.105152 0)
(0.6555 0.10941 0)
(0.640748 0.113419 0)
(0.625095 0.114969 0)
(0.608868 0.114428 0)
(0.592631 0.113717 0)
(0.577076 0.114156 0)
(0.562316 0.115376 0)
(0.547825 0.116981 0)
(0.533119 0.119651 0)
(0.517832 0.122815 0)
(0.501859 0.124198 0)
(0.485746 0.124149 0)
(0.469643 0.125161 0)
(0.453449 0.127335 0)
(0.436895 0.129262 0)
(0.420086 0.130932 0)
(0.403095 0.132902 0)
(0.385807 0.134969 0)
(0.368102 0.136703 0)
(0.350001 0.138171 0)
(0.331581 0.1397 0)
(0.312889 0.141274 0)
(0.293998 0.142724 0)
(0.27502 0.144118 0)
(0.256029 0.145447 0)
(0.237037 0.146646 0)
(0.218013 0.14776 0)
(0.1989 0.148867 0)
(0.179668 0.150091 0)
(0.160347 0.151429 0)
(0.141058 0.152839 0)
(0.121992 0.154608 0)
(0.103254 0.156755 0)
(0.0848234 0.159631 0)
(0.0663364 0.163322 0)
(0.0478995 0.16816 0)
(0.0288953 0.171512 0)
(0.00977404 0.175763 0)
(3 1.02136e-16 0)
(3 4.03732e-16 0)
(3 7.3381e-16 0)
(3 8.30632e-16 0)
(3 7.2387e-16 0)
(3 4.82363e-16 0)
(3 6.28272e-16 0)
(3 7.57058e-16 0)
(3 7.59823e-16 0)
(3 7.28094e-16 0)
(3 1.04623e-15 0)
(3 9.52497e-16 0)
(3 5.17479e-16 0)
(3 -1.20761e-16 0)
(3 -1.91147e-16 0)
(3 -2.9001e-16 0)
(3 -6.8455e-16 0)
(3 -1.16693e-15 0)
(3 -1.47083e-15 0)
(3 -1.53299e-15 0)
(3 -1.56223e-15 0)
(3 -1.25429e-15 0)
(3 -9.25616e-16 0)
(3 -9.39177e-16 0)
(3 -1.49563e-15 0)
(3 -2.22814e-15 0)
(3 -2.39363e-15 0)
(3 -2.88101e-15 0)
(3 -2.72923e-15 0)
(3 -2.01773e-15 0)
(3 -1.94051e-15 0)
(3 -2.14644e-15 0)
(3 -2.54473e-15 0)
(3 -2.91083e-15 0)
(3 -2.8479e-15 0)
(3 -3.0825e-15 0)
(3 -3.50743e-15 0)
(3 -3.51073e-15 0)
(3 -3.32156e-15 0)
(3 -2.51031e-15 0)
(3 -2.04256e-15 0)
(3 -1.82514e-15 0)
(3 -1.56812e-15 0)
(3 -9.98277e-16 0)
(3 -4.99373e-16 0)
(3 -1.51401e-15 0)
(3 -2.08288e-15 0)
(3 -3.01952e-15 0)
(3.00002 6.37313e-06 0)
(1.24791 0.13562 0)
(0.776088 0.110217 0)
(0.755024 0.126635 0)
(0.738879 0.130151 0)
(0.723034 0.129717 0)
(0.7075 0.127536 0)
(0.692442 0.125223 0)
(0.677886 0.124757 0)
(0.663837 0.127018 0)
(0.65022 0.131417 0)
(0.636356 0.135979 0)
(0.621554 0.138641 0)
(0.605956 0.139043 0)
(0.590222 0.138308 0)
(0.575145 0.13798 0)
(0.560949 0.138798 0)
(0.547075 0.140871 0)
(0.533008 0.14465 0)
(0.518292 0.149021 0)
(0.502704 0.151112 0)
(0.486971 0.151168 0)
(0.471342 0.152455 0)
(0.455837 0.155468 0)
(0.439993 0.158299 0)
(0.423814 0.160486 0)
(0.407406 0.162849 0)
(0.390666 0.165475 0)
(0.373438 0.167867 0)
(0.355735 0.169921 0)
(0.337663 0.171985 0)
(0.319262 0.174113 0)
(0.300548 0.176103 0)
(0.281592 0.177969 0)
(0.262469 0.179685 0)
(0.243223 0.181175 0)
(0.223866 0.182497 0)
(0.204378 0.183747 0)
(0.184747 0.185078 0)
(0.164995 0.186502 0)
(0.145229 0.187908 0)
(0.125635 0.189593 0)
(0.10631 0.191482 0)
(0.0872943 0.194106 0)
(0.0680226 0.197393 0)
(0.0490747 0.202277 0)
(0.0295348 0.205693 0)
(0.00996474 0.210372 0)
(3 4.03206e-17 0)
(3 -5.26548e-17 0)
(3 -1.87299e-16 0)
(3 -2.00477e-16 0)
(3 -2.89398e-16 0)
(3 -4.02086e-16 0)
(3 -4.02743e-16 0)
(3 -5.13027e-16 0)
(3 -6.19466e-17 0)
(3 -1.29678e-16 0)
(3 -4.29898e-16 0)
(3 -2.32661e-16 0)
(3 -1.09815e-16 0)
(3 2.1119e-16 0)
(3 3.41313e-16 0)
(3 7.13881e-16 0)
(3 -4.07119e-16 0)
(3 -1.0198e-15 0)
(3 -9.13941e-16 0)
(3 -1.68371e-16 0)
(3 -6.41094e-16 0)
(3 -5.07687e-16 0)
(3 -1.02802e-15 0)
(3 -1.19458e-15 0)
(3 -1.08366e-15 0)
(3 -1.08977e-15 0)
(3 -1.33918e-15 0)
(3 -2.44124e-15 0)
(3 -2.53219e-15 0)
(3 -2.30808e-15 0)
(3 -2.21908e-15 0)
(3 -2.19668e-15 0)
(3 -2.19604e-15 0)
(3 -1.56681e-15 0)
(3 -1.42045e-15 0)
(3 -2.33692e-15 0)
(3 -2.76095e-15 0)
(3 -3.11806e-15 0)
(3 -2.95053e-15 0)
(3 -2.29668e-15 0)
(3 -2.60727e-15 0)
(3 -1.91143e-15 0)
(3 -1.38782e-15 0)
(3 -1.2293e-15 0)
(3 -1.33128e-15 0)
(3 -1.38579e-15 0)
(3 -1.65931e-15 0)
(3 -1.88258e-15 0)
(3 1.42275e-08 0)
(1.45956 0.164415 0)
(0.791818 0.135903 0)
(0.758468 0.151607 0)
(0.74189 0.154456 0)
(0.724719 0.154172 0)
(0.707846 0.151897 0)
(0.691568 0.148962 0)
(0.676259 0.147625 0)
(0.662007 0.149061 0)
(0.648623 0.152867 0)
(0.635375 0.157629 0)
(0.621277 0.16145 0)
(0.606117 0.163189 0)
(0.590599 0.162744 0)
(0.575669 0.161541 0)
(0.561647 0.161625 0)
(0.548139 0.163929 0)
(0.534718 0.168694 0)
(0.520803 0.174225 0)
(0.505947 0.177077 0)
(0.491027 0.177125 0)
(0.476334 0.178444 0)
(0.462012 0.182123 0)
(0.447355 0.185931 0)
(0.432145 0.188737 0)
(0.416544 0.191526 0)
(0.400502 0.194816 0)
(0.383853 0.198137 0)
(0.366599 0.201152 0)
(0.348884 0.204123 0)
(0.330762 0.207174 0)
(0.312194 0.210079 0)
(0.293198 0.21279 0)
(0.273831 0.215269 0)
(0.25416 0.217436 0)
(0.234239 0.219349 0)
(0.214086 0.221094 0)
(0.193719 0.222835 0)
(0.173177 0.224598 0)
(0.15255 0.2262 0)
(0.132002 0.227944 0)
(0.111626 0.229642 0)
(0.0915071 0.231967 0)
(0.0710909 0.234695 0)
(0.0511594 0.2394 0)
(0.0306952 0.242702 0)
(0.0103394 0.247636 0)
(3 -5.98328e-18 0)
(3 -1.70355e-17 0)
(3 -4.50513e-17 0)
(3 -2.38973e-16 0)
(3 -4.95457e-16 0)
(3 -6.2634e-16 0)
(3 -7.78702e-16 0)
(3 -8.54699e-16 0)
(3 -9.98015e-16 0)
(3 -1.07941e-15 0)
(3 -1.2913e-15 0)
(3 -6.00066e-16 0)
(3 2.62272e-16 0)
(3 1.71901e-16 0)
(3 -3.50913e-16 0)
(3 -6.81082e-16 0)
(3 -4.30068e-16 0)
(3 -1.98752e-16 0)
(3 -1.85974e-16 0)
(3 -4.88124e-17 0)
(3 -4.17998e-16 0)
(3 -1.32844e-15 0)
(3 -1.92077e-15 0)
(3 -1.78141e-15 0)
(3 -1.78344e-15 0)
(3 -2.1377e-15 0)
(3 -1.3832e-15 0)
(3 5.57764e-18 0)
(3 2.99268e-16 0)
(3 -5.03376e-17 0)
(3 -7.45639e-16 0)
(3 -1.349e-15 0)
(3 -1.39198e-15 0)
(3 -1.06735e-16 0)
(3 2.12317e-16 0)
(3 4.1599e-16 0)
(3 6.95196e-16 0)
(3 6.2007e-16 0)
(3 2.06265e-16 0)
(3 -2.03311e-16 0)
(3 -3.33398e-16 0)
(3 -8.67257e-16 0)
(3 -1.63651e-15 0)
(3 -1.66709e-15 0)
(3 -1.61155e-15 0)
(3 -1.0507e-15 0)
(3 -5.9623e-16 0)
(3 -5.50435e-16 0)
(3 2.8746e-11 0)
(1.78062 0.185701 0)
(0.818862 0.165724 0)
(0.764594 0.179083 0)
(0.748006 0.180914 0)
(0.729951 0.181018 0)
(0.712253 0.178945 0)
(0.694914 0.175713 0)
(0.678587 0.173072 0)
(0.663486 0.172833 0)
(0.649504 0.175448 0)
(0.636016 0.180201 0)
(0.621965 0.185375 0)
(0.606735 0.188838 0)
(0.590903 0.189106 0)
(0.575617 0.187105 0)
(0.561187 0.185992 0)
(0.547404 0.18791 0)
(0.534106 0.193191 0)
(0.520603 0.199648 0)
(0.506096 0.203279 0)
(0.491505 0.203301 0)
(0.477194 0.204429 0)
(0.46355 0.208683 0)
(0.449825 0.213727 0)
(0.43547 0.217508 0)
(0.420742 0.220903 0)
(0.405684 0.224961 0)
(0.390106 0.229376 0)
(0.373898 0.233579 0)
(0.357185 0.237673 0)
(0.340024 0.241848 0)
(0.322319 0.245899 0)
(0.30401 0.249715 0)
(0.285104 0.253249 0)
(0.265643 0.256414 0)
(0.245687 0.259249 0)
(0.225269 0.261807 0)
(0.204434 0.26423 0)
(0.183243 0.266572 0)
(0.161785 0.268574 0)
(0.140224 0.270554 0)
(0.118642 0.272198 0)
(0.0971377 0.274293 0)
(0.0753978 0.276389 0)
(0.0540933 0.280787 0)
(0.0323937 0.283839 0)
(0.0109314 0.288896 0)
(3 -5.19962e-18 0)
(3 1.50644e-16 0)
(3 2.20435e-16 0)
(3 9.7155e-17 0)
(3 -8.40723e-16 0)
(3 -1.07155e-15 0)
(3 -1.16715e-15 0)
(3 -1.05525e-15 0)
(3 -1.38942e-15 0)
(3 -1.37771e-15 0)
(3 -7.60501e-16 0)
(3 -4.08608e-17 0)
(3 7.16181e-16 0)
(3 7.483e-16 0)
(3 1.67527e-16 0)
(3 -1.66505e-16 0)
(3 2.90016e-16 0)
(3 5.45971e-16 0)
(3 2.90815e-16 0)
(3 -3.18074e-16 0)
(3 -1.4169e-15 0)
(3 -1.75811e-15 0)
(3 -1.43316e-15 0)
(3 -1.42589e-15 0)
(3 -1.07937e-15 0)
(3 -6.89418e-16 0)
(3 4.51783e-16 0)
(3 1.17387e-15 0)
(3 1.49222e-15 0)
(3 1.4257e-15 0)
(3 1.21627e-15 0)
(3 5.39805e-16 0)
(3 5.11802e-16 0)
(3 1.38976e-16 0)
(3 -1.0081e-16 0)
(3 9.47323e-17 0)
(3 1.51421e-15 0)
(3 2.35504e-15 0)
(3 2.03492e-15 0)
(3 9.88397e-16 0)
(3 6.56096e-16 0)
(3 5.37412e-16 0)
(3 1.05718e-15 0)
(3 1.50471e-15 0)
(3 1.45448e-15 0)
(3 1.27129e-15 0)
(3 1.14006e-15 0)
(3 9.18875e-16 0)
(3 5.97291e-14 0)
(2.21701 0.188241 0)
(0.864766 0.205084 0)
(0.761182 0.204868 0)
(0.74738 0.209422 0)
(0.732644 0.210347 0)
(0.71762 0.209465 0)
(0.701657 0.206653 0)
(0.68567 0.20291 0)
(0.670324 0.200474 0)
(0.655833 0.201269 0)
(0.64204 0.205575 0)
(0.628181 0.2119 0)
(0.613201 0.217158 0)
(0.597253 0.218526 0)
(0.58157 0.216168 0)
(0.566503 0.213739 0)
(0.551924 0.214672 0)
(0.538118 0.219848 0)
(0.524484 0.226913 0)
(0.509727 0.231355 0)
(0.494668 0.231394 0)
(0.479837 0.231783 0)
(0.46582 0.235877 0)
(0.452241 0.241755 0)
(0.438113 0.246398 0)
(0.423687 0.250146 0)
(0.409146 0.254657 0)
(0.394322 0.260011 0)
(0.378973 0.265463 0)
(0.363158 0.270847 0)
(0.346972 0.276383 0)
(0.330286 0.281928 0)
(0.31295 0.287317 0)
(0.294869 0.292465 0)
(0.275994 0.297257 0)
(0.25633 0.301674 0)
(0.235894 0.30568 0)
(0.214759 0.309341 0)
(0.193044 0.312722 0)
(0.170859 0.315494 0)
(0.148378 0.318009 0)
(0.12566 0.319846 0)
(0.102779 0.3219 0)
(0.0797514 0.323377 0)
(0.0570621 0.327351 0)
(0.0341259 0.33003 0)
(0.0115337 0.33511 0)
(3 1.78537e-17 0)
(3 -1.01679e-16 0)
(3 -2.4398e-16 0)
(3 -2.16497e-16 0)
(3 -3.30926e-17 0)
(3 -4.19585e-16 0)
(3 -6.1304e-16 0)
(3 -9.24662e-16 0)
(3 -1.03215e-15 0)
(3 -1.01075e-15 0)
(3 -1.08604e-15 0)
(3 -1.51351e-15 0)
(3 -1.12409e-15 0)
(3 -9.40931e-16 0)
(3 -8.4796e-16 0)
(3 -5.69398e-16 0)
(3 -3.31667e-16 0)
(3 6.31894e-17 0)
(3 9.27797e-17 0)
(3 -8.00121e-16 0)
(3 -1.48212e-15 0)
(3 -1.74021e-15 0)
(3 -1.76093e-15 0)
(3 -1.83574e-15 0)
(3 -1.56413e-15 0)
(3 -1.02856e-15 0)
(3 -7.84955e-16 0)
(3 -1.39524e-15 0)
(3 -1.53977e-15 0)
(3 -1.23037e-15 0)
(3 -3.83054e-16 0)
(3 1.80147e-16 0)
(3 6.23869e-16 0)
(3 3.38247e-16 0)
(3 -1.80847e-16 0)
(3 -6.30474e-16 0)
(3 -4.32473e-16 0)
(3 -2.62133e-16 0)
(3 1.13696e-16 0)
(3 1.22508e-16 0)
(3 -3.56503e-17 0)
(3 6.30171e-16 0)
(3 1.29894e-15 0)
(3 1.20861e-15 0)
(3 1.03948e-15 0)
(3 1.08864e-15 0)
(3 1.18537e-15 0)
(3 9.5066e-16 0)
(3 8.40211e-16 0)
(2.73374 0.157748 0)
(0.974587 0.249699 0)
(0.783104 0.232976 0)
(0.77415 0.227125 0)
(0.758584 0.229904 0)
(0.743815 0.2328 0)
(0.727463 0.233486 0)
(0.710824 0.231131 0)
(0.694554 0.227848 0)
(0.6787 0.227129 0)
(0.663527 0.230839 0)
(0.649 0.238091 0)
(0.633956 0.245381 0)
(0.617807 0.248728 0)
(0.601529 0.247227 0)
(0.585594 0.244204 0)
(0.569813 0.24412 0)
(0.554853 0.248891 0)
(0.540595 0.256554 0)
(0.525254 0.262343 0)
(0.509102 0.263228 0)
(0.49297 0.26299 0)
(0.477522 0.266454 0)
(0.463079 0.272785 0)
(0.448329 0.278296 0)
(0.433216 0.282272 0)
(0.418054 0.286792 0)
(0.402823 0.29258 0)
(0.387246 0.298912 0)
(0.371313 0.305311 0)
(0.355219 0.311978 0)
(0.338927 0.318895 0)
(0.322264 0.325876 0)
(0.305051 0.332783 0)
(0.287114 0.33945 0)
(0.268331 0.345776 0)
(0.248601 0.351631 0)
(0.227897 0.356965 0)
(0.206287 0.361885 0)
(0.183795 0.366024 0)
(0.160587 0.369771 0)
(0.136633 0.372576 0)
(0.112122 0.375333 0)
(0.087105 0.376772 0)
(0.0623064 0.38053 0)
(0.0372331 0.382868 0)
(0.0126165 0.388016 0)
(3 -9.99845e-17 0)
(3 -2.22987e-16 0)
(3 -2.64599e-16 0)
(3 -1.39857e-16 0)
(3 7.51264e-18 0)
(3 6.7744e-17 0)
(3 -1.69696e-16 0)
(3 -6.13453e-16 0)
(3 -1.72376e-16 0)
(3 1.27972e-16 0)
(3 1.38e-16 0)
(3 -3.39313e-16 0)
(3 -1.37485e-15 0)
(3 -2.00705e-15 0)
(3 -2.26549e-15 0)
(3 -2.38019e-15 0)
(3 -2.08833e-15 0)
(3 -1.59845e-15 0)
(3 -1.44638e-15 0)
(3 -1.19033e-15 0)
(3 -9.2729e-16 0)
(3 -1.14174e-15 0)
(3 -1.31081e-15 0)
(3 -1.0288e-15 0)
(3 -1.11498e-15 0)
(3 -1.20775e-15 0)
(3 -8.48019e-16 0)
(3 -1.29684e-15 0)
(3 -1.71775e-15 0)
(3 -1.70113e-15 0)
(3 -1.29715e-15 0)
(3 -4.05691e-16 0)
(3 7.32208e-16 0)
(3 9.10923e-16 0)
(3 7.27097e-16 0)
(3 8.4895e-17 0)
(3 -8.67875e-16 0)
(3 -1.65753e-15 0)
(3 -1.90189e-15 0)
(3 -6.30443e-16 0)
(3 -3.43961e-17 0)
(3 1.46966e-16 0)
(3 -2.12359e-16 0)
(3 -4.02312e-16 0)
(3 -8.71553e-16 0)
(3 -3.86095e-16 0)
(3 -1.61933e-16 0)
(3 1.02312e-15 0)
(3 1.5437e-15 0)
(3.01754 0.00806718 0)
(1.1693 0.277162 0)
(0.805816 0.233033 0)
(0.793686 0.249014 0)
(0.779527 0.257555 0)
(0.764682 0.262327 0)
(0.750001 0.264049 0)
(0.735208 0.262501 0)
(0.720217 0.259242 0)
(0.704869 0.257202 0)
(0.689598 0.259152 0)
(0.675231 0.265308 0)
(0.661179 0.272776 0)
(0.646181 0.277545 0)
(0.630442 0.277758 0)
(0.614577 0.275233 0)
(0.598469 0.274307 0)
(0.582798 0.278096 0)
(0.568184 0.285824 0)
(0.552909 0.293223 0)
(0.536221 0.296205 0)
(0.519152 0.296074 0)
(0.502357 0.2986 0)
(0.486784 0.304995 0)
(0.471298 0.311743 0)
(0.455218 0.316614 0)
(0.438914 0.321347 0)
(0.422555 0.327475 0)
(0.40596 0.334597 0)
(0.389031 0.341946 0)
(0.372022 0.349594 0)
(0.355049 0.357689 0)
(0.337973 0.366124 0)
(0.320558 0.374775 0)
(0.30251 0.383475 0)
(0.283564 0.392105 0)
(0.263481 0.400517 0)
(0.242103 0.408464 0)
(0.219567 0.416017 0)
(0.195944 0.422628 0)
(0.171532 0.428553 0)
(0.146324 0.433214 0)
(0.120321 0.437307 0)
(0.0937748 0.43925 0)
(0.0670059 0.442879 0)
(0.0399735 0.44469 0)
(0.0134136 0.449674 0)
(3 -3.51563e-17 0)
(3 1.52447e-17 0)
(3 1.11687e-16 0)
(3 9.41048e-17 0)
(3 3.35213e-16 0)
(3 5.68825e-16 0)
(3 6.09794e-16 0)
(3 7.85457e-16 0)
(3 7.16268e-16 0)
(3 2.57902e-16 0)
(3 2.89549e-16 0)
(3 6.16461e-16 0)
(3 5.3132e-19 0)
(3 -3.38007e-16 0)
(3 -4.49534e-16 0)
(3 -8.78412e-16 0)
(3 -1.58628e-15 0)
(3 -1.85419e-15 0)
(3 -1.81412e-15 0)
(3 -1.16578e-15 0)
(3 -8.14221e-16 0)
(3 -6.22512e-16 0)
(3 -5.16754e-16 0)
(3 2.87609e-16 0)
(3 2.26158e-16 0)
(3 -3.6506e-16 0)
(3 -5.65934e-16 0)
(3 -3.7247e-16 0)
(3 1.8954e-16 0)
(3 2.32767e-16 0)
(3 5.02749e-16 0)
(3 6.88877e-16 0)
(3 6.96069e-16 0)
(3 6.81484e-16 0)
(3 5.57048e-16 0)
(3 4.31001e-16 0)
(3 -2.43088e-17 0)
(3 -4.56292e-16 0)
(3 -9.63969e-16 0)
(3 -1.37338e-15 0)
(3 -1.39805e-15 0)
(3 -1.51099e-15 0)
(3 -1.76273e-15 0)
(3 -1.661e-15 0)
(3 -1.29034e-15 0)
(3 -1.02736e-15 0)
(3 -4.2084e-16 0)
(3 6.40892e-16 0)
(3 2.2905e-15 0)
(3.00021 9.01066e-06 0)
(1.59989 0.310106 0)
(0.826373 0.276296 0)
(0.77788 0.279033 0)
(0.766193 0.287454 0)
(0.753331 0.290269 0)
(0.741752 0.29227 0)
(0.729682 0.292912 0)
(0.716927 0.292192 0)
(0.703432 0.291247 0)
(0.689556 0.292465 0)
(0.676231 0.297297 0)
(0.663765 0.304537 0)
(0.650958 0.310808 0)
(0.63726 0.313269 0)
(0.623171 0.31238 0)
(0.608653 0.311635 0)
(0.594067 0.314465 0)
(0.580431 0.32159 0)
(0.566944 0.330092 0)
(0.551926 0.335376 0)
(0.536022 0.336299 0)
(0.519918 0.337935 0)
(0.504749 0.343578 0)
(0.490195 0.351048 0)
(0.474891 0.357079 0)
(0.458938 0.362124 0)
(0.44268 0.368222 0)
(0.42615 0.375645 0)
(0.409194 0.383599 0)
(0.392007 0.391923 0)
(0.374848 0.400886 0)
(0.357712 0.410501 0)
(0.340438 0.420664 0)
(0.322775 0.431227 0)
(0.304429 0.44209 0)
(0.285111 0.45311 0)
(0.264471 0.463781 0)
(0.242562 0.474056 0)
(0.219284 0.483264 0)
(0.194821 0.491637 0)
(0.16891 0.498969 0)
(0.14119 0.506234 0)
(0.111366 0.511625 0)
(0.0799514 0.517265 0)
(0.0475826 0.519608 0)
(0.0157552 0.524263 0)
(3 1.74996e-17 0)
(3 1.17476e-16 0)
(3 2.52087e-16 0)
(3 1.50582e-16 0)
(3 7.79783e-16 0)
(3 1.10373e-15 0)
(3 1.22922e-15 0)
(3 1.19776e-15 0)
(3 8.9907e-16 0)
(3 5.84477e-16 0)
(3 3.33917e-16 0)
(3 5.11235e-16 0)
(3 4.92317e-16 0)
(3 6.73045e-16 0)
(3 8.05203e-16 0)
(3 6.18718e-16 0)
(3 4.90024e-16 0)
(3 -7.8129e-16 0)
(3 -9.74298e-16 0)
(3 -1.04218e-15 0)
(3 -8.20634e-16 0)
(3 -2.54321e-16 0)
(3 -9.96209e-17 0)
(3 -8.53216e-16 0)
(3 -9.35662e-16 0)
(3 -9.76762e-16 0)
(3 -8.46906e-16 0)
(3 2.26962e-16 0)
(3 1.01039e-15 0)
(3 5.97689e-16 0)
(3 2.38314e-16 0)
(3 -4.51816e-16 0)
(3 -5.96074e-16 0)
(3 -5.66073e-16 0)
(3 -5.51647e-16 0)
(3 -8.29069e-18 0)
(3 2.19622e-16 0)
(3 -4.22713e-18 0)
(3 -1.62005e-16 0)
(3 -5.95995e-16 0)
(3 -1.6812e-15 0)
(3 -1.76763e-15 0)
(3 -1.50004e-15 0)
(3 -7.46814e-16 0)
(3 4.67119e-17 0)
(3 5.026e-16 0)
(3 8.42978e-16 0)
(3 1.18635e-15 0)
(3 4.65702e-16 0)
(3 1.60925e-08 0)
(2.43867 0.270426 0)
(0.931649 0.336494 0)
(0.79347 0.317668 0)
(0.780665 0.311788 0)
(0.766187 0.314543 0)
(0.754259 0.317829 0)
(0.742274 0.320938 0)
(0.729858 0.322908 0)
(0.716904 0.323406 0)
(0.703618 0.324001 0)
(0.690528 0.327034 0)
(0.678348 0.332869 0)
(0.6666 0.339429 0)
(0.654192 0.343834 0)
(0.641111 0.345107 0)
(0.627547 0.345326 0)
(0.613657 0.347657 0)
(0.600278 0.353895 0)
(0.587747 0.362847 0)
(0.574409 0.370584 0)
(0.559762 0.374047 0)
(0.54459 0.376007 0)
(0.529798 0.381036 0)
(0.515976 0.3891 0)
(0.501755 0.397115 0)
(0.486539 0.403718 0)
(0.470703 0.410531 0)
(0.454474 0.418587 0)
(0.437794 0.427542 0)
(0.420666 0.436944 0)
(0.403402 0.447066 0)
(0.386019 0.458019 0)
(0.368547 0.469818 0)
(0.350811 0.482377 0)
(0.332591 0.495671 0)
(0.313265 0.509747 0)
(0.292163 0.524125 0)
(0.269117 0.538752 0)
(0.243877 0.553102 0)
(0.216499 0.567233 0)
(0.187142 0.580789 0)
(0.156392 0.594269 0)
(0.124299 0.60595 0)
(0.0907839 0.614886 0)
(0.0555768 0.618915 0)
(0.0176008 0.621706 0)
(3 4.22649e-17 0)
(3 5.21787e-17 0)
(3 1.27589e-16 0)
(3 3.81242e-16 0)
(3 4.17542e-16 0)
(3 2.33543e-16 0)
(3 5.3036e-17 0)
(3 -3.81615e-16 0)
(3 -3.89126e-16 0)
(3 -1.1536e-16 0)
(3 3.02146e-16 0)
(3 4.55346e-16 0)
(3 8.59932e-16 0)
(3 1.57891e-15 0)
(3 1.69132e-15 0)
(3 1.72556e-15 0)
(3 1.58961e-15 0)
(3 1.05161e-15 0)
(3 3.76523e-16 0)
(3 -5.66079e-18 0)
(3 1.54898e-16 0)
(3 3.09265e-16 0)
(3 5.58557e-16 0)
(3 8.91526e-16 0)
(3 9.1694e-16 0)
(3 1.11932e-15 0)
(3 5.75275e-16 0)
(3 2.27666e-16 0)
(3 3.24127e-16 0)
(3 -2.92376e-16 0)
(3 -1.71927e-15 0)
(3 -2.0637e-15 0)
(3 -1.72178e-15 0)
(3 -1.065e-15 0)
(3 -5.43773e-16 0)
(3 -2.39942e-16 0)
(3 1.43213e-16 0)
(3 1.93866e-16 0)
(3 4.83817e-16 0)
(3 7.88783e-16 0)
(3 7.34983e-16 0)
(3 3.53043e-16 0)
(3 -5.85979e-17 0)
(3 -8.96599e-16 0)
(3 -1.23307e-15 0)
(3 -1.30311e-15 0)
(3 -1.56947e-15 0)
(3 -1.90753e-15 0)
(3 -1.80447e-15 0)
(3 -4.07804e-09 0)
(3.02697 0.0149464 0)
(1.27867 0.377486 0)
(0.840951 0.32849 0)
(0.818025 0.335955 0)
(0.80423 0.336093 0)
(0.789986 0.338807 0)
(0.77681 0.343923 0)
(0.763318 0.348802 0)
(0.749414 0.351635 0)
(0.735376 0.352723 0)
(0.721469 0.354476 0)
(0.708229 0.358752 0)
(0.695869 0.365084 0)
(0.68355 0.371344 0)
(0.670539 0.375605 0)
(0.656961 0.37803 0)
(0.643095 0.380766 0)
(0.629436 0.386118 0)
(0.616745 0.394572 0)
(0.60442 0.403746 0)
(0.591046 0.410277 0)
(0.57683 0.413906 0)
(0.562545 0.418623 0)
(0.549097 0.426617 0)
(0.535969 0.436338 0)
(0.521907 0.445408 0)
(0.506974 0.453956 0)
(0.491508 0.463102 0)
(0.475714 0.473296 0)
(0.459293 0.484121 0)
(0.442619 0.49569 0)
(0.425717 0.508393 0)
(0.408443 0.52222 0)
(0.391301 0.537356 0)
(0.373786 0.553704 0)
(0.355515 0.571577 0)
(0.335752 0.590739 0)
(0.314219 0.611069 0)
(0.290825 0.632026 0)
(0.265712 0.652826 0)
(0.239065 0.67235 0)
(0.210419 0.689282 0)
(0.179617 0.705221 0)
(0.142943 0.723434 0)
(0.0967182 0.744846 0)
(0.0366466 0.76377 0)
(3 -1.10155e-16 0)
(3 -3.72369e-17 0)
(3 7.58576e-17 0)
(3 1.89373e-16 0)
(3 -2.28526e-16 0)