/*--------------------------------*- C++ -*----------------------------------*\
  =========                 |
  \\      /  F ield         | OpenFOAM: The Open Source CFD Toolbox
   \\    /   O peration     | Website:  https://openfoam.org
    \\  /    A nd           | Version:  7
     \\/     M anipulation  |
\*---------------------------------------------------------------------------*/
FoamFile
{
    version     2.0;
    format      ascii;
    class       volScalarField;
    location    "8.2";
    object      T;
}
// * * * * * * * * * * * * * * * * * * * * * * * * * * * * * * * * * * * * * //

dimensions      [0 0 0 1 0 0 0];

internalField   nonuniform List<scalar> 
19968
(
1
1
1
1
1
1
1
1
1
1
1
1
1
1
1
1
1
1
1
1
1
1
1
1
1
1
1
1
1
1
1
1
1
1
1
1
1
1
1
1
1
1
1
1
1
1
1
1
1.26796
2.45131
2.69106
2.69545
2.6995
2.70205
2.70437
2.70722
2.7113
2.71665
2.72259
2.72804
2.73227
2.73527
2.73763
2.73994
2.74252
2.74556
2.74913
2.75298
2.75671
2.76001
2.76284
2.76535
2.76779
2.77033
2.77302
2.77577
2.77843
2.78085
2.78298
2.78486
2.78653
2.78805
2.78949
2.79092
2.79241
2.794
2.79564
2.79724
2.79869
2.79993
2.80096
2.80179
2.80247
2.80301
2.80344
2.80374
1
1
1
1
1
1
1
1
1
1
1
1
1
1
1
1
1
1
1
1
1
1
1
1
1
1
1
1
1
1
1
1
1
1
1
1
1
1
1
1
1
1
1
1
1
1
1
1
1.25606
2.44576
2.69094
2.69518
2.69929
2.70188
2.70423
2.70712
2.71122
2.71655
2.72241
2.72778
2.73195
2.73498
2.73737
2.73971
2.7423
2.74536
2.74892
2.75275
2.75645
2.75974
2.76256
2.76506
2.76749
2.77002
2.77269
2.77543
2.77807
2.78048
2.78262
2.78451
2.7862
2.78776
2.78924
2.7907
2.7922
2.79377
2.79536
2.79689
2.79828
2.79948
2.80049
2.80132
2.80201
2.80253
2.80294
2.80322
1
1
1
1
1
1
1
1
1
1
1
1
1
1
1
1
1
1
1
1
1
1
1
1
1
1
1
1
1
1
1
1
1
1
1
1
1
1
1
1
1
1
1
1
1
1
1
1
1.22636
2.43049
2.69067
2.69413
2.69818
2.70094
2.7036
2.70676
2.71097
2.71621
2.72185
2.72701
2.73108
2.73418
2.73668
2.73915
2.74182
2.74492
2.74847
2.75225
2.7559
2.75914
2.76195
2.76446
2.7669
2.76943
2.7721
2.77481
2.77742
2.77982
2.78196
2.78387
2.7856
2.7872
2.78873
2.79023
2.79176
2.79332
2.79487
2.79633
2.79765
2.7988
2.79979
2.80062
2.80131
2.80184
2.80222
2.80247
1
1
1
1
1
1
1
1
1
1
1
1
1
1
1
1
1
1
1
1
1
1
1
1
1
1
1
1
1
1
1
1
1
1
1
1
1
1
1
1
1
1
1
1
1
1
1
1
1.18231
2.40488
2.68988
2.69278
2.69659
2.6998
2.70311
2.70673
2.71101
2.71592
2.72109
2.7259
2.72983
2.73305
2.73576
2.73843
2.74123
2.74439
2.74791
2.7516
2.75513
2.75829
2.76108
2.76362
2.76609
2.76863
2.77128
2.77395
2.77652
2.7789
2.78105
2.78299
2.78477
2.78642
2.78799
2.78952
2.79103
2.79253
2.79398
2.79532
2.79653
2.79761
2.79859
2.79944
2.80017
2.80072
2.80111
2.80135
1
1
1
1
1
1
1
1
1
1
1
1
1
1
1
1
1
1
1
1
1
1
1
1
1
1
1
1
1
1
1
1
1
1
1
1
1
1
1
1
1
1
1
1
1
1
1
1
1.12409
2.36891
2.68822
2.69144
2.69519
2.69889
2.70279
2.70683
2.71112
2.7156
2.72017
2.72454
2.72833
2.73172
2.73473
2.73771
2.74071
2.74395
2.74739
2.75091
2.75424
2.75727
2.76001
2.76259
2.76512
2.76769
2.77032
2.77294
2.77547
2.77783
2.78001
2.78201
2.78385
2.78556
2.78718
2.78873
2.79022
2.79165
2.79296
2.79414
2.79519
2.79613
2.797
2.79779
2.79848
2.799
2.79935
2.79957
1
1
1
1
1
1
1
1
1
1
1
1
1
1
1
1
1
1
1
1
1
1
1
1
1
1
1
1
1
1
1
1
1
1
1
1
1
1
1
1
1
1
1
1
1
1
1
1
1.01359
2.30399
2.68619
2.69069
2.69489
2.69924
2.70352
2.70776
2.71186
2.71581
2.71957
2.72328
2.72686
2.73042
2.73383
2.73722
2.74047
2.74374
2.74698
2.75015
2.75312
2.75589
2.75852
2.76109
2.76366
2.76624
2.76881
2.77134
2.77377
2.77609
2.77826
2.78029
2.78219
2.78395
2.78559
2.78715
2.78862
2.78999
2.79122
2.79231
2.79327
2.79415
2.79499
2.79578
2.79647
2.79701
2.79738
2.7976
1
1
1
1
1
1
1
1
1
1
1
1
1
1
1
1
1
1
1
1
1
1
1
1
1
1
1
1
1
1
1
1
1
1
1
1
1
1
1
1
1
1
1
1
1
1
1
1
1.00009
2.21634
2.68142
2.68727
2.6914
2.69615
2.70063
2.70499
2.70911
2.7129
2.71632
2.71965
2.72314
2.72688
2.73074
2.73462
2.73827
2.74174
2.74494
2.74789
2.75059
2.75316
2.75573
2.75838
2.76107
2.76374
2.76633
2.76881
2.77119
2.77347
2.77567
2.77778
2.77976
2.78159
2.78326
2.7848
2.78623
2.78754
2.7887
2.78971
2.7906
2.7914
2.79218
2.79294
2.79363
2.79419
2.79457
2.79481
1
1
1
1
1
1
1
1
1
1
1
1
1
1
1
1
1
1
1
1
1
1
1
1
1
1
1
1
1
1
1
1
1
1
1
1
1
1
1
1
1
1
1
1
1
1
1
1
1
2.08777
2.6706
2.68459
2.68896
2.69372
2.69794
2.70198
2.70588
2.70961
2.71314
2.71654
2.72008
2.72383
2.72776
2.73175
2.73556
2.73919
2.74245
2.74533
2.74788
2.7503
2.75282
2.75551
2.75831
2.76106
2.76365
2.76608
2.76838
2.7706
2.77278
2.77491
2.77694
2.7788
2.78047
2.78197
2.78333
2.78455
2.78561
2.78652
2.78731
2.78804
2.78876
2.78948
2.79015
2.79073
2.79114
2.79142
1
1
1
1
1
1
1
1
1
1
1
1
1
1
1
1
1
1
1
1
1
1
1
1
1
1
1
1
1
1
1
1
1
1
1
1
1
1
1
1
1
1
1
1
1
1
1
1
1
1.90842
2.63973
2.67885
2.68405
2.68907
2.69325
2.69714
2.70091
2.70473
2.70861
2.71241
2.7162
2.72002
2.72389
2.72777
2.73154
2.73524
2.7386
2.7415
2.74402
2.74636
2.74885
2.75156
2.75442
2.75721
2.7598
2.76217
2.7644
2.76656
2.76871
2.77082
2.77285
2.77472
2.77639
2.77787
2.77919
2.78034
2.78133
2.78218
2.78291
2.78359
2.78427
2.78497
2.78564
2.78626
2.7867
2.78704
1
1
1
1
1
1
1
1
1
1
1
1
1
1
1
1
1
1
1
1
1
1
1
1
1
1
1
1
1
1
1
1
1
1
1
1
1
1
1
1
1
1
1
1
1
1
1
1
1
1.67434
2.58027
2.67178
2.67875
2.68427
2.68856
2.69221
2.69566
2.69938
2.70358
2.70788
2.71202
2.71593
2.71967
2.72332
2.72692
2.73056
2.73397
2.73693
2.73951
2.74187
2.7443
2.74695
2.74974
2.75246
2.75496
2.75724
2.75938
2.76144
2.7635
2.76554
2.76753
2.76938
2.77107
2.77258
2.7739
2.77502
2.77595
2.7767
2.77734
2.77791
2.77849
2.77911
2.77973
2.78035
2.78079
2.78116
1
1
1
1
1
1
1
1
1
1
1
1
1
1
1
1
1
1
1
1
1
1
1
1
1
1
1
1
1
1
1
1
1
1
1
1
1
1
1
1
1
1
1
1
1
1
1
1
1
1.36972
2.47539
2.66926
2.67321
2.68023
2.68405
2.68737
2.69049
2.69401
2.69826
2.70288
2.70725
2.7112
2.71482
2.71825
2.72163
2.72514
2.72857
2.73159
2.73428
2.73671
2.73915
2.74172
2.7444
2.74703
2.74947
2.7517
2.75375
2.75569
2.75757
2.7594
2.76116
2.76282
2.76434
2.7657
2.76687
2.76782
2.76859
2.76921
2.76975
2.77027
2.77083
2.77146
2.77212
2.77278
2.77325
2.77365
1
1
1
1
1
1
1
1
1
1
1
1
1
1
1
1
1
1
1
1
1
1
1
1
1
1
1
1
1
1
1
1
1
1
1
1
1
1
1
1
1
1
1
1
1
1
1
1
1
1.01497
2.29424
2.67723
2.67853
2.68068
2.6832
2.68605
2.68894
2.69196
2.69538
2.69914
2.7028
2.70627
2.70951
2.71256
2.71553
2.71865
2.72184
2.72476
2.72741
2.72983
2.73213
2.73451
2.73697
2.73946
2.74184
2.74406
2.7461
2.74799
2.74976
2.75144
2.75306
2.7546
2.75605
2.75736
2.75848
2.75937
2.76004
2.7605
2.76079
2.761
2.7612
2.76143
2.76172
2.76206
2.76231
2.76256
1
1
1
1
1
1
1
1
1
1
1
1
1
1
1
1
1
1
1
1
1
1
1
1
1
1
1
1
1
1
1
1
1
1
1
1
1
1
1
1
1
1
1
1
1
1
1
1
1
1.00003
2.01656
2.64523
2.66158
2.66602
2.67129
2.67575
2.67969
2.68323
2.68666
2.69018
2.69359
2.69686
2.70001
2.70306
2.70605
2.7091
2.71224
2.7152
2.71786
2.72026
2.72248
2.7247
2.727
2.72939
2.73177
2.73405
2.73613
2.73797
2.73961
2.7411
2.74251
2.74386
2.74509
2.74613
2.74687
2.74731
2.74748
2.74743
2.74723
2.74706
2.74704
2.74721
2.74744
2.74768
2.7477
2.7478
1
1
1
1
1
1
1
1
1
1
1
1
1
1
1
1
1
1
1
1
1
1
1
1
1
1
1
1
1
1
1
1
1
1
1
1
1
1
1
1
1
1
1
1
1
1
1
1
1
1
1.5477
2.51633
2.64576
2.65318
2.66183
2.66751
2.67211
2.67609
2.67973
2.6832
2.68648
2.68958
2.6926
2.69561
2.69859
2.70151
2.70437
2.70703
2.70931
2.71132
2.71317
2.715
2.71694
2.71903
2.72119
2.72327
2.72513
2.72668
2.72792
2.72897
2.72996
2.73094
2.73184
2.73254
2.73293
2.733
2.73285
2.73251
2.73198
2.73134
2.73055
2.7296
2.72808
2.72587
2.72323
2.72106
1
1
1
1
1
1
1
1
1
1
1
1
1
1
1
1
1
1
1
1
1
1
1
1
1
1
1
1
1
1
1
1
1
1
1
1
1
1
1
1
1
1
1
1
1
1
1
1
1
1
1.02826
2.25494
2.65578
2.65473
2.65614
2.6596
2.66362
2.66771
2.67139
2.6745
2.67722
2.67983
2.68258
2.68556
2.68864
2.6916
2.69427
2.69656
2.69842
2.69996
2.70137
2.70275
2.70425
2.706
2.70792
2.70976
2.71136
2.71257
2.71323
2.71359
2.71387
2.7142
2.7145
2.71457
2.71427
2.71342
2.71199
2.71003
2.70746
2.70426
2.70059
2.69671
2.6932
2.68969
2.68729
2.68603
1
1
1
1
1
1
1
1
1
1
1
1
1
1
1
1
1
1
1
1
1
1
1
1
1
1
1
1
1
1
1
1
1
1
1
1
1
1
1
1
1
1
1
1
1
1
1
1
1
1
1.00005
1.76847
2.56016
2.63236
2.63892
2.64435
2.64931
2.65395
2.65791
2.66127
2.66421
2.6671
2.67019
2.6735
2.6769
2.68009
2.68282
2.68495
2.68649
2.6876
2.6885
2.68932
2.69021
2.69138
2.69285
2.69447
2.69583
2.69638
2.69629
2.69574
2.69486
2.69399
2.69319
2.6922
2.69071
2.6885
2.68554
2.68186
2.67747
2.67234
2.66647
2.66024
2.65434
2.65204
2.64965
2.66432
1
1
1
1
1
1
1
1
1
1
1
1
1
1
1
1
1
1
1
1
1
1
1
1
1
1
1
1
1
1
1
1
1
1
1
1
1
1
1
1
1
1
1
1
1
1
1
1
1
1
1
1.11624
2.34188
2.63091
2.62992
2.63272
2.6376
2.64236
2.64646
2.65
2.653
2.65585
2.65888
2.66221
2.66572
2.66906
2.67179
2.67372
2.67492
2.67571
2.67624
2.67665
2.67707
2.67757
2.67832
2.67945
2.68039
2.68045
2.67991
2.67847
2.67635
2.67406
2.67183
2.6694
2.66636
2.66237
2.65715
2.65057
2.64212
2.63121
2.61599
2.59509
2.56449
2.52165
2.45843
2.33129
1
1
1
1
1
1
1
1
1
1
1
1
1
1
1
1
1
1
1
1
1
1
1
1
1
1
1
1
1
1
1
1
1
1
1
1
1
1
1
1
1
1
1
1
1
1
1
1
1
1
1
1.00111
2.01267
2.59638
2.61428
2.61832
2.62338
2.62816
2.63218
2.6357
2.63897
2.64217
2.64564
2.64945
2.65342
2.6571
2.65999
2.66191
2.66311
2.66392
2.66452
2.665
2.66532
2.6654
2.66541
2.66566
2.66604
2.66584
2.66491
2.66285
2.65978
2.65621
2.65246
2.64844
2.64368
2.63779
2.63015
2.62063
2.60808
2.59205
2.56945
2.53883
2.4937
2.43477
2.32336
2.16098
1
1
1
1
1
1
1
1
1
1
1
1
1
1
1
1
1
1
1
1
1
1
1
1
1
1
1
1
1
1
1
1
1
1
1
1
1
1
1
1
1
1
1
1
1
1
1
1
1
1
1
0.999999
1.38332
2.41855
2.6013
2.60437
2.61103
2.61716
2.62138
2.6245
2.62734
2.63012
2.63336
2.63714
2.64128
2.64522
2.64816
2.65004
2.65108
2.65169
2.65226
2.65287
2.65321
2.65308
2.65251
2.65189
2.65147
2.65079
2.64929
2.64656
2.6426
2.63783
2.6325
2.62677
2.62006
2.61212
2.60206
2.58971
2.5738
2.55352
2.5265
2.48954
2.4405
2.36667
2.26021
2.13097
1
1
1
1
1
1
1
1
1
1
1
1
1
1
1
1
1
1
1
1
1
1
1
1
1
1
1
1
1
1
1
1
1
1
1
1
1
1
1
1
1
1
1
1
1
1
1
1
1
1
1
1
1.01466
2.11006
2.59597
2.59586
2.59933
2.60527
2.61008
2.61315
2.61549
2.61753
2.62009
2.62355
2.62773
2.63178
2.63485
2.63675
2.63766
2.63806
2.63843
2.63899
2.63936
2.63919
2.63846
2.63741
2.63634
2.63506
2.63296
2.62961
2.62486
2.6191
2.61244
2.60514
2.59659
2.5866
2.57438
2.5596
2.54135
2.51841
2.48925
2.45057
2.40037
2.33288
2.24833
2.14551
1
1
1
1
1
1
1
1
1
1
1
1
1
1
1
1
1
1
1
1
1
1
1
1
1
1
1
1
1
1
1
1
1
1
1
1
1
1
1
1
1
1
1
1
1
1
1
1
1
1
1
1
1.00001
1.45173
2.43427
2.58564
2.59119
2.5974
2.6011
2.60311
2.60443
2.60554
2.60725
2.60999
2.61365
2.6174
2.62052
2.62252
2.62352
2.6239
2.62414
2.62439
2.62452
2.62426
2.62345
2.62224
2.62078
2.61901
2.61638
2.61252
2.60712
2.60055
2.5929
2.58436
2.57443
2.56279
2.54889
2.5323
2.5125
2.48841
2.45894
2.42133
2.37444
2.31796
2.25247
2.17056
1
1
1
1
1
1
1
1
1
1
1
1
1
1
1
1
1
1
1
1
1
1
1
1
1
1
1
1
1
1
1
1
1
1
1
1
1
1
1
1
1
1
1
1
1
1
1
1
1
1
1
1
1
1.02002
2.11652
2.58578
2.58814
2.59021
2.59195
2.59319
2.5938
2.59424
2.59527
2.59701
2.60001
2.60326
2.60612
2.60799
2.6088
2.60894
2.60898
2.60895
2.60876
2.60834
2.60752
2.60629
2.60458
2.60238
2.59926
2.59498
2.58916
2.58207
2.5738
2.56443
2.55368
2.54106
2.52616
2.50849
2.48789
2.46355
2.43492
2.4
2.35816
2.31153
2.25787
2.19337
1
1
1
1
1
1
1
1
1
1
1
1
1
1
1
1
1
1
1
1
1
1
1
1
1
1
1
1
1
1
1
1
1
1
1
1
1
1
1
1
1
1
1
1
1
1
1
1
1
1
1
1
1
1.00002
1.41536
2.41519
2.57372
2.57856
2.58201
2.58334
2.58335
2.58317
2.58343
2.58439
2.58677
2.58926
2.59149
2.59297
2.59326
2.59313
2.59291
2.59262
2.59227
2.59179
2.59098
2.58971
2.58773
2.58503
2.5814
2.57678
2.57085
2.56365
2.55512
2.54534
2.53424
2.5214
2.50636
2.48854
2.46829
2.44395
2.4166
2.38483
2.34845
2.30756
2.26216
2.2112
1
1
1
1
1
1
1
1
1
1
1
1
1
1
1
1
1
1
1
1
1
1
1
1
1
1
1
1
1
1
1
1
1
1
1
1
1
1
1
1
1
1
1
1
1
1
1
1
1
1
1
1
1
1
1.0156
2.04225
2.55888
2.56891
2.571
2.57229
2.57322
2.57351
2.57412
2.57499
2.57674
2.57833
2.57964
2.58018
2.5797
2.5789
2.57781
2.57681
2.57604
2.57544
2.57463
2.5733
2.57102
2.56769
2.56335
2.55826
2.55234
2.5453
2.53686
2.52703
2.51587
2.50318
2.48853
2.47129
2.45211
2.42838
2.40279
2.37445
2.34154
2.30583
2.26758
2.22548
1
1
1
1
1
1
1
1
1
1
1
1
1
1
1
1
1
1
1
1
1
1
1
1
1
1
1
1
1
1
1
1
1
1
1
1
1
1
1
1
1
1
1
1
1
1
1
1
1
1
1
1
1
1
1.00002
1.24276
2.35172
2.56327
2.5612
2.56146
2.56178
2.56228
2.56307
2.56427
2.56574
2.56686
2.56751
2.56736
2.5665
2.56517
2.56329
2.56165
2.5604
2.55942
2.55833
2.55672
2.55407
2.55022
2.54522
2.53961
2.53357
2.52675
2.51873
2.50925
2.49843
2.48613
2.47229
2.45584
2.43788
2.41579
2.39248
2.36651
2.33655
2.3062
2.2729
2.23628
1
1
1
1
1
1
1
1
1
1
1
1
1
1
1
1
1
1
1
1
1
1
1
1
1
1
1
1
1
1
1
1
1
1
1
1
1
1
1
1
1
1
1
1
1
1
1
1
1
1
1
1
1
1
1
1.00423
1.86208
2.50626
2.53916
2.54349
2.54667
2.54819
2.54958
2.55142
2.55339
2.55482
2.55544
2.55518
2.55404
2.55218
2.54968
2.54755
2.5459
2.54433
2.54271
2.5407
2.53766
2.53347
2.52796
2.52177
2.51535
2.5085
2.50085
2.49192
2.48174
2.46995
2.45698
2.44107
2.4244
2.40442
2.38327
2.3594
2.33386
2.30693
2.27695
2.24469
1
1
1
1
1
1
1
1
1
1
1
1
1
1
1
1
1
1
1
1
1
1
1
1
1
1
1
1
1
1
1
1
1
1
1
1
1
1
1
1
1
1
1
1
1
1
1
1
1
1
1
1
1
1
1
1
1.10233
2.20857
2.53063
2.53521
2.53497
2.53488
2.53581
2.5378
2.54073
2.54286
2.54364
2.54341
2.54218
2.54003
2.53724
2.53469
2.53275
2.53062
2.52827
2.52569
2.52227
2.51781
2.51194
2.50534
2.49842
2.49117
2.48341
2.47483
2.46556
2.45439
2.44219
2.42717
2.41168
2.39344
2.37413
2.35291
2.3313
2.3061
2.27962
2.25147
1
1
1
1
1
1
1
1
1
1
1
1
1
1
1
1
1
1
1
1
1
1
1
1
1
1
1
1
1
1
1
1
1
1
1
1
1
1
1
1
1
1
1
1
1
1
1
1
1
1
1
1
1
1
1
1
1.00069
1.44882
2.36063
2.5136
2.51309
2.51622
2.51877
2.52201
2.5259
2.52897
2.5302
2.53008
2.52902
2.52694
2.52434
2.52175
2.51969
2.51738
2.51455
2.51137
2.50765
2.50297
2.49701
2.49025
2.48298
2.47532
2.46704
2.45847
2.44972
2.43908
2.42755
2.41394
2.39932
2.38254
2.36509
2.34639
2.32693
2.30369
2.28112
2.25637
1
1
1
1
1
1
1
1
1
1
1
1
1
1
1
1
1
1
1
1
1
1
1
1
1
1
1
1
1
1
1
1
1
1
1
1
1
1
1
1
1
1
1
1
1
1
1
1
1
1
1
1
1
1
1
1
1
1.01793
1.89187
2.46816
2.49733
2.50247
2.50585
2.50889
2.51239
2.51503
2.51594
2.51573
2.51481
2.51296
2.51071
2.50845
2.50634
2.5044
2.50153
2.49818
2.49425
2.48958
2.48372
2.47694
2.46945
2.46141
2.45291
2.44388
2.43466
2.42455
2.41347
2.40122
2.38742
2.37213
2.35637
2.33927
2.32111
2.30057
2.28084
2.25854
1
1
1
1
1
1
1
1
1
1
1
1
1
1
1
1
1
1
1
1
1
1
1
1
1
1
1
1
1
1
1
1
1
1
1
1
1
1
1
1
1
1
1
1
1
1
1
1
1
1
1
1
1
1
1
1
1
1.00003
1.11733
2.1203
2.47532
2.4967
2.49767
2.49924
2.5011
2.50207
2.50202
2.50136
2.50022
2.4985
2.49656
2.49458
2.49258
2.49104
2.48871
2.48564
2.48177
2.47709
2.47137
2.46455
2.45698
2.44878
2.44006
2.43087
2.42138
2.41147
2.40054
2.38911
2.37602
2.36214
2.34759
2.33165
2.31485
2.29692
2.27905
2.25838
1
1
1
1
1
1
1
1
1
1
1
1
1
1
1
1
1
1
1
1
1
1
1
1
1
1
1
1
1
1
1
1
1
1
1
1
1
1
1
1
1
1
1
1
1
1
1
1
1
1
1
1
1
1
1
1
1
1
1.00093
1.26631
2.26412
2.4813
2.48136
2.48315
2.48381
2.48419
2.48423
2.48407
2.48351
2.48266
2.4815
2.48002
2.47831
2.47698
2.47527
2.47267
2.46921
2.46475
2.4594
2.45272
2.44529
2.43715
2.42849
2.4195
2.41009
2.4003
2.38958
2.37844
2.36583
2.35297
2.33917
2.32422
2.30869
2.29256
2.27575
2.25707
1
1
1
1
1
1
1
1
1
1
1
1
1
1
1
1
1
1
1
1
1
1
1
1
1
1
1
1
1
1
1
1
1
1
1
1
1
1
1
1
1
1
1
1
1
1
1
1
1
1
1
1
1
1
1
1
1
1
1
1.00509
1.65679
2.37655
2.45874
2.45651
2.45826
2.46026
2.46218
2.46364
2.46455
2.46486
2.46481
2.46425
2.46319
2.46235
2.46109
2.45904
2.45609
2.45207
2.44696
2.44059
2.43355
2.42568
2.41731
2.40874
2.39971
2.39028
2.38002
2.36908
2.35705
2.34484
2.33156
2.31743
2.30295
2.28789
2.27187
2.25486
1
1
1
1
1
1
1
1
1
1
1
1
1
1
1
1
1
1
1
1
1
1
1
1
1
1
1
1
1
1
1
1
1
1
1
1
1
1
1
1
1
1
1
1
1
1
1
1
1
1
1
1
1
1
1
1
1
1
1
1.00001
1.04952
1.90769
2.41811
2.44489
2.44421
2.44586
2.44684
2.44765
2.44829
2.44867
2.44909
2.4489
2.44833
2.44773
2.44659
2.44473
2.44208
2.43845
2.43378
2.42782
2.42115
2.41397
2.40628
2.39823
2.38973
2.38082
2.37122
2.36078
2.34958
2.33797
2.32515
2.31169
2.29802
2.28355
2.26818
2.25242
1
1
1
1
1
1
1
1
1
1
1
1
1
1
1
1
1
1
1
1
1
1
1
1
1
1
1
1
1
1
1
1
1
1
1
1
1
1
1
1
1
1
1
1
1
1
1
1
1
1
1
1
1
1
1
1
1
1
1
1
1.00021
1.13258
2.02491
2.41305
2.43528
2.43748
2.43764
2.43704
2.4363
2.43557
2.43508
2.43436
2.43354
2.43255
2.43115
2.42923
2.42665
2.42328
2.41902
2.41369
2.4075
2.40116
2.39441
2.3871
2.37935
2.37114
2.36229
2.35263
2.3424
2.33152
2.31932
2.30662
2.29361
2.27958
2.26487
2.25004
1
1
1
1
1
1
1
1
1
1
1
1
1
1
1
1
1
1
1
1
1
1
1
1
1
1
1
1
1
1
1
1
1
1
1
1
1
1
1
1
1
1
1
1
1
1
1
1
1
1
1
1
1
1
1
1
1
1
1
1
1
1.00123
1.21202
2.1031
2.39979
2.42866
2.42787
2.42729
2.42622
2.42484
2.42357
2.42228
2.4208
2.41896
2.41681
2.41429
2.41129
2.40775
2.40364
2.39881
2.39332
2.38767
2.3817
2.37527
2.36842
2.36107
2.35306
2.34435
2.33505
2.32488
2.31349
2.30156
2.28914
2.27564
2.26182
2.24806
1
1
1
1
1
1
1
1
1
1
1
1
1
1
1
1
1
1
1
1
1
1
1
1
1
1
1
1
1
1
1
1
1
1
1
1
1
1
1
1
1
1
1
1
1
1
1
1
1
1
1
1
1
1
1
1
1
1
1
1
1
1
1.00317
1.29463
2.15658
2.38967
2.41044
2.41279
2.41278
2.41254
2.41174
2.41048
2.40862
2.40627
2.40353
2.40039
2.39684
2.3929
2.38862
2.38395
2.37894
2.37375
2.3683
2.36255
2.35652
2.35001
2.34283
2.33503
2.32653
2.31709
2.30664
2.29547
2.28383
2.27144
2.25922
2.24763
1
1
1
1
1
1
1
1
1
1
1
1
1
1
1
1
1
1
1
1
1
1
1
1
1
1
1
1
1
1
1
1
1
1
1
1
1
1
1
1
1
1
1
1
1
1
1
1
1
1
1
1
1
1
1
1
1
1
1
1
1
1
1
1.00644
1.37826
2.19535
2.37675
2.39101
2.39445
2.39558
2.3962
2.39579
2.39458
2.39275
2.39027
2.38717
2.38357
2.37954
2.37519
2.37057
2.36576
2.36074
2.35546
2.34996
2.34428
2.33821
2.33154
2.32442
2.31659
2.30795
2.29866
2.28886
2.27894
2.26914
2.2606
2.25286
1
1
1
1
1
1
1
1
1
1
1
1
1
1
1
1
1
1
1
1
1
1
1
1
1
1
1
1
1
1
1
1
1
1
1
1
1
1
1
1
1
1
1
1
1
1
1
1
1
1
1
1
1
1
1
1
1
1
1
1
1
1
1
1.00001
1.01168
1.45228
2.22668
2.3679
2.37039
2.37285
2.37422
2.37562
2.37586
2.37533
2.37402
2.37204
2.36938
2.36607
2.36222
2.35794
2.35334
2.3484
2.34319
2.33773
2.33208
2.3261
2.3196
2.3129
2.30572
2.29846
2.29128
2.28469
2.27994
2.27522
2.27266
2.2724
1
1
1
1
1
1
1
1
1
1
1
1
1
1
1
1
1
1
1
1
1
1
1
1
1
1
1
1
1
1
1
1
1
1
1
1
1
1
1
1
1
1
1
1
1
1
1
1
1
1
1
1
1
1
1
1
1
1
1
1
1
1
1
1
1.00003
1.01851
1.55227
2.25394
2.35389
2.35206
2.35305
2.35351
2.35413
2.35479
2.35483
2.35441
2.35324
2.35124
2.34841
2.3449
2.34073
2.33604
2.33106
2.3257
2.32003
2.31399
2.30765
2.302
2.29636
2.29282
2.29183
2.29209
2.29373
2.29586
2.30077
2.30324
1
1
1
1
1
1
1
1
1
1
1
1
1
1
1
1
1
1
1
1
1
1
1
1
1
1
1
1
1
1
1
1
1
1
1
1
1
1
1
1
1
1
1
1
1
1
1
1
1
1
1
1
1
1
1
1
1
1
1
1
1
1
1
1
1
1.00005
1.03191
1.6177
2.26336
2.34052
2.33766
2.33596
2.33533
2.33539
2.3356
2.33555
2.33517
2.33422
2.33254
2.33005
2.32679
2.32285
2.31834
2.3133
2.30787
2.30279
2.2982
2.29685
2.29855
2.30143
2.30737
2.31523
2.32276
2.32635
2.33079
2.32752
1
1
1
1
1
1
1
1
1
1
1
1
1
1
1
1
1
1
1
1
1
1
1
1
1
1
1
1
1
1
1
1
1
1
1
1
1
1
1
1
1
1
1
1
1
1
1
1
1
1
1
1
1
1
1
1
1
1
1
1
1
1
1
1
1
1
1.00013
1.04453
1.63789
2.25594
2.3281
2.32512
2.32316
2.32162
2.32041
2.31928
2.31813
2.31679
2.31504
2.3128
2.3099
2.3067
2.30301
2.29937
2.29579
2.29641
2.29995
2.30621
2.31647
2.32873
2.33864
2.34565
2.35065
2.3484
2.34588
2.33992
1
1
1
1
1
1
1
1
1
1
1
1
1
1
1
1
1
1
1
1
1
1
1
1
1
1
1
1
1
1
1
1
1
1
1
1
1
1
1
1
1
1
1
1
1
1
1
1
1
1
1
1
1
1
1
1
1
1
1
1
1
1
1
1
1
1
1
1.00022
1.05001
1.62398
2.23846
2.31711
2.31478
2.31268
2.31005
2.30737
2.3047
2.3019
2.29891
2.2958
2.29259
2.28989
2.28846
2.29006
2.29536
2.30513
2.31996
2.33565
2.35032
2.35967
2.36581
2.3657
2.36216
2.35671
2.35125
2.34462
1
1
1
1
1
1
1
1
1
1
1
1
1
1
1
1
1
1
1
1
1
1
1
1
1
1
1
1
1
1
1
1
1
1
1
1
1
1
1
1
1
1
1
1
1
1
1
1
1
1
1
1
1
1
1
1
1
1
1
1
1
1
1
1
1
1
1
1
1.00027
1.0478
1.60451
2.21685
2.3052
2.3038
2.30094
2.29783
2.2942
2.29018
2.28602
2.28169
2.2784
2.27989
2.28497
2.29748
2.31552
2.33573
2.35451
2.36657
2.37665
2.37571
2.37308
2.36971
2.36317
2.35666
2.35158
2.34618
1
1
1
1
1
1
1
1
1
1
1
1
1
1
1
1
1
1
1
1
1
1
1
1
1
1
1
1
1
1
1
1
1
1
1
1
1
1
1
1
1
1
1
1
1
1
1
1
1
1
1
1
1
1
1
1
1
1
1
1
1
1
1
1
1
1
1
1
1
1.00025
1.04388
1.57379
2.18846
2.29219
2.29172
2.28844
2.28481
2.28005
2.27527
2.27535
2.27829
2.29015
2.30846
2.33273
2.35552
2.36942
2.38017
2.38205
2.3792
2.3743
2.37059
2.36712
2.36123
2.35577
2.352
2.34782
1
1
1
1
1
1
1
1
1
1
1
1
1
1
1
1
1
1
1
1
1
1
1
1
1
1
1
1
1
1
1
1
1
1
1
1
1
1
1
1
1
1
1
1
1
1
1
1
1
1
1
1
1
1
1
1
1
1
1
1
1
1
1
1
1
1
1
1
1
1
1.00022
1.03784
1.52823
2.15233
2.27467
2.27958
2.27502
2.27112
2.27284
2.28443
2.30527
2.3329
2.35874
2.37712
2.38469
2.38766
2.38681
2.38317
2.3771
2.37115
2.36746
2.36428
2.35884
2.35414
2.35154
2.34841
1
1
1
1
1
1
1
1
1
1
1
1
1
1
1
1
1
1
1
1
1
1
1
1
1
1
1
1
1
1
1
1
1
1
1
1
1
1
1
1
1
1
1
1
1
1
1
1
1
1
1
1
1
1
1
1
1
1
1
1
1
1
1
1
1
1
1
1
1
1
1
1.00018
1.02995
1.4701
2.10019
2.25369
2.26052
2.27352
2.29742
2.33178
2.36332
2.38397
2.39518
2.39828
2.39367
2.38946
2.38586
2.38141
2.37501
2.36948
2.36643
2.36372
2.35871
2.35421
2.35167
2.34881
1
1
1
1
1
1
1
1
1
1
1
1
1
1
1
1
1
1
1
1
1
1
1
1
1
1
1
1
1
1
1
1
1
1
1
1
1
1
1
1
1
1
1
1
1
1
1
1
1
1
1
1
1
1
1
1
1
1
1
1
1
1
1
1
1
1
1
1
1
1
1
1
1.00013
1.02167
1.40123
2.01814
2.25112
2.3173
2.35387
2.38313
2.39472
2.40264
2.40083
2.3974
2.39113
2.38643
2.38285
2.3791
2.37346
2.36869
2.36633
2.36388
2.35891
2.35428
2.35156
2.34886
1
1
1
1
1
1
1
1
1
1
1
1
1
1
1
1
1
1
1
1
1
1
1
1
1
1
1
1
1
1
1
1
1
1
1
1
1
1
1
1
1
1
1
1
1
1
1
1
1
1
1
1
1
1
1
1
1
1
1
1
1
1
1
1
1
1
1
1
1
1
1
1
1
1.00008
1.01454
1.29893
2.11175
2.41841
2.41631
2.41603
2.41085
2.40631
2.4012
2.39563
2.38949
2.38452
2.38095
2.37849
2.37445
2.37052
2.36807
2.36524
2.35987
2.3547
2.35146
2.34869
1
1
1
1
1
1
1
1
1
1
1
1
1
1
1
1
1
1
1
1
1
1
1
1
1
1
1
1
1
1
1
1
1
1
1
1
1
1
1
1
1
1
1
1
1
1
1
1
1
1
1
1
1
1
1
1
1
1
1
1
1
1
1
1
1
1
1
1
1
1
1
1
1
1
1.00005
1.00726
1.76178
2.51564
2.50344
2.48076
2.45858
2.43928
2.42301
2.40965
2.39845
2.39016
2.38496
2.38072
2.37583
2.37197
2.3694
2.36635
2.36142
2.35663
2.35294
2.34998
1
1
1
1
1
1
1
1
1
1
1
1
1
1
1
1
1
1
1
1
1
1
1
1
1
1
1
1
1
1
1
1
1
1
1
1
1
1
1
1
1
1
1
1
1
1
1
1
1
1
1
1
1
1
1
1
1
1
1
1
1
1
1
1
1
1
1
1
1
1
1
1
1
1
1
1.00001
1.22827
2.40812
2.5739
2.54513
2.51606
2.48812
2.46412
2.44484
2.42901
2.41759
2.40854
2.39944
2.3912
2.38428
2.37875
2.37288
2.36622
2.36041
2.35558
2.35213
1
1
1
1
1
1
1
1
1
1
1
1
1
1
1
1
1
1
1
1
1
1
1
1
1
1
1
1
1
1
1
1
1
1
1
1
1
1
1
1
1
1
1
1
1
1
1
1
1
1
1
1
1
1
1
1
1
1
1
1
1
1
1
1
1
1
1
1
1
1
1
1
1
1
1
1
1.00377
2.07654
2.6054
2.59609
2.57881
2.5598
2.53877
2.51746
2.49704
2.47814
2.4608
2.44498
2.43085
2.41765
2.40561
2.39402
2.38343
2.37459
2.36755
2.36213
1
1
1
1
1
1
1
1
1
1
1
1
1
1
1
1
1
1
1
1
1
1
1
1
1
1
1
1
1
1
1
1
1
1
1
1
1
1
1
1
1
1
1
1
1
1
1
1
1
1
1
1
1
1
1
1
1
1
1
1
1
1
1
1
1
1
1
1
1
1
1
1
1
1
1
1
1
1.49184
2.49075
2.61716
2.6108
2.60273
2.59165
2.57819
2.56168
2.54271
2.52268
2.50255
2.48324
2.4649
2.44799
2.43263
2.41934
2.40831
2.39864
2.38938
1
1
1
1
1
1
1
1
1
1
1
1
1
1
1
1
1
1
1
1
1
1
1
1
1
1
1
1
1
1
1
1
1
1
1
1
1
1
1
1
1
1
1
1
1
1
1
1
1
1
1
1
1
1
1
1
1
1
1
1
1
1
1
1
1
1
1
1
1
1
1
1
1
1
1
1
1
1.0247
2.22553
2.62897
2.6278
2.62201
2.61587
2.60813
2.5987
2.58721
2.57372
2.55853
2.54292
2.52647
2.50974
2.49348
2.47821
2.4635
2.44928
2.43519
1
1
1
1
1
1
1
1
1
1
1
1
1
1
1
1
1
1
1
1
1
1
1
1
1
1
1
1
1
1
1
1
1
1
1
1
1
1
1
1
1
1
1
1
1
1
1
1
1
1
1
1
1
1
1
1
1
1
1
1
1
1
1
1
1
1
1
1
1
1
1
1
1
1
1
1
1
1.00003
1.75935
2.54868
2.62387
2.61934
2.61733
2.61432
2.61037
2.60535
2.59912
2.59143
2.5824
2.57205
2.5606
2.54802
2.53443
2.51988
2.50478
2.48958
1
1
1
1
1
1
1
1
1
1
1
1
1
1
1
1
1
1
1
1
1
1
1
1
1
1
1
1
1
1
1
1
1
1
1
1
1
1
1
1
1
1
1
1
1
1
1
1
1
1
1
1
1
1
1
1
1
1
1
1
1
1
1
1
1
1
1
1
1
1
1
1
1
1
1
1
1
1
1.18136
2.37678
2.62747
2.62156
2.61891
2.6169
2.61508
2.61281
2.60986
2.60609
2.60104
2.59495
2.58803
2.58017
2.57113
2.56101
2.5499
2.53813
1
1
1
1
1
1
1
1
1
1
1
1
1
1
1
1
1
1
1
1
1
1
1
1
1
1
1
1
1
1
1
1
1
1
1
1
1
1
1
1
1
1
1
1
1
1
1
1
1
1
1
1
1
1
1
1
1
1
1
1
1
1
1
1
1
1
1
1
1
1
1
1
1
1
1
1
1
1
1.00243
2.12918
2.62474
2.62457
2.6227
2.62059
2.61787
2.61522
2.61245
2.60948
2.60624
2.6026
2.59824
2.59328
2.58782
2.58181
2.57511
2.56769
1
1
1
1
1
1
1
1
1
1
1
1
1
1
1
1
1
1
1
1
1
1
1
1
1
1
1
1
1
1
1
1
1
1
1
1
1
1
1
1
1
1
1
1
1
1
1
1
1
1
1
1
1
1
1
1
1
1
1
1
1
1
1
1
1
1
1
1
1
1
1
1
1
1
1
1
1
1
1
1.69837
2.55098
2.63369
2.62881
2.62534
2.62142
2.6181
2.61503
2.61207
2.60915
2.60619
2.60318
2.59995
2.59641
2.5925
2.58811
2.58322
1
1
1
1
1
1
1
1
1
1
1
1
1
1
1
1
1
1
1
1
1
1
1
1
1
1
1
1
1
1
1
1
1
1
1
1
1
1
1
1
1
1
1
1
1
1
1
1
1
1
1
1
1
1
1
1
1
1
1
1
1
1
1
1
1
1
1
1
1
1
1
1
1
1
1
1
1
1
1
1.18113
2.38549
2.64041
2.6334
2.629
2.6253
2.62166
2.61803
2.61448
2.61114
2.60796
2.60492
2.60185
2.59873
2.59544
2.59193
2.58821
1
1
1
1
1
1
1
1
1
1
1
1
1
1
1
1
1
1
1
1
1
1
1
1
1
1
1
1
1
1
1
1
1
1
1
1
1
1
1
1
1
1
1
1
1
1
1
1
1
1
1
1
1
1
1
1
1
1
1
1
1
1
1
1
1
1
1
1
1
1
1
1
1
1
1
1
1
1
1
1.00263
2.18364
2.64611
2.64318
2.63754
2.63293
2.62803
2.6234
2.61902
2.615
2.61129
2.60782
2.60448
2.60124
2.59797
2.59463
2.59124
1
1
1
1
1
1
1
1
1
1
1
1
1
1
1
1
1
1
1
1
1
1
1
1
1
1
1
1
1
1
1
1
1
1
1
1
1
1
1
1
1
1
1
1
1
1
1
1
1
1
1
1
1
1
1
1
1
1
1
1
1
1
1
1
1
1
1
1
1
1
1
1
1
1
1
1
1
1
1
1
1.86654
2.60613
2.64435
2.63954
2.63624
2.63181
2.62765
2.62351
2.6194
2.61539
2.61152
2.60781
2.60427
2.60083
2.59741
2.59402
1
1
1
1
1
1
1
1
1
1
1
1
1
1
1
1
1
1
1
1
1
1
1
1
1
1
1
1
1
1
1
1
1
1
1
1
1
1
1
1
1
1
1
1
1
1
1
1
1
1
1
1
1
1
1
1
1
1
1
1
1
1
1
1
1
1
1
1
1
1
1
1
1
1
1
1
1
1
1
1
1.45905
2.48592
2.65581
2.65023
2.64645
2.64193
2.63755
2.6331
2.62857
2.62404
2.61955
2.61521
2.61108
2.60712
2.60329
2.59954
1
1
1
1
1
1
1
1
1
1
1
1
1
1
1
1
1
1
1
1
1
1
1
1
1
1
1
1
1
1
1
1
1
1
1
1
1
1
1
1
1
1
1
1
1
1
1
1
1
1
1
1
1
1
1
1
1
1
1
1
1
1
1
1
1
1
1
1
1
1
1
1
1
1
1
1
1
1
1
1
1.03821
2.32301
2.66151
2.65564
2.65046
2.64673
2.64326
2.63963
2.63564
2.63135
2.62688
2.62239
2.618
2.61374
2.60961
2.60555
1
1
1
1
1
1
1
1
1
1
1
1
1
1
1
1
1
1
1
1
1
1
1
1
1
1
1
1
1
1
1
1
1
1
1
1
1
1
1
1
1
1
1
1
1
1
1
1
1
1
1
1
1
1
1
1
1
1
1
1
1
1
1
1
1
1
1
1
1
1
1
1
1
1
1
1
1
1
1
1
1.00011
2.14031
2.65532
2.6567
2.65396
2.65169
2.64868
2.64531
2.64154
2.6375
2.63327
2.62896
2.62465
2.62038
2.61614
2.61192
1
1
1
1
1
1
1
1
1
1
1
1
1
1
1
1
1
1
1
1
1
1
1
1
1
1
1
1
1
1
1
1
1
1
1
1
1
1
1
1
1
1
1
1
1
1
1
1
1
1
1
1
1
1
1
1
1
1
1
1
1
1
1
1
1
1
1
1
1
1
1
1
1
1
1
1
1
1
1
1
1
1.90015
2.62156
2.66085
2.65698
2.65454
2.65133
2.64809
2.64468
2.64117
2.63757
2.63384
2.63001
2.62607
2.62203
2.61789
1
1
1
1
1
1
1
1
1
1
1
1
1
1
1
1
1
1
1
1
1
1
1
1
1
1
1
1
1
1
1
1
1
1
1
1
1
1
1
1
1
1
1
1
1
1
1
1
1
1
1
1
1
1
1
1
1
1
1
1
1
1
1
1
1
1
1
1
1
1
1
1
1
1
1
1
1
1
1
1
1
1.61266
2.54965
2.66415
2.6588
2.65632
2.65308
2.64987
2.64657
2.64329
2.63997
2.63662
2.63317
2.6296
2.62589
2.62204
1
1
1
1
1
1
1
1
1
1
1
1
1
1
1
1
1
1
1
1
1
1
1
1
1
1
1
1
1
1
1
1
1
1
1
1
1
1
1
1
1
1
1
1
1
1
1
1
1
1
1
1
1
1
1
1
1
1
1
1
1
1
1
1
1
1
1
1
1
1
1
1
1
1
1
1
1
1
1
1
1
1.29523
2.44362
2.66575
2.66015
2.65768
2.6547
2.65158
2.6484
2.64529
2.64219
2.63909
2.63592
2.63266
2.6293
2.6258
1
1
1
1
1
1
1
1
1
1
1
1
1
1
1
1
1
1
1
1
1
1
1
1
1
1
1
1
1
1
1
1
1
1
1
1
1
1
1
1
1
1
1
1
1
1
1
1
1
1
1
1
1
1
1
1
1
1
1
1
1
1
1
1
1
1
1
1
1
1
1
1
1
1
1
1
1
1
1
1
1
1.05444
2.33614
2.67414
2.66794
2.66263
2.65834
2.65455
2.6511
2.64783
2.64465
2.64151
2.63836
2.63517
2.63194
2.62866
1
1
1
1
1
1
1
1
1
1
1
1
1
1
1
1
1
1
1
1
1
1
1
1
1
1
1
1
1
1
1
1
1
1
1
1
1
1
1
1
1
1
1
1
1
1
1
1
1
1
1
1
1
1
1
1
1
1
1
1
1
1
1
1
1
1
1
1
1
1
1
1
1
1
1
1
1
1
1
1
1
1.00042
2.20533
2.67185
2.671
2.66603
2.66254
2.65891
2.65547
2.65209
2.64879
2.64552
2.64225
2.63896
2.63568
2.6324
1
1
1
1
1
1
1
1
1
1
1
1
1
1
1
1
1
1
1
1
1
1
1
1
1
1
1
1
1
1
1
1
1
1
1
1
1
1
1
1
1
1
1
1
1
1
1
1
1
1
1
1
1
1
1
1
1
1
1
1
1
1
1
1
1
1
1
1
1
1
1
1
1
1
1
1
1
1
1
1
1
1
2.05056
2.65663
2.67383
2.6695
2.6666
2.66315
2.65983
2.65651
2.65323
2.64995
2.64666
2.64332
2.63995
2.63654
1
1
1
1
1
1
1
1
1
1
1
1
1
1
1
1
1
1
1
1
1
1
1
1
1
1
1
1
1
1
1
1
1
1
1
1
1
1
1
1
1
1
1
1
1
1
1
1
1
1
1
1
1
1
1
1
1
1
1
1
1
1
1
1
1
1
1
1
1
1
1
1
1
1
1
1
1
1
1
1
1
1
1.884
2.62653
2.67648
2.67165
2.66911
2.66596
2.66289
2.65975
2.65657
2.65335
2.6501
2.64677
2.64337
2.6399
1
1
1
1
1
1
1
1
1
1
1
1
1
1
1
1
1
1
1
1
1
1
1
1
1
1
1
1
1
1
1
1
1
1
1
1
1
1
1
1
1
1
1
1
1
1
1
1
1
1
1
1
1
1
1
1
1
1
1
1
1
1
1
1
1
1
1
1
1
1
1
1
1
1
1
1
1
1
1
1
1
1
1.71384
2.59305
2.67686
2.67116
2.66856
2.66549
2.66252
2.6595
2.65643
2.6533
2.65013
2.64687
2.64351
2.64011
1
1
1
1
1
1
1
1
1
1
1
1
1
1
1
1
1
1
1
1
1
1
1
1
1
1
1
1
1
1
1
1
1
1
1
1
1
1
1
1
1
1
1
1
1
1
1
1
1
1
1
1
1
1
1
1
1
1
1
1
1
1
1
1
1
1
1
1
1
1
1
1
1
1
1
1
1
1
1
1
1
1
1.54688
2.55295
2.67762
2.67152
2.6688
2.66574
2.66281
2.65987
2.65687
2.65384
2.65074
2.64756
2.64424
2.64089
1
1
1
1
1
1
1
1
1
1
1
1
1
1
1
1
1
1
1
1
1
1
1
1
1
1
1
1
1
1
1
1
1
1
1
1
1
1
1
1
1
1
1
1
1
1
1
1
1
1
1
1
1
1
1
1
1
1
1
1
1
1
1
1
1
1
1
1
1
1
1
1
1
1
1
1
1
1
1
1
1
1
1.40179
2.50796
2.68008
2.67372
2.6706
2.66733
2.66421
2.66114
2.65803
2.65494
2.65181
2.64863
2.64533
2.642
1
1
1
1
1
1
1
1
1
1
1
1
1
1
1
1
1
1
1
1
1
1
1
1
1
1
1
1
1
1
1
1
1
1
1
1
1
1
1
1
1
1
1
1
1
1
1
1
1
1
1
1
1
1
1
1
1
1
1
1
1
1
1
1
1
1
1
1
1
1
1
1
1
1
1
1
1
1
1
1
1
1
1.28951
2.46206
2.68161
2.67613
2.67293
2.66964
2.6664
2.6632
2.65996
2.65677
2.65358
2.65038
2.64709
2.64378
1
1
1
1
1
1
1
1
1
1
1
1
1
1
1
1
1
1
1
1
1
1
1
1
1
1
1
1
1
1
1
1
1
1
1
1
1
1
1
1
1
1
1
1
1
1
1
1
1
1
1
1
1
1
1
1
1
1
1
1
1
1
1
1
1
1
1
1
1
1
1
1
1
1
1
1
1
1
1
1
1
1
1.20173
2.41457
2.68087
2.67717
2.67412
2.67115
2.66807
2.66495
2.66177
2.65857
2.65535
2.65214
2.64885
2.64558
1
1
1
1
1
1
1
1
1
1
1
1
1
1
1
1
1
1
1
1
1
1
1
1
1
1
1
1
1
1
1
1
1
1
1
1
1
1
1
1
1
1
1
1
1
1
1
1
1
1
1
1
1
1
1
1
1
1
1
1
1
1
1
1
1
1
1
1
1
1
1
1
1
1
1
1
1
1
1
1
1
1
1.13313
2.36976
2.67894
2.67719
2.67379
2.67115
2.66832
2.66552
2.66263
2.65963
2.65654
2.6534
2.65019
2.647
1
1
1
1
1
1
1
1
1
1
1
1
1
1
1
1
1
1
1
1
1
1
1
1
1
1
1
1
1
1
1
1
1
1
1
1
1
1
1
1
1
1
1
1
1
1
1
1
1
1
1
1
1
1
1
1
1
1
1
1
1
1
1
1
1
1
1
1
1
1
1
1
1
1
1
1
1
1
1
1
1
1
1.06278
2.33235
2.67834
2.67853
2.6743
2.67186
2.66906
2.6663
2.66346
2.66048
2.6574
2.65425
2.65106
2.64788
1
1
1
1
1
1
1
1
1
1
1
1
1
1
1
1
1
1
1
1
1
1
1
1
1
1
1
1
1
1
1
1
1
1
1
1
1
1
1
1
1
1
1
1
1
1
1
1
1
1
1
1
1
1
1
1
1
1
1
1
1
1
1
1
1
1
1
1
1
1
1
1
1
1
1
1
1
1
1
1
1
1
1.0038
2.2985
2.67635
2.67989
2.67508
2.67252
2.66958
2.66667
2.66373
2.66072
2.65763
2.65448
2.65135
2.6482
1
1
1
1
1
1
1
1
1
1
1
1
1
1
1
1
1
1
1
1
1
1
1
1
1
1
1
1
1
1
1
1
1
1
1
1
1
1
1
1
1
1
1
1
1
1
1
1
1
1
1
1
1
1
1
1
1
1
1
1
1
1
1
1
1
1
1
1
1
1
1
1
1
1
1
1
1
1
1
1
1
1
1.00001
2.27185
2.67484
2.68033
2.67536
2.6727
2.66971
2.66675
2.66379
2.66081
2.65777
2.65467