/*--------------------------------*- C++ -*----------------------------------*\
  =========                 |
  \\      /  F ield         | OpenFOAM: The Open Source CFD Toolbox
   \\    /   O peration     | Website:  https://openfoam.org
    \\  /    A nd           | Version:  7
     \\/     M anipulation  |
\*---------------------------------------------------------------------------*/
FoamFile
{
    version     2.0;
    format      ascii;
    class       volScalarField;
    location    "5.8";
    object      rho;
}
// * * * * * * * * * * * * * * * * * * * * * * * * * * * * * * * * * * * * * //

dimensions      [1 -3 0 0 0 0 0];

internalField   nonuniform List<scalar> 
19968
(
1.40001
1.40001
1.40001
1.40001
1.40001
1.40001
1.40001
1.40001
1.40001
1.40001
1.40001
1.40001
1.40001
1.40001
1.40001
1.40001
1.40001
1.40001
1.40001
1.40001
1.40001
1.40001
1.40001
1.40001
1.40001
1.40001
1.40001
1.40001
1.40001
1.40001
1.40001
1.40001
1.40001
1.40001
1.40001
1.40001
1.40001
1.40001
1.40001
1.40001
1.40001
1.40001
1.40001
1.40001
1.40001
1.40001
1.40001
1.40001
1.7116
4.58354
5.41343
5.4343
5.4603
5.48427
5.50698
5.52675
5.54449
5.56209
5.58099
5.60102
5.6215
5.64188
5.66169
5.68006
5.6968
5.71297
5.72961
5.74653
5.76297
5.77887
5.79456
5.80996
5.82474
5.8385
5.85101
5.86234
5.87297
5.8837
5.89523
5.90793
5.92155
5.93515
5.94735
5.95699
5.96376
5.96836
5.97219
5.97673
5.98289
5.99051
5.99837
6.00502
6.00953
6.01192
6.01281
6.01353
1.40001
1.40001
1.40001
1.40001
1.40001
1.40001
1.40001
1.40001
1.40001
1.40001
1.40001
1.40001
1.40001
1.40001
1.40001
1.40001
1.40001
1.40001
1.40001
1.40001
1.40001
1.40001
1.40001
1.40001
1.40001
1.40001
1.40001
1.40001
1.40001
1.40001
1.40001
1.40001
1.40001
1.40001
1.40001
1.40001
1.40001
1.40001
1.40001
1.40001
1.40001
1.40001
1.40001
1.40001
1.40001
1.40001
1.40001
1.40001
1.69369
4.55656
5.41003
5.43345
5.46074
5.48428
5.50648
5.52614
5.54392
5.56154
5.58045
5.6005
5.62103
5.64128
5.66077
5.67881
5.69536
5.7115
5.72816
5.74512
5.76163
5.77761
5.79332
5.80869
5.82342
5.83721
5.84984
5.86136
5.87213
5.88286
5.89423
5.90663
5.91988
5.93311
5.94504
5.95456
5.96138
5.96617
5.97025
5.975
5.98123
5.98874
5.99638
6.00275
6.00701
6.00925
6.01009
6.01075
1.40001
1.40001
1.40001
1.40001
1.40001
1.40001
1.40001
1.40001
1.40001
1.40001
1.40001
1.40001
1.40001
1.40001
1.40001
1.40001
1.40001
1.40001
1.40001
1.40001
1.40001
1.40001
1.40001
1.40001
1.40001
1.40001
1.40001
1.40001
1.40001
1.40001
1.40001
1.40001
1.40001
1.40001
1.40001
1.40001
1.40001
1.40001
1.40001
1.40001
1.40001
1.40001
1.40001
1.40001
1.40001
1.40001
1.40001
1.40001
1.6542
4.50104
5.41096
5.43188
5.4587
5.48109
5.50267
5.52256
5.5409
5.5592
5.57869
5.59894
5.61951
5.63948
5.65842
5.67595
5.69228
5.70846
5.72523
5.74231
5.75893
5.77497
5.79064
5.8059
5.82056
5.83443
5.8473
5.85913
5.87017
5.881
5.89223
5.90427
5.91698
5.92961
5.94102
5.95031
5.95727
5.9625
5.96712
5.97229
5.97867
5.98601
5.99325
5.99918
6.00312
6.0052
6.00604
6.00669
1.40001
1.40001
1.40001
1.40001
1.40001
1.40001
1.40001
1.40001
1.40001
1.40001
1.40001
1.40001
1.40001
1.40001
1.40001
1.40001
1.40001
1.40001
1.40001
1.40001
1.40001
1.40001
1.40001
1.40001
1.40001
1.40001
1.40001
1.40001
1.40001
1.40001
1.40001
1.40001
1.40001
1.40001
1.40001
1.40001
1.40001
1.40001
1.40001
1.40001
1.40001
1.40001
1.40001
1.40001
1.40001
1.40001
1.40001
1.40001
1.59878
4.41031
5.4123
5.43121
5.45514
5.4762
5.49736
5.51768
5.53685
5.55602
5.57606
5.59641
5.61685
5.63636
5.6546
5.67166
5.68786
5.70419
5.7211
5.73825
5.75488
5.77091
5.78648
5.80162
5.81626
5.83028
5.84348
5.85566
5.86696
5.87783
5.88888
5.90049
5.91254
5.92435
5.93499
5.94379
5.95073
5.95637
5.9616
5.96731
5.97392
5.9811
5.9879
5.99334
5.99692
5.99885
5.99971
6.00035
1.40001
1.40001
1.40001
1.40001
1.40001
1.40001
1.40001
1.40001
1.40001
1.40001
1.40001
1.40001
1.40001
1.40001
1.40001
1.40001
1.40001
1.40001
1.40001
1.40001
1.40001
1.40001
1.40001
1.40001
1.40001
1.40001
1.40001
1.40001
1.40001
1.40001
1.40001
1.40001
1.40001
1.40001
1.40001
1.40001
1.40001
1.40001
1.40001
1.40001
1.40001
1.40001
1.40001
1.40001
1.40001
1.40001
1.40001
1.40001
1.52889
4.29058
5.41399
5.42891
5.45043
5.47059
5.49172
5.51275
5.53276
5.55254
5.57265
5.59256
5.61235
5.63128
5.64903
5.66595
5.6824
5.69917
5.71634
5.73348
5.74999
5.76583
5.78119
5.79619
5.81083
5.82505
5.83856
5.85106
5.86259
5.87355
5.88451
5.89582
5.90733
5.91837
5.92818
5.9364
5.94322
5.94921
5.95507
5.96134
5.96808
5.97483
5.98079
5.98525
5.98799
5.98932
5.98983
5.99015
1.40001
1.40001
1.40001
1.40001
1.40001
1.40001
1.40001
1.40001
1.40001
1.40001
1.40001
1.40001
1.40001
1.40001
1.40001
1.40001
1.40001
1.40001
1.40001
1.40001
1.40001
1.40001
1.40001
1.40001
1.40001
1.40001
1.40001
1.40001
1.40001
1.40001
1.40001
1.40001
1.40001
1.40001
1.40001
1.40001
1.40001
1.40001
1.40001
1.40001
1.40001
1.40001
1.40001
1.40001
1.40001
1.40001
1.40001
1.40001
1.40778
4.09202
5.41897
5.43139
5.44773
5.46739
5.48772
5.50917
5.53013
5.55052
5.57042
5.58943
5.60789
5.62582
5.64297
5.6598
5.67662
5.69385
5.71109
5.72776
5.74354
5.75864
5.77343
5.78803
5.80244
5.81657
5.83005
5.84254
5.85403
5.86493
5.87579
5.88689
5.89797
5.90833
5.91737
5.92498
5.93162
5.93796
5.9446
5.95174
5.9591
5.96598
5.9716
5.97546
5.97756
5.97834
5.97843
5.97834
1.40001
1.40001
1.40001
1.40001
1.40001
1.40001
1.40001
1.40001
1.40001
1.40001
1.40001
1.40001
1.40001
1.40001
1.40001
1.40001
1.40001
1.40001
1.40001
1.40001
1.40001
1.40001
1.40001
1.40001
1.40001
1.40001
1.40001
1.40001
1.40001
1.40001
1.40001
1.40001
1.40001
1.40001
1.40001
1.40001
1.40001
1.40001
1.40001
1.40001
1.40001
1.40001
1.40001
1.40001
1.40001
1.40001
1.40001
1.40001
1.40005
3.78784
5.3822
5.41273
5.42998
5.45219
5.47355
5.4961
5.51791
5.53858
5.55801
5.57623
5.59379
5.61142
5.62881
5.64613
5.66357
5.68126
5.69858
5.71482
5.73002
5.7447
5.75922
5.77375
5.78818
5.80238
5.81593
5.82846
5.84003
5.85107
5.86209
5.87327
5.88424
5.89428
5.90283
5.91
5.91642
5.92291
5.93006
5.93792
5.94589
5.95298
5.95834
5.96163
5.96306
5.96304
5.96244
5.96187
1.40001
1.40001
1.40001
1.40001
1.40001
1.40001
1.40001
1.40001
1.40001
1.40001
1.40001
1.40001
1.40001
1.40001
1.40001
1.40001
1.40001
1.40001
1.40001
1.40001
1.40001
1.40001
1.40001
1.40001
1.40001
1.40001
1.40001
1.40001
1.40001
1.40001
1.40001
1.40001
1.40001
1.40001
1.40001
1.40001
1.40001
1.40001
1.40001
1.40001
1.40001
1.40001
1.40001
1.40001
1.40001
1.40001
1.40001
1.40001
1.40001
3.38857
5.3251
5.40326
5.42237
5.44668
5.46879
5.49113
5.51201
5.53152
5.54983
5.56745
5.58458
5.60199
5.61946
5.63686
5.6542
5.67144
5.68812
5.70345
5.7178
5.73184
5.74587
5.76003
5.77404
5.78781
5.80094
5.81315
5.82451
5.83547
5.84645
5.85753
5.86828
5.87799
5.88619
5.89301
5.89915
5.9055
5.91271
5.92082
5.92912
5.93638
5.9416
5.94451
5.94519
5.94421
5.94285
5.94167
1.40001
1.40001
1.40001
1.40001
1.40001
1.40001
1.40001
1.40001
1.40001
1.40001
1.40001
1.40001
1.40001
1.40001
1.40001
1.40001
1.40001
1.40001
1.40001
1.40001
1.40001
1.40001
1.40001
1.40001
1.40001
1.40001
1.40001
1.40001
1.40001
1.40001
1.40001
1.40001
1.40001
1.40001
1.40001
1.40001
1.40001
1.40001
1.40001
1.40001
1.40001
1.40001
1.40001
1.40001
1.40001
1.40001
1.40001
1.40001
1.40001
2.91772
5.22326
5.39704
5.41695
5.44188
5.46405
5.48572
5.50549
5.5237
5.54073
5.55776
5.57488
5.59231
5.60983
5.627
5.64366
5.65965
5.675
5.68906
5.70237
5.71571
5.72907
5.74256
5.75563
5.76846
5.78077
5.79242
5.80345
5.81421
5.82503
5.83587
5.84632
5.85575
5.86373
5.87034
5.87621
5.88227
5.88928
5.89737
5.90587
5.91343
5.9188
5.92159
5.92178
5.92016
5.91812
5.91652
1.40001
1.40001
1.40001
1.40001
1.40001
1.40001
1.40001
1.40001
1.40001
1.40001
1.40001
1.40001
1.40001
1.40001
1.40001
1.40001
1.40001
1.40001
1.40001
1.40001
1.40001
1.40001
1.40001
1.40001
1.40001
1.40001
1.40001
1.40001
1.40001
1.40001
1.40001
1.40001
1.40001
1.40001
1.40001
1.40001
1.40001
1.40001
1.40001
1.40001
1.40001
1.40001
1.40001
1.40001
1.40001
1.40001
1.40001
1.40001
1.40001
2.38886
5.0422
5.39842
5.41962
5.44329
5.46442
5.48481
5.50311
5.51953
5.53468
5.55015
5.56669
5.58376
5.60098
5.61757
5.6332
5.6476
5.66141
5.67427
5.68665
5.69933
5.71191
5.72438
5.73598
5.74713
5.75792
5.76838
5.77849
5.78851
5.79864
5.80885
5.81877
5.82786
5.8357
5.84227
5.84807
5.85391
5.86052
5.86815
5.87625
5.88353
5.88868
5.89109
5.89075
5.8886
5.88588
5.88398
1.40001
1.40001
1.40001
1.40001
1.40001
1.40001
1.40001
1.40001
1.40001
1.40001
1.40001
1.40001
1.40001
1.40001
1.40001
1.40001
1.40001
1.40001
1.40001
1.40001
1.40001
1.40001
1.40001
1.40001
1.40001
1.40001
1.40001
1.40001
1.40001
1.40001
1.40001
1.40001
1.40001
1.40001
1.40001
1.40001
1.40001
1.40001
1.40001
1.40001
1.40001
1.40001
1.40001
1.40001
1.40001
1.40001
1.40001
1.40001
1.40001
1.86481
4.72625
5.41806
5.41271
5.43463
5.45224
5.47206
5.49082
5.50813
5.5238
5.53889
5.55504
5.57173
5.58857
5.60489
5.62001
5.63328
5.64578
5.65781
5.66961
5.68197
5.69404
5.70557
5.7159
5.72545
5.73457
5.74353
5.75235
5.76113
5.76999
5.77881
5.78726
5.79491
5.80143
5.80682
5.81155
5.81634
5.82189
5.82851
5.83581
5.84277
5.84799
5.85047
5.85031
5.84834
5.84543
5.84363
1.40001
1.40001
1.40001
1.40001
1.40001
1.40001
1.40001
1.40001
1.40001
1.40001
1.40001
1.40001
1.40001
1.40001
1.40001
1.40001
1.40001
1.40001
1.40001
1.40001
1.40001
1.40001
1.40001
1.40001
1.40001
1.40001
1.40001
1.40001
1.40001
1.40001
1.40001
1.40001
1.40001
1.40001
1.40001
1.40001
1.40001
1.40001
1.40001
1.40001
1.40001
1.40001
1.40001
1.40001
1.40001
1.40001
1.40001
1.40001
1.40001
1.4232
4.08052
5.40771
5.41393
5.43071
5.44687
5.46475
5.48251
5.49953
5.51485
5.5289
5.54363
5.55886
5.57382
5.58844
5.60213
5.61394
5.62488
5.63572
5.64632
5.65766
5.66893
5.67929
5.68845
5.69634
5.70377
5.71108
5.71847
5.72598
5.73363
5.74125
5.74846
5.75487
5.76028
5.76478
5.76875
5.77278
5.77729
5.78252
5.78807
5.79306
5.79638
5.7971
5.79522
5.79202
5.78828
5.78616
1.40001
1.40001
1.40001
1.40001
1.40001
1.40001
1.40001
1.40001
1.40001
1.40001
1.40001
1.40001
1.40001
1.40001
1.40001
1.40001
1.40001
1.40001
1.40001
1.40001
1.40001
1.40001
1.40001
1.40001
1.40001
1.40001
1.40001
1.40001
1.40001
1.40001
1.40001
1.40001
1.40001
1.40001
1.40001
1.40001
1.40001
1.40001
1.40001
1.40001
1.40001
1.40001
1.40001
1.40001
1.40001
1.40001
1.40001
1.40001
1.40001
1.40004
3.18753
5.24733
5.36534
5.38963
5.41067
5.43018
5.44889
5.46669
5.48294
5.49733
5.51133
5.52574
5.53998
5.5538
5.56715
5.57896
5.58957
5.60015
5.61061
5.62156
5.6327
5.64265
5.65114
5.65791
5.66392
5.66969
5.67555
5.68152
5.68761
5.69359
5.69906
5.70358
5.70692
5.70912
5.71052
5.71147
5.71248
5.71409
5.71638
5.71893
5.721
5.72171
5.72046
5.71838
5.71567
5.71434
1.40001
1.40001
1.40001
1.40001
1.40001
1.40001
1.40001
1.40001
1.40001
1.40001
1.40001
1.40001
1.40001
1.40001
1.40001
1.40001
1.40001
1.40001
1.40001
1.40001
1.40001
1.40001
1.40001
1.40001
1.40001
1.40001
1.40001
1.40001
1.40001
1.40001
1.40001
1.40001
1.40001
1.40001
1.40001
1.40001
1.40001
1.40001
1.40001
1.40001
1.40001
1.40001
1.40001
1.40001
1.40001
1.40001
1.40001
1.40001
1.40001
1.4
2.15807
4.8887
5.37603
5.38068
5.40167
5.41939
5.43637
5.45229
5.46712
5.48038
5.49255
5.50489
5.51739
5.52958
5.54147
5.55232
5.56177
5.57106
5.58045
5.59003
5.59984
5.60855
5.61531
5.62006
5.6236
5.62671
5.62974
5.6327
5.63569
5.63871
5.64146
5.64347
5.64436
5.64416
5.64276
5.64021
5.6375
5.63574
5.63519
5.63503
5.63348
5.62937
5.62144
5.61173
5.60182
5.59348
1.40001
1.40001
1.40001
1.40001
1.40001
1.40001
1.40001
1.40001
1.40001
1.40001
1.40001
1.40001
1.40001
1.40001
1.40001
1.40001
1.40001
1.40001
1.40001
1.40001
1.40001
1.40001
1.40001
1.40001
1.40001
1.40001
1.40001
1.40001
1.40001
1.40001
1.40001
1.40001
1.40001
1.40001
1.40001
1.40001
1.40001
1.40001
1.40001
1.40001
1.40001
1.40001
1.40001
1.40001
1.40001
1.40001
1.40001
1.40001
1.40001
1.40001
1.44137
3.95383
5.39323
5.39404
5.40534
5.41504
5.426
5.437
5.44729
5.45681
5.46578
5.47518
5.48554
5.49589
5.5058
5.51497
5.523
5.53066
5.53866
5.54668
5.55462
5.56183
5.56698
5.56992
5.5711
5.57155
5.57157
5.57088
5.56994
5.5689
5.56782
5.56648
5.56448
5.56074
5.55385
5.54405
5.53241
5.52025
5.50792
5.49469
5.47937
5.46194
5.44572
5.43128
5.42443
5.4209
1.40001
1.40001
1.40001
1.40001
1.40001
1.40001
1.40001
1.40001
1.40001
1.40001
1.40001
1.40001
1.40001
1.40001
1.40001
1.40001
1.40001
1.40001
1.40001
1.40001
1.40001
1.40001
1.40001
1.40001
1.40001
1.40001
1.40001
1.40001
1.40001
1.40001
1.40001
1.40001
1.40001
1.40001
1.40001
1.40001
1.40001
1.40001
1.40001
1.40001
1.40001
1.40001
1.40001
1.40001
1.40001
1.40001
1.40001
1.40001
1.40001
1.40001
1.40006
2.59075
5.08628
5.35614
5.36266
5.37382
5.38674
5.39982
5.41162
5.42186
5.43113
5.44023
5.44992
5.45973
5.46882
5.47637
5.48209
5.48677
5.49168
5.49727
5.50328
5.5089
5.51272
5.51397
5.51286
5.51036
5.50673
5.50169
5.49577
5.48917
5.48209
5.47503
5.46751
5.45769
5.44398
5.42581
5.4039
5.38009
5.35587
5.33178
5.30702
5.28088
5.2464
5.20652
5.151
5.17021
1.40001
1.40001
1.40001
1.40001
1.40001
1.40001
1.40001
1.40001
1.40001
1.40001
1.40001
1.40001
1.40001
1.40001
1.40001
1.40001
1.40001
1.40001
1.40001
1.40001
1.40001
1.40001
1.40001
1.40001
1.40001
1.40001
1.40001
1.40001
1.40001
1.40001
1.40001
1.40001
1.40001
1.40001
1.40001
1.40001
1.40001
1.40001
1.40001
1.40001
1.40001
1.40001
1.40001
1.40001
1.40001
1.40001
1.40001
1.40001
1.40001
1.40001
1.40001
1.54385
4.37018
5.37493
5.36005
5.36309
5.37182
5.38149
5.39059
5.39827
5.40567
5.4135
5.4219
5.43044
5.43781
5.44277
5.44522
5.4464
5.4479
5.45066
5.4542
5.45754
5.45949
5.45895
5.45596
5.45065
5.4432
5.4342
5.42382
5.41203
5.39892
5.38516
5.37062
5.35374
5.33228
5.30464
5.27016
5.22956
5.18236
5.12751
5.05666
4.96195
4.81573
4.58901
4.18318
3.28074
1.40001
1.40001
1.40001
1.40001
1.40001
1.40001
1.40001
1.40001
1.40001
1.40001
1.40001
1.40001
1.40001
1.40001
1.40001
1.40001
1.40001
1.40001
1.40001
1.40001
1.40001
1.40001
1.40001
1.40001
1.40001
1.40001
1.40001
1.40001
1.40001
1.40001
1.40001
1.40001
1.40001
1.40001
1.40001
1.40001
1.40001
1.40001
1.40001
1.40001
1.40001
1.40001
1.40001
1.40001
1.40001
1.40001
1.40001
1.40001
1.40001
1.40001
1.4
1.40093
3.22404
5.20391
5.30926
5.32822
5.34411
5.35589
5.36501
5.37102
5.37571
5.38138
5.38883
5.39733
5.40511
5.41002
5.41135
5.41022
5.40871
5.40825
5.40887
5.40975
5.40976
5.40816
5.40398
5.39642
5.38626
5.37399
5.3599
5.34385
5.32576
5.30596
5.28449
5.26031
5.23074
5.19389
5.14719
5.09094
5.0217
4.93954
4.83112
4.69063
4.48446
4.21711
3.67542
2.92001
1.40001
1.40001
1.40001
1.40001
1.40001
1.40001
1.40001
1.40001
1.40001
1.40001
1.40001
1.40001
1.40001
1.40001
1.40001
1.40001
1.40001
1.40001
1.40001
1.40001
1.40001
1.40001
1.40001
1.40001
1.40001
1.40001
1.40001
1.40001
1.40001
1.40001
1.40001
1.40001
1.40001
1.40001
1.40001
1.40001
1.40001
1.40001
1.40001
1.40001
1.40001
1.40001
1.40001
1.40001
1.40001
1.40001
1.40001
1.40001
1.40001
1.40001
1.40001
1.4
1.96504
4.74321
5.31697
5.31787
5.33319
5.34356
5.35241
5.35764
5.36073
5.36326
5.36749
5.37372
5.3799
5.38345
5.38293
5.37928
5.37455
5.3707
5.36788
5.36538
5.36214
5.35794
5.35158
5.34196
5.32923
5.3135
5.29504
5.27404
5.25046
5.22458
5.19598
5.16422
5.12614
5.08039
5.02274
4.95318
4.86701
4.76323
4.63281
4.46392
4.24646
3.92766
3.49229
2.96612
1.40001
1.40001
1.40001
1.40001
1.40001
1.40001
1.40001
1.40001
1.40001
1.40001
1.40001
1.40001
1.40001
1.40001
1.40001
1.40001
1.40001
1.40001
1.40001
1.40001
1.40001
1.40001
1.40001
1.40001
1.40001
1.40001
1.40001
1.40001
1.40001
1.40001
1.40001
1.40001
1.40001
1.40001
1.40001
1.40001
1.40001
1.40001
1.40001
1.40001
1.40001
1.40001
1.40001
1.40001
1.40001
1.40001
1.40001
1.40001
1.40001
1.40001
1.40001
1.4
1.42441
3.56062
5.21829
5.29908
5.31591
5.3264
5.33664
5.34485
5.34911
5.34788
5.34684
5.34846
5.35121
5.35238
5.3507
5.34612
5.34005
5.33379
5.32764
5.321
5.31351
5.3054
5.29596
5.2843
5.26961
5.25137
5.22914
5.20337
5.17415
5.14228
5.10699
5.06838
5.02315
4.9699
4.9042
4.82472
4.72792
4.61131
4.47042
4.29321
4.07666
3.79107
3.45364
3.08526
1.40001
1.40001
1.40001
1.40001
1.40001
1.40001
1.40001
1.40001
1.40001
1.40001
1.40001
1.40001
1.40001
1.40001
1.40001
1.40001
1.40001
1.40001
1.40001
1.40001
1.40001
1.40001
1.40001
1.40001
1.40001
1.40001
1.40001
1.40001
1.40001
1.40001
1.40001
1.40001
1.40001
1.40001
1.40001
1.40001
1.40001
1.40001
1.40001
1.40001
1.40001
1.40001
1.40001
1.40001
1.40001
1.40001
1.40001
1.40001
1.40001
1.40001
1.40001
1.40001
1.4
2.09566
4.8145
5.29967
5.29766
5.30981
5.31861
5.32683
5.33049
5.32957
5.32888
5.32878
5.32803
5.32554
5.32125
5.31495
5.30733
5.29884
5.28981
5.27983
5.26856
5.25596
5.24214
5.22703
5.20965
5.18922
5.16429
5.13486
5.1006
5.06289
5.02134
4.97643
4.92552
4.86651
4.79577
4.71081
4.60928
4.48848
4.34726
4.17456
3.97453
3.738
3.4712
3.18305
1.40001
1.40001
1.40001
1.40001
1.40001
1.40001
1.40001
1.40001
1.40001
1.40001
1.40001
1.40001
1.40001
1.40001
1.40001
1.40001
1.40001
1.40001
1.40001
1.40001
1.40001
1.40001
1.40001
1.40001
1.40001
1.40001
1.40001
1.40001
1.40001
1.40001
1.40001
1.40001
1.40001
1.40001
1.40001
1.40001
1.40001
1.40001
1.40001
1.40001
1.40001
1.40001
1.40001
1.40001
1.40001
1.40001
1.40001
1.40001
1.40001
1.40001
1.40001
1.40001
1.4
1.43449
3.58338
5.22116
5.28214
5.29385
5.30133
5.3057
5.30696
5.30506
5.30411
5.30412
5.30206
5.29809
5.29272
5.28551
5.27648
5.26562
5.25401
5.24182
5.22754
5.21115
5.19245
5.17226
5.15055
5.12724
5.10031
5.0686
5.03077
4.98807
4.94103
4.8906
4.83511
4.77237
4.69923
4.61276
4.5116
4.39172
4.257
4.09489
3.91749
3.72302
3.5024
3.26881
1.40001
1.40001
1.40001
1.40001
1.40001
1.40001
1.40001
1.40001
1.40001
1.40001
1.40001
1.40001
1.40001
1.40001
1.40001
1.40001
1.40001
1.40001
1.40001
1.40001
1.40001
1.40001
1.40001
1.40001
1.40001
1.40001
1.40001
1.40001
1.40001
1.40001
1.40001
1.40001
1.40001
1.40001
1.40001
1.40001
1.40001
1.40001
1.40001
1.40001
1.40001
1.40001
1.40001
1.40001
1.40001
1.40001
1.40001
1.40001
1.40001
1.40001
1.40001
1.40001
1.4
1.40003
1.99912
4.74843
5.29628
5.27903
5.28101
5.28242
5.28021
5.27665
5.27474
5.27414
5.27179
5.26738
5.26174
5.25432
5.24384
5.23048
5.21641
5.20228
5.18638
5.16862
5.14728
5.1226
5.09576
5.06809
5.03834
5.00464
4.96449
4.91876
4.86837
4.81422
4.75525
4.6899
4.61568
4.53012
4.4324
4.31681
4.19026
4.0439
3.88729
3.72145
3.53294
3.34033
1.40001
1.40001
1.40001
1.40001
1.40001
1.40001
1.40001
1.40001
1.40001
1.40001
1.40001
1.40001
1.40001
1.40001
1.40001
1.40001
1.40001
1.40001
1.40001
1.40001
1.40001
1.40001
1.40001
1.40001
1.40001
1.40001
1.40001
1.40001
1.40001
1.40001
1.40001
1.40001
1.40001
1.40001
1.40001
1.40001
1.40001
1.40001
1.40001
1.40001
1.40001
1.40001
1.40001
1.40001
1.40001
1.40001
1.40001
1.40001
1.40001
1.40001
1.40001
1.40001
1.40001
1.40001
1.4233
3.33101
5.13203
5.24923
5.2465
5.25024
5.25198
5.25101
5.24999
5.24894
5.24582
5.24035
5.23362
5.22621
5.21437
5.19871
5.1823
5.16531
5.14721
5.12846
5.10594
5.07859
5.04752
5.01507
4.98138
4.94469
4.90236
4.855
4.80315
4.74703
4.68596
4.619
4.5446
4.46096
4.36837
4.25918
4.14234
4.01235
3.87092
3.72618
3.56409
3.4006
1.40001
1.40001
1.40001
1.40001
1.40001
1.40001
1.40001
1.40001
1.40001
1.40001
1.40001
1.40001
1.40001
1.40001
1.40001
1.40001
1.40001
1.40001
1.40001
1.40001
1.40001
1.40001
1.40001
1.40001
1.40001
1.40001
1.40001
1.40001
1.40001
1.40001
1.40001
1.40001
1.40001
1.40001
1.40001
1.40001
1.40001
1.40001
1.40001
1.40001
1.40001
1.40001
1.40001
1.40001
1.40001
1.40001
1.40001
1.40001
1.40001
1.40001
1.40001
1.40001
1.40001
1.40001
1.40002
1.71189
4.50371
5.27751
5.24989
5.24313
5.23278
5.22643
5.22193
5.21846
5.21363
5.2067
5.19845
5.19013
5.17777
5.16067
5.14284
5.12468
5.1049
5.0858
5.06345
5.03624
5.00408
4.96865
4.93076
4.88994
4.84521
4.79732
4.74575
4.68957
4.6282
4.56046
4.48651
4.40394
4.31625
4.21367
4.10778
3.98958
3.86398
3.73538
3.59455
3.44859
1.40001
1.40001
1.40001
1.40001
1.40001
1.40001
1.40001
1.40001
1.40001
1.40001
1.40001
1.40001
1.40001
1.40001
1.40001
1.40001
1.40001
1.40001
1.40001
1.40001
1.40001
1.40001
1.40001
1.40001
1.40001
1.40001
1.40001
1.40001
1.40001
1.40001
1.40001
1.40001
1.40001
1.40001
1.40001
1.40001
1.40001
1.40001
1.40001
1.40001
1.40001
1.40001
1.40001
1.40001
1.40001
1.40001
1.40001
1.40001
1.40001
1.40001
1.40001
1.40001
1.40001
1.40001
1.40001
1.4053
2.89646
5.01538
5.19336
5.20309
5.20235
5.19614
5.18993
5.18511
5.17969
5.17234
5.16241
5.15198
5.13847
5.12083
5.10243
5.08412
5.06337
5.04345
5.0206
4.99423
4.96284
4.92666
4.88601
4.84115
4.79412
4.74575
4.69477
4.63948
4.57952
4.51234
4.44045
4.35815
4.27395
4.17835
4.08138
3.97376
3.86425
3.74629
3.62348
3.4912
1.40001
1.40001
1.40001
1.40001
1.40001
1.40001
1.40001
1.40001
1.40001
1.40001
1.40001
1.40001
1.40001
1.40001
1.40001
1.40001
1.40001
1.40001
1.40001
1.40001
1.40001
1.40001
1.40001
1.40001
1.40001
1.40001
1.40001
1.40001
1.40001
1.40001
1.40001
1.40001
1.40001
1.40001
1.40001
1.40001
1.40001
1.40001
1.40001
1.40001
1.40001
1.40001
1.40001
1.40001
1.40001
1.40001
1.40001
1.40001
1.40001
1.40001
1.40001
1.40001
1.40001
1.40001
1.40001
1.40001
1.54691
3.93955
5.19134
5.18676
5.17909
5.17113
5.16601
5.16137
5.15589
5.14812
5.13582
5.12183
5.10623
5.08636
5.0663
5.0465
5.02456
5.00233
4.97776
4.9519
4.92252
4.88714
4.84622
4.79981
4.75136
4.70232
4.65165
4.59729
4.53903
4.47351
4.40389
4.32295
4.24146
4.15232
4.06165
3.96417
3.86581
3.75611
3.6481
3.5293
1.40001
1.40001
1.40001
1.40001
1.40001
1.40001
1.40001
1.40001
1.40001
1.40001
1.40001
1.40001
1.40001
1.40001
1.40001
1.40001
1.40001
1.40001
1.40001
1.40001
1.40001
1.40001
1.40001
1.40001
1.40001
1.40001
1.40001
1.40001
1.40001
1.40001
1.40001
1.40001
1.40001
1.40001
1.40001
1.40001
1.40001
1.40001
1.40001
1.40001
1.40001
1.40001
1.40001
1.40001
1.40001
1.40001
1.40001
1.40001
1.40001
1.40001
1.40001
1.40001
1.40001
1.40001
1.40001
1.40001
1.40105
2.09176
4.75167
5.17875
5.14968
5.14748
5.1418
5.13635
5.13007
5.12119
5.10758
5.09081
5.07466
5.0539
5.03199
5.01005
4.98644
4.96184
4.93563
4.90958
4.88211
4.84722
4.8069
4.76186
4.71341
4.66496
4.6142
4.5604
4.50329
4.44018
4.37367
4.29717
4.21804
4.13519
4.0491
3.96007
3.86704
3.76716
3.6704
3.5641
1.40001
1.40001
1.40001
1.40001
1.40001
1.40001
1.40001
1.40001
1.40001
1.40001
1.40001
1.40001
1.40001
1.40001
1.40001
1.40001
1.40001
1.40001
1.40001
1.40001
1.40001
1.40001
1.40001
1.40001
1.40001
1.40001
1.40001
1.40001
1.40001
1.40001
1.40001
1.40001
1.40001
1.40001
1.40001
1.40001
1.40001
1.40001
1.40001
1.40001
1.40001
1.40001
1.40001
1.40001
1.40001
1.40001
1.40001
1.40001
1.40001
1.40001
1.40001
1.40001
1.40001
1.40001
1.40001
1.40001
1.40001
1.42849
3.077
5.03621
5.13054
5.1295
5.12578
5.11877
5.11101
5.10002
5.0842
5.06445
5.04657
5.02529
5.00131
4.97733
4.95239
4.92594
4.89935
4.87243
4.84469
4.81044
4.77044
4.72682
4.68001
4.63157
4.58249
4.53012
4.47417
4.41262
4.34881
4.27746
4.20182
4.12447
4.04291
3.9595
3.87064
3.78193
3.69069
3.59499
1.40001
1.40001
1.40001
1.40001
1.40001
1.40001
1.40001
1.40001
1.40001
1.40001
1.40001
1.40001
1.40001
1.40001
1.40001
1.40001
1.40001
1.40001
1.40001
1.40001
1.40001
1.40001
1.40001
1.40001
1.40001
1.40001
1.40001
1.40001
1.40001
1.40001
1.40001
1.40001
1.40001
1.40001
1.40001
1.40001
1.40001
1.40001
1.40001
1.40001
1.40001
1.40001
1.40001
1.40001
1.40001
1.40001
1.40001
1.40001
1.40001
1.40001
1.40001
1.40001
1.40001
1.40001
1.40001
1.40001
1.40001
1.40006
1.57363
3.77405
5.08975
5.13096
5.11813
5.11115
5.10113
5.08738
5.06904
5.04581
5.02436
5.00187
4.97625
4.95015
4.92379
4.896
4.86893
4.84097
4.81144
4.77789
4.73795
4.69533
4.64943
4.60136
4.55296
4.50209
4.44791
4.38861
4.3272
4.2609
4.18996
4.11763
4.04116
3.96134
3.87944
3.79799
3.71038
3.6237
1.40001
1.40001
1.40001
1.40001
1.40001
1.40001
1.40001
1.40001
1.40001
1.40001
1.40001
1.40001
1.40001
1.40001
1.40001
1.40001
1.40001
1.40001
1.40001
1.40001
1.40001
1.40001
1.40001
1.40001
1.40001
1.40001
1.40001
1.40001
1.40001
1.40001
1.40001
1.40001
1.40001
1.40001
1.40001
1.40001
1.40001
1.40001
1.40001
1.40001
1.40001
1.40001
1.40001
1.40001
1.40001
1.40001
1.40001
1.40001
1.40001
1.40001
1.40001
1.40001
1.40001
1.40001
1.40001
1.40001
1.40001
1.40001
1.40159
1.79597
4.46949
5.17118
5.13853
5.1157
5.09149
5.07005
5.04755
5.02222
4.99867
4.97593
4.95124
4.92485
4.89796
4.87052
4.84319
4.81451
4.78284
4.74879
4.70822
4.66559
4.62055
4.57373
4.52626
4.47651
4.42494
4.36937
4.31085
4.24831
4.18179
4.11357
4.04185
3.96551
3.89058
3.81262
3.73051
3.65038
1.40001
1.40001
1.40001
1.40001
1.40001
1.40001
1.40001
1.40001
1.40001
1.40001
1.40001
1.40001
1.40001
1.40001
1.40001
1.40001
1.40001
1.40001
1.40001
1.40001
1.40001
1.40001
1.40001
1.40001
1.40001
1.40001
1.40001
1.40001
1.40001
1.40001
1.40001
1.40001
1.40001
1.40001
1.40001
1.40001
1.40001
1.40001
1.40001
1.40001
1.40001
1.40001
1.40001
1.40001
1.40001
1.40001
1.40001
1.40001
1.40001
1.40001
1.40001
1.40001
1.40001
1.40001
1.40001
1.40001
1.40001
1.40001
1.40001
1.40856
2.54687
4.8953
5.10824
5.07776
5.05692
5.03629
5.01657
4.99487
4.97412
4.9529
4.93052
4.90586
4.87871
4.85071
4.82293
4.79289
4.75957
4.72395
4.68327
4.64025
4.59542
4.54936
4.50261
4.45411
4.40455
4.35219
4.29658
4.23734
4.17473
4.11011
4.04248
3.97054
3.90106
3.8258
3.74975
3.67475
1.40001
1.40001
1.40001
1.40001
1.40001
1.40001
1.40001
1.40001
1.40001
1.40001
1.40001
1.40001
1.40001
1.40001
1.40001
1.40001
1.40001
1.40001
1.40001
1.40001
1.40001
1.40001
1.40001
1.40001
1.40001
1.40001
1.40001
1.40001
1.40001
1.40001
1.40001
1.40001
1.40001
1.40001
1.40001
1.40001
1.40001
1.40001
1.40001
1.40001
1.40001
1.40001
1.40001
1.40001
1.40001
1.40001
1.40001
1.40001
1.40001
1.40001
1.40001
1.40001
1.40001
1.40001
1.40001
1.40001
1.40001
1.40001
1.40001
1.40002
1.47603
3.19134
4.98656
5.04032
5.02681
5.02101
5.00762
4.99034
4.97054
4.94851
4.92473
4.8988
4.87094
4.84085
4.81172
4.78004
4.74388
4.70627
4.66465
4.62067
4.57542
4.52942
4.48326
4.43598
4.38796
4.33842
4.28567
4.22969
4.17035
4.10876
4.04423
3.97665
3.91058
3.83823
3.76735
3.6969
1.40001
1.40001
1.40001
1.40001
1.40001
1.40001
1.40001
1.40001
1.40001
1.40001
1.40001
1.40001
1.40001
1.40001
1.40001
1.40001
1.40001
1.40001
1.40001
1.40001
1.40001
1.40001
1.40001
1.40001
1.40001
1.40001
1.40001
1.40001
1.40001
1.40001
1.40001
1.40001
1.40001
1.40001
1.40001
1.40001
1.40001
1.40001
1.40001
1.40001
1.40001
1.40001
1.40001
1.40001
1.40001
1.40001
1.40001
1.40001
1.40001
1.40001
1.40001
1.40001
1.40001
1.40001
1.40001
1.40001
1.40001
1.40001
1.40001
1.40001
1.40039
1.59678
3.57797
4.98435
5.01153
5.00599
4.99677
4.9819
4.96359
4.94246
4.91887
4.89288
4.86488
4.83417
4.80268
4.7695
4.73219
4.69293
4.65055
4.60621
4.56079
4.51476
4.46856
4.42187
4.37473
4.32682
4.27638
4.22327
4.16662
4.10789
4.04629
3.98279
3.91925
3.85041
3.78341
3.71704
1.40001
1.40001
1.40001
1.40001
1.40001
1.40001
1.40001
1.40001
1.40001
1.40001
1.40001
1.40001
1.40001
1.40001
1.40001
1.40001
1.40001
1.40001
1.40001
1.40001
1.40001
1.40001
1.40001
1.40001
1.40001
1.40001
1.40001
1.40001
1.40001
1.40001
1.40001
1.40001
1.40001
1.40001
1.40001
1.40001
1.40001
1.40001
1.40001
1.40001
1.40001
1.40001
1.40001
1.40001
1.40001
1.40001
1.40001
1.40001
1.40001
1.40001
1.40001
1.40001
1.40001
1.40001
1.40001
1.40001
1.40001
1.40001
1.40001
1.40001
1.40001
1.40217
1.71736
3.89073
5.00866
5.00789
4.9925
4.97445
4.95444
4.93259
4.90909
4.88411
4.85702
4.82699
4.79527
4.76153
4.7247
4.68509
4.64281
4.59862
4.55333
4.50742
4.46129
4.41464
4.36794
4.32059
4.27116
4.21948
4.16472
4.10803
4.04873
3.98838
3.92723
3.86227
3.79844
3.73566
1.40001
1.40001
1.40001
1.40001
1.40001
1.40001
1.40001
1.40001
1.40001
1.40001
1.40001
1.40001
1.40001
1.40001
1.40001
1.40001
1.40001
1.40001
1.40001
1.40001
1.40001
1.40001
1.40001
1.40001
1.40001
1.40001
1.40001
1.40001
1.40001
1.40001
1.40001
1.40001
1.40001
1.40001
1.40001
1.40001
1.40001
1.40001
1.40001
1.40001
1.40001
1.40001
1.40001
1.40001
1.40001
1.40001
1.40001
1.40001
1.40001
1.40001
1.40001
1.40001
1.40001
1.40001
1.40001
1.40001
1.40001
1.40001
1.40001
1.40001
1.40001
1.40001
1.40548
1.85029
4.1697
5.01547
4.99968
4.9761
4.95139
4.92637
4.9005
4.87424
4.84629
4.81652
4.7855
4.75204
4.71583
4.67699
4.63601
4.59333
4.5493
4.50443
4.45891
4.41235
4.36563
4.31847
4.26943
4.21774
4.16378
4.10846
4.0516
3.99404
3.93546
3.87413
3.81301
3.75311
1.40001
1.40001
1.40001
1.40001
1.40001
1.40001
1.40001
1.40001
1.40001
1.40001
1.40001
1.40001
1.40001
1.40001
1.40001
1.40001
1.40001
1.40001
1.40001
1.40001
1.40001
1.40001
1.40001
1.40001
1.40001
1.40001
1.40001
1.40001
1.40001
1.40001
1.40001
1.40001
1.40001
1.40001
1.40001
1.40001
1.40001
1.40001
1.40001
1.40001
1.40001
1.40001
1.40001
1.40001
1.40001
1.40001
1.40001
1.40001
1.40001
1.40001
1.40001
1.40001
1.40001
1.40001
1.40001
1.40001
1.40001
1.40001
1.40001
1.40001
1.40001
1.40001
1.40002
1.41094
2.00048
4.37552
5.02409
4.99752
4.96741
4.93512
4.90546
4.87465
4.84211
4.80965
4.77677
4.74258
4.70684
4.66938
4.63036
4.5899
4.54796
4.50472
4.46007
4.41408
4.36745
4.32027
4.27152
4.21984
4.1663
4.11238
4.05794
4.00248
3.94586
3.88697
3.82785
3.76987
1.40001
1.40001
1.40001
1.40001
1.40001
1.40001
1.40001
1.40001
1.40001
1.40001
1.40001
1.40001
1.40001
1.40001
1.40001
1.40001
1.40001
1.40001
1.40001
1.40001
1.40001
1.40001
1.40001
1.40001
1.40001
1.40001
1.40001
1.40001
1.40001
1.40001
1.40001
1.40001
1.40001
1.40001
1.40001
1.40001
1.40001
1.40001
1.40001
1.40001
1.40001
1.40001
1.40001
1.40001
1.40001
1.40001
1.40001
1.40001
1.40001
1.40001
1.40001
1.40001
1.40001
1.40001
1.40001
1.40001
1.40001
1.40001
1.40001
1.40001
1.40001
1.40001
1.40001
1.40004
1.41948
2.14562
4.54662
5.02377
4.99327
4.95761
4.91994
4.8827
4.84599
4.81015
4.7739
4.73766
4.70102
4.66365
4.62547
4.58636
4.54599
4.50411
4.46054
4.41575
4.37007
4.32348
4.27546
4.22495
4.17268
4.12024
4.06737
4.01312
3.95781
3.90059
3.84303
3.78619
1.40001
1.40001
1.40001
1.40001
1.40001
1.40001
1.40001
1.40001
1.40001
1.40001
1.40001
1.40001
1.40001
1.40001
1.40001
1.40001
1.40001
1.40001
1.40001
1.40001
1.40001
1.40001
1.40001
1.40001
1.40001
1.40001
1.40001
1.40001
1.40001
1.40001
1.40001
1.40001
1.40001
1.40001
1.40001
1.40001
1.40001
1.40001
1.40001
1.40001
1.40001