/*--------------------------------*- C++ -*----------------------------------*\
  =========                 |
  \\      /  F ield         | OpenFOAM: The Open Source CFD Toolbox
   \\    /   O peration     | Website:  https://openfoam.org
    \\  /    A nd           | Version:  7
     \\/     M anipulation  |
\*---------------------------------------------------------------------------*/
FoamFile
{
    version     2.0;
    format      ascii;
    class       volScalarField;
    location    "5.8";
    object      T;
}
// * * * * * * * * * * * * * * * * * * * * * * * * * * * * * * * * * * * * * //

dimensions      [0 0 0 1 0 0 0];

internalField   nonuniform List<scalar> 
19968
(
1
1
1
1
1
1
1
1
1
1
1
1
1
1
1
1
1
1
1
1
1
1
1
1
1
1
1
1
1
1
1
1
1
1
1
1
1
1
1
1
1
1
1
1
1
1
1
1
1.27226
2.45719
2.69365
2.69389
2.69621
2.69932
2.70351
2.70871
2.71451
2.71994
2.72415
2.72694
2.72894
2.73105
2.73408
2.73833
2.74336
2.74829
2.75226
2.75494
2.75675
2.75852
2.76089
2.76407
2.76771
2.77114
2.77384
2.77579
2.77737
2.77902
2.78104
2.78349
2.78619
2.78886
2.7912
2.79302
2.7943
2.79516
2.79587
2.7967
2.79782
2.79922
2.8007
2.80198
2.80288
2.80339
2.8036
2.80375
1
1
1
1
1
1
1
1
1
1
1
1
1
1
1
1
1
1
1
1
1
1
1
1
1
1
1
1
1
1
1
1
1
1
1
1
1
1
1
1
1
1
1
1
1
1
1
1
1.25935
2.4508
2.69257
2.69317
2.69597
2.69935
2.7037
2.70894
2.71461
2.71984
2.72389
2.72662
2.72867
2.73085
2.73391
2.73815
2.74314
2.74803
2.75196
2.75463
2.75646
2.75825
2.76064
2.76382
2.76746
2.77089
2.77362
2.7756
2.7772
2.77886
2.78085
2.78325
2.78587
2.78847
2.79076
2.79256
2.79385
2.79475
2.79551
2.79637
2.7975
2.79888
2.80032
2.80155
2.8024
2.80288
2.80308
2.80322
1
1
1
1
1
1
1
1
1
1
1
1
1
1
1
1
1
1
1
1
1
1
1
1
1
1
1
1
1
1
1
1
1
1
1
1
1
1
1
1
1
1
1
1
1
1
1
1
1.22787
2.43347
2.69032
2.69175
2.69547
2.69932
2.70396
2.70919
2.7145
2.71928
2.72304
2.72571
2.72792
2.73032
2.73354
2.7378
2.7427
2.74748
2.75134
2.75401
2.75587
2.75771
2.76013
2.76331
2.76693
2.77036
2.77312
2.77517
2.77683
2.77852
2.7805
2.78282
2.78534
2.78782
2.79001
2.79177
2.79308
2.79406
2.79492
2.79586
2.79701
2.79836
2.79972
2.80087
2.80167
2.80212
2.80232
2.80245
1
1
1
1
1
1
1
1
1
1
1
1
1
1
1
1
1
1
1
1
1
1
1
1
1
1
1
1
1
1
1
1
1
1
1
1
1
1
1
1
1
1
1
1
1
1
1
1
1.18227
2.40544
2.68706
2.6906
2.69537
2.69977
2.70454
2.70948
2.7142
2.71836
2.72175
2.72442
2.72689
2.72964
2.73309
2.73736
2.74211
2.7467
2.75046
2.75313
2.75508
2.757
2.75945
2.76262
2.76619
2.76961
2.77241
2.77453
2.77627
2.77799
2.77994
2.78217
2.78456
2.78687
2.78891
2.79057
2.79187
2.79293
2.79389
2.79493
2.79612
2.79744
2.79871
2.79976
2.8005
2.80092
2.80112
2.80125
1
1
1
1
1
1
1
1
1
1
1
1
1
1
1
1
1
1
1
1
1
1
1
1
1
1
1
1
1
1
1
1
1
1
1
1
1
1
1
1
1
1
1
1
1
1
1
1
1.12178
2.36666
2.68407
2.68969
2.69542
2.70034
2.70507
2.70952
2.71359
2.71718
2.72032
2.7231
2.72593
2.72907
2.73272
2.73693
2.74145
2.74581
2.74944
2.75216
2.75425
2.75629
2.75878
2.76188
2.76535
2.76871
2.77153
2.77374
2.77556
2.77733
2.77926
2.78142
2.78368
2.78582
2.7877
2.78924
2.79052
2.79163
2.79271
2.79384
2.79505
2.79627
2.79738
2.79824
2.79881
2.79912
2.79926
2.79933
1
1
1
1
1
1
1
1
1
1
1
1
1
1
1
1
1
1
1
1
1
1
1
1
1
1
1
1
1
1
1
1
1
1
1
1
1
1
1
1
1
1
1
1
1
1
1
1
1.0057
2.29816
2.68289
2.69044
2.69604
2.70127
2.70572
2.70965
2.71301
2.71607
2.71911
2.72222
2.72552
2.72906
2.73281
2.73683
2.74094
2.74488
2.74827
2.75098
2.7532
2.75537
2.75787
2.76083
2.76407
2.76724
2.76999
2.77223
2.77412
2.77592
2.77783
2.77992
2.78205
2.78404
2.78575
2.78718
2.78841
2.78959
2.79079
2.79208
2.79339
2.79463
2.79566
2.79641
2.79685
2.79705
2.79711
2.7971
1
1
1
1
1
1
1
1
1
1
1
1
1
1
1
1
1
1
1
1
1
1
1
1
1
1
1
1
1
1
1
1
1
1
1
1
1
1
1
1
1
1
1
1
1
1
1
1
1.00002
2.20766
2.67759
2.68753
2.69265
2.69803
2.70245
2.70635
2.70956
2.71258
2.71577
2.71925
2.72299
2.72691
2.73085
2.73477
2.73856
2.74214
2.74536
2.74813
2.75061
2.75306
2.75569
2.75859
2.76164
2.76463
2.76733
2.76963
2.77162
2.77352
2.77548
2.77754
2.77961
2.7815
2.7831
2.78444
2.78564
2.78683
2.78812
2.78953
2.79095
2.79222
2.79319
2.79382
2.79412
2.79416
2.79409
2.79399
1
1
1
1
1
1
1
1
1
1
1
1
1
1
1
1
1
1
1
1
1
1
1
1
1
1
1
1
1
1
1
1
1
1
1
1
1
1
1
1
1
1
1
1
1
1
1
1
1
2.07914
2.66807
2.68499
2.68891
2.69378
2.69805
2.70215
2.70584
2.70936
2.71293
2.71668
2.72053
2.72449
2.7284
2.73218
2.73576
2.73913
2.74228
2.74514
2.74784
2.75053
2.7533
2.75615
2.75901
2.76179
2.76437
2.76668
2.76877
2.77075
2.77274
2.77477
2.77674
2.77854
2.78007
2.78134
2.78248
2.78364
2.78494
2.78639
2.78786
2.78914
2.79008
2.79062
2.79077
2.7906
2.79038
2.79017
1
1
1
1
1
1
1
1
1
1
1
1
1
1
1
1
1
1
1
1
1
1
1
1
1
1
1
1
1
1
1
1
1
1
1
1
1
1
1
1
1
1
1
1
1
1
1
1
1
1.90449
2.63959
2.67843
2.68258
2.68752
2.69194
2.69634
2.70055
2.70469
2.70877
2.71287
2.71689
2.72082
2.72463
2.72826
2.73171
2.73498
2.73811
2.74104
2.74389
2.74677
2.74963
2.75244
2.75511
2.75769
2.76016
2.76249
2.76467
2.76675
2.76878
2.77078
2.77268
2.77442
2.7759
2.77715
2.77825
2.77936
2.78061
2.78205
2.78355
2.78488
2.78582
2.78632
2.78636
2.78607
2.78571
2.78542
1
1
1
1
1
1
1
1
1
1
1
1
1
1
1
1
1
1
1
1
1
1
1
1
1
1
1
1
1
1
1
1
1
1
1
1
1
1
1
1
1
1
1
1
1
1
1
1
1
1.67356
2.58234
2.67156
2.67711
2.68227
2.68653
2.69072
2.695
2.69944
2.70388
2.70826
2.71245
2.71633
2.72001
2.72352
2.72691
2.73016
2.73334
2.73635
2.73928
2.74223
2.74509
2.74784
2.75034
2.75273
2.75505
2.75732
2.7595
2.76159
2.7636
2.76555
2.76739
2.7691
2.7706
2.77188
2.773
2.77408
2.77526
2.77661
2.77803
2.7793
2.78018
2.78058
2.78051
2.78011
2.77962
2.77928
1
1
1
1
1
1
1
1
1
1
1
1
1
1
1
1
1
1
1
1
1
1
1
1
1
1
1
1
1
1
1
1
1
1
1
1
1
1
1
1
1
1
1
1
1
1
1
1
1
1.36519
2.47507
2.67092
2.6728
2.67861
2.68201
2.68566
2.68961
2.69398
2.69851
2.70292
2.70716
2.71102
2.7146
2.71806
2.72146
2.7247
2.72789
2.73095
2.73389
2.73686
2.73972
2.74243
2.74487
2.74716
2.74938
2.75156
2.75368
2.7557
2.75761
2.75942
2.7611
2.76264
2.76398
2.7651
2.76607
2.76698
2.768
2.76917
2.77044
2.77164
2.77252
2.77292
2.77287
2.77251
2.77201
2.7717
1
1
1
1
1
1
1
1
1
1
1
1
1
1
1
1
1
1
1
1
1
1
1
1
1
1
1
1
1
1
1
1
1
1
1
1
1
1
1
1
1
1
1
1
1
1
1
1
1
1.01461
2.29189
2.67714
2.67721
2.67965
2.6823
2.68527
2.68828
2.69153
2.695
2.6986
2.70232
2.70588
2.70911
2.71222
2.71532
2.7183
2.72125
2.72415
2.72688
2.72966
2.7324
2.73501
2.73743
2.73965
2.74178
2.74385
2.74587
2.74781
2.74967
2.75143
2.75307
2.75455
2.75583
2.75691
2.75782
2.75867
2.75953
2.76047
2.76143
2.76225
2.76274
2.76279
2.7624
2.7618
2.76113
2.76076
1
1
1
1
1
1
1
1
1
1
1
1
1
1
1
1
1
1
1
1
1
1
1
1
1
1
1
1
1
1
1
1
1
1
1
1
1
1
1
1
1
1
1
1
1
1
1
1
1
1.00003
2.00782
2.64393
2.66285
2.66738
2.67213
2.67635
2.67991
2.68316
2.68641
2.68975
2.69324
2.69674
2.69999
2.70303
2.70604
2.70894
2.71173
2.71452
2.71718
2.71986
2.7226
2.72521
2.72767
2.72986
2.73191
2.73386
2.73572
2.73752
2.73926
2.74094
2.7425
2.74387
2.74498
2.74581
2.74637
2.74673
2.74701
2.74732
2.74769
2.74808
2.74837
2.74843
2.7481
2.7475
2.74674
2.74634
1
1
1
1
1
1
1
1
1
1
1
1
1
1
1
1
1
1
1
1
1
1
1
1
1
1
1
1
1
1
1
1
1
1
1
1
1
1
1
1
1
1
1
1
1
1
1
1
1
1
1.53294
2.51017
2.64786
2.65585
2.66362
2.6684
2.67223
2.67567
2.67912
2.68263
2.68618
2.68971
2.693
2.69594
2.69869
2.70128
2.7037
2.70612
2.70853
2.71095
2.71345
2.71587
2.71807
2.71996
2.72162
2.72312
2.72453
2.72584
2.72715
2.72848
2.72979
2.73095
2.73188
2.7325
2.73267
2.73252
2.73225
2.73205
2.732
2.73198
2.73167
2.7308
2.72887
2.72597
2.72262
2.71997
1
1
1
1
1
1
1
1
1
1
1
1
1
1
1
1
1
1
1
1
1
1
1
1
1
1
1
1
1
1
1
1
1
1
1
1
1
1
1
1
1
1
1
1
1
1
1
1
1
1
1.02637
2.24349
2.65593
2.6565
2.65958
2.66192
2.66426
2.66674
2.66957
2.67285
2.67643
2.68004
2.68343
2.6863
2.68876
2.69099
2.69308
2.6952
2.69741
2.69963
2.70187
2.70406
2.70597
2.70754
2.70876
2.70977
2.71061
2.71119
2.71184
2.71256
2.71336
2.71416
2.71472
2.71477
2.71423
2.71297
2.71117
2.70911
2.7069
2.7044
2.70141
2.69788
2.69424
2.6902
2.68717
2.68542
1
1
1
1
1
1
1
1
1
1
1
1
1
1
1
1
1
1
1
1
1
1
1
1
1
1
1
1
1
1
1
1
1
1
1
1
1
1
1
1
1
1
1
1
1
1
1
1
1
1
1.00004
1.74233
2.55648
2.63867
2.64397
2.64689
2.64938
2.65213
2.65537
2.6592
2.66347
2.6677
2.67151
2.67463
2.67715
2.67922
2.68103
2.68277
2.68465
2.68667
2.68877
2.69081
2.69257
2.6939
2.69472
2.69503
2.69499
2.6948
2.69453
2.69419
2.6939
2.69371
2.6934
2.69261
2.69096
2.68826
2.68467
2.68056
2.67619
2.67161
2.66658
2.6611
2.65552
2.65298
2.65001
2.6645
1
1
1
1
1
1
1
1
1
1
1
1
1
1
1
1
1
1
1
1
1
1
1
1
1
1
1
1
1
1
1
1
1
1
1
1
1
1
1
1
1
1
1
1
1
1
1
1
1
1
1
1.10266
2.33728
2.63477
2.63455
2.63611
2.63853
2.64098
2.64393
2.64756
2.65186
2.65631
2.66032
2.66358
2.66608
2.66795
2.66942
2.6708
2.67236
2.67418
2.67612
2.678
2.67961
2.68065
2.68101
2.68076
2.68007
2.67911
2.67791
2.67652
2.67503
2.67357
2.67199
2.66994
2.66689
2.66248
2.65657
2.64927
2.64043
2.6297
2.61518
2.59524
2.56544
2.52314
2.45994
2.33418
1
1
1
1
1
1
1
1
1
1
1
1
1
1
1
1
1
1
1
1
1
1
1
1
1
1
1
1
1
1
1
1
1
1
1
1
1
1
1
1
1
1
1
1
1
1
1
1
1
1
1
1.00082
2.00776
2.60778
2.61559
2.61947
2.62369
2.62737
2.63101
2.63476
2.63884
2.64322
2.64745
2.6511
2.65405
2.65628
2.65794
2.65923
2.66062
2.66224
2.664
2.66572
2.66718
2.66811
2.66828
2.66782
2.66673
2.66513
2.66315
2.66086
2.65836
2.65568
2.65273
2.64922
2.64457
2.63836
2.63005
2.61964
2.60634
2.58997
2.56755
2.53752
2.49324
2.43711
2.32401
2.16342
1
1
1
1
1
1
1
1
1
1
1
1
1
1
1
1
1
1
1
1
1
1
1
1
1
1
1
1
1
1
1
1
1
1
1
1
1
1
1
1
1
1
1
1
1
1
1
1
1
1
1
0.999999
1.39472
2.44007
2.59705
2.60543
2.61152
2.61508
2.61882
2.62269
2.62685
2.63114
2.63528
2.63894
2.64197
2.64433
2.64597
2.64729
2.64868
2.6502
2.65174
2.65313
2.65425
2.65495
2.65496
2.65443
2.65306
2.65086
2.64804
2.64478
2.64116
2.63723
2.6328
2.62769
2.62124
2.61315
2.60254
2.58931
2.57243
2.55143
2.52418
2.48758
2.43924
2.36594
2.26163
2.12949
1
1
1
1
1
1
1
1
1
1
1
1
1
1
1
1
1
1
1
1
1
1
1
1
1
1
1
1
1
1
1
1
1
1
1
1
1
1
1
1
1
1
1
1
1
1
1
1
1
1
1
1
1.01515
2.12356
2.59657
2.59631
2.59816
2.60136
2.60541
2.61012
2.61513
2.61921
2.62262
2.62559
2.62804
2.63011
2.63185
2.63358
2.63535
2.63703
2.63844
2.63945
2.64005
2.6403
2.64017
2.6396
2.6382
2.63577
2.63236
2.62825
2.62354
2.61837
2.61252
2.60593
2.5979
2.58811
2.57564
2.56014
2.5408
2.51685
2.48706
2.44821
2.39908
2.33107
2.24576
2.14947
1
1
1
1
1
1
1
1
1
1
1
1
1
1
1
1
1
1
1
1
1
1
1
1
1
1
1
1
1
1
1
1
1
1
1
1
1
1
1
1
1
1
1
1
1
1
1
1
1
1
1
1
1.00001
1.46434
2.44541
2.5833
2.58694
2.59119
2.59418
2.59841
2.60344
2.60769
2.61097
2.61321
2.61464
2.61583
2.61727
2.61908
2.62113
2.62302
2.62445
2.6252
2.62532
2.62509
2.62455
2.62369
2.6222
2.61981
2.61625
2.61165
2.60606
2.59976
2.59263
2.58472
2.57543
2.56428
2.55051
2.53355
2.51284
2.48762
2.45741
2.41918
2.37331
2.31665
2.24954
2.17319
1
1
1
1
1
1
1
1
1
1
1
1
1
1
1
1
1
1
1
1
1
1
1
1
1
1
1
1
1
1
1
1
1
1
1
1
1
1
1
1
1
1
1
1
1
1
1
1
1
1
1
1
1
1.02094
2.11775
2.58296
2.58408
2.58457
2.58613
2.58923
2.59335
2.59669
2.5992
2.60077
2.60126
2.60176
2.60276
2.60441
2.60653
2.60853
2.60993
2.61042
2.61022
2.60955
2.60835
2.60687
2.60503
2.60265
2.59927
2.59465
2.58862
2.58146
2.57331
2.56433
2.5541
2.5421
2.52763
2.51004
2.48902
2.46357
2.43439
2.3982
2.35734
2.31089
2.256
2.19531
1
1
1
1
1
1
1
1
1
1
1
1
1
1
1
1
1
1
1
1
1
1
1
1
1
1
1
1
1
1
1
1
1
1
1
1
1
1
1
1
1
1
1
1
1
1
1
1
1
1
1
1
1
1.00003
1.40166
2.40957
2.57582
2.57506
2.5775
2.58119
2.58435
2.58665
2.58807
2.58873
2.58858
2.58844
2.58881
2.59
2.59177
2.5935
2.59458
2.59469
2.59433
2.59344
2.59182
2.5897
2.5873
2.58469
2.5814
2.57696
2.57087
2.56338
2.55475
2.54518
2.53439
2.52194
2.50722
2.48967
2.46912
2.44422
2.41646
2.38354
2.3474
2.30763
2.26119
2.21228
1
1
1
1
1
1
1
1
1
1
1
1
1
1
1
1
1
1
1
1
1
1
1
1
1
1
1
1
1
1
1
1
1
1
1
1
1
1
1
1
1
1
1
1
1
1
1
1
1
1
1
1
1
1
1.01423
2.02812
2.55214
2.56706
2.56864
2.57173
2.57484
2.57721
2.57853
2.57873
2.57828
2.57749
2.57726
2.5778
2.57877
2.57971
2.58006
2.57971
2.57875
2.57737
2.57531
2.57266
2.5697
2.56662
2.56316
2.55872
2.55268
2.54521
2.53657
2.52686
2.51591
2.50339
2.48885
2.47181
2.45233
2.42867
2.40282
2.37342
2.34071
2.30645
2.26675
2.22568
1
1
1
1
1
1
1
1
1
1
1
1
1
1
1
1
1
1
1
1
1
1
1
1
1
1
1
1
1
1
1
1
1
1
1
1
1
1
1
1
1
1
1
1
1
1
1
1
1
1
1
1
1
1
1.00001
1.21733
2.33471
2.56088
2.55859
2.56098
2.56335
2.56588
2.5674
2.56755
2.5671
2.5661
2.56536
2.56549
2.56572
2.5657
2.5655
2.56473
2.56309
2.56116
2.55865
2.55572
2.55248
2.54901
2.54509
2.54029
2.5342
2.52699
2.5187
2.50925
2.49855
2.48625
2.47223
2.45579
2.43764
2.41556
2.39218
2.36542
2.33635
2.306
2.27183
2.23558
1
1
1
1
1
1
1
1
1
1
1
1
1
1
1
1
1
1
1
1
1
1
1
1
1
1
1
1
1
1
1
1
1
1
1
1
1
1
1
1
1
1
1
1
1
1
1
1
1
1
1
1
1
1
1
1.00337
1.83744
2.49245
2.53714
2.54581
2.55053
2.55259
2.554
2.55459
2.55446
2.55394
2.55321
2.55309
2.55288
2.55237
2.55172
2.55062
2.54845
2.54587
2.5427
2.53939
2.5359
2.5321
2.52768
2.52225
2.51594
2.50887
2.50091
2.49183
2.48168
2.46985
2.45676
2.44091
2.42405
2.40396
2.38289
2.35873
2.3335
2.30581
2.27633
2.24383
1
1
1
1
1
1
1
1
1
1
1
1
1
1
1
1
1
1
1
1
1
1
1
1
1
1
1
1
1
1
1
1
1
1
1
1
1
1
1
1
1
1
1
1
1
1
1
1
1
1
1
1
1
1
1
1
1.0965
2.18793
2.53284
2.53928
2.53919
2.53945
2.54036
2.54131
2.54177
2.54176
2.54137
2.54117
2.54091
2.5401
2.53912
2.53765
2.53505
2.53173
2.52778
2.52403
2.52036
2.51626
2.51149
2.50562
2.49901
2.49184
2.48396
2.47508
2.46535
2.45407
2.44185
2.42684
2.41121
2.39319
2.37409
2.35272
2.33049
2.30497
2.27933
2.25049
1
1
1
1
1
1
1
1
1
1
1
1
1
1
1
1
1
1
1
1
1
1
1
1
1
1
1
1
1
1
1
1
1
1
1
1
1
1
1
1
1
1
1
1
1
1
1
1
1
1
1
1
1
1
1
1
1.00062
1.43621
2.35994
2.51751
2.51728
2.52028
2.52282
2.5249
2.52623
2.52688
2.52706
2.52728
2.52779
2.52727
2.52627
2.5246
2.52177
2.518
2.51359
2.50948
2.50573
2.5012
2.49612
2.49022
2.4834
2.47618
2.4681
2.45912
2.44942
2.43857
2.42714
2.41345
2.39887
2.3829
2.36551
2.34671
2.32624
2.30347
2.28093
2.25562
1
1
1
1
1
1
1
1
1
1
1
1
1
1
1
1
1
1
1
1
1
1
1
1
1
1
1
1
1
1
1
1
1
1
1
1
1
1
1
1
1
1
1
1
1
1
1
1
1
1
1
1
1
1
1
1
1
1.017
1.88651
2.47108
2.50064
2.50564
2.5081
2.5097
2.51108
2.51188
2.5123
2.51278
2.5139
2.51376
2.5129
2.51123
2.50847
2.50464
2.50036
2.49609
2.49214
2.48747
2.48212
2.47623
2.4695
2.46204
2.45401
2.44497
2.4351
2.42419
2.41312
2.40057
2.38701
2.37274
2.35697
2.34
2.32111
2.3016
2.28078
2.25857
1
1
1
1
1
1
1
1
1
1
1
1
1
1
1
1
1
1
1
1
1
1
1
1
1
1
1
1
1
1
1
1
1
1
1
1
1
1
1
1
1
1
1
1
1
1
1
1
1
1
1
1
1
1
1
1
1
1.00003
1.11505
2.12035
2.48159
2.49744
2.49592
2.4969
2.49787
2.49856
2.49896
2.49916
2.49997
2.5
2.49928
2.49762
2.49497
2.49129
2.48731
2.48314
2.47901
2.47457
2.46924
2.46349
2.45687
2.44934
2.44121
2.43214
2.42217
2.41121
2.40013
2.38834
2.3757
2.3627
2.3484
2.33277
2.31601
2.29871
2.27937
2.25967
1
1
1
1
1
1
1
1
1
1
1
1
1
1
1
1
1
1
1
1
1
1
1
1
1
1
1
1
1
1
1
1
1
1
1
1
1
1
1
1
1
1
1
1
1
1
1
1
1
1
1
1
1
1
1
1
1
1
1.0009
1.26418
2.26654
2.48071
2.47947
2.48034
2.48083
2.48192
2.48295
2.48353
2.48437
2.48465
2.48424
2.48293
2.48061
2.47743
2.47388
2.47002
2.46587
2.4617
2.45656
2.45106
2.4448
2.43762
2.42966
2.42065
2.41089
2.40023
2.38918
2.37765
2.36558
2.35329
2.34007
2.32546
2.31063
2.29452
2.27685
2.25909
1
1
1
1
1
1
1
1
1
1
1
1
1
1
1
1
1
1
1
1
1
1
1
1
1
1
1
1
1
1
1
1
1
1
1
1
1
1
1
1
1
1
1
1
1
1
1
1
1
1
1
1
1
1
1
1
1
1
1
1.00501
1.64435
2.3734
2.45701
2.45438
2.45618
2.45887
2.46191
2.46428
2.4664
2.46765
2.46765
2.46706
2.46533
2.46269
2.45969
2.45618
2.45229
2.44839
2.44378
2.43873
2.43299
2.42636
2.41881
2.41015
2.40071
2.39043
2.37956
2.36822
2.35653
2.34468
2.3322
2.31855
2.30507
2.28974
2.27368
2.25746
1
1
1
1
1
1
1
1
1
1
1
1
1
1
1
1
1
1
1
1
1
1
1
1
1
1
1
1
1
1
1
1
1
1
1
1
1
1
1
1
1
1
1
1
1
1
1
1
1
1
1
1
1
1
1
1
1
1
1
1.00001
1.04632
1.90173
2.41523
2.44375
2.44331
2.4454
2.44718
2.4489
2.45041
2.45141
2.45139
2.45087
2.44956
2.44732
2.44487
2.44187
2.43822
2.43469
2.43066
2.42616
2.42104
2.41506
2.40814
2.4001
2.39117
2.3815
2.37106
2.36012
2.34879
2.33729
2.3253
2.31255
2.29986
2.28527
2.27049
2.2554
1
1
1
1
1
1
1
1
1
1
1
1
1
1
1
1
1
1
1
1
1
1
1
1
1
1
1
1
1
1
1
1
1
1
1
1
1
1
1
1
1
1
1
1
1
1
1
1
1
1
1
1
1
1
1
1
1
1
1
1
1.00019
1.12901
2.0192
2.41031
2.43458
2.43732
2.43832
2.43808
2.43776
2.43732
2.43654
2.43534
2.43374
2.43155
2.42912
2.42645
2.42328
2.42014
2.41668
2.41283
2.40841
2.40315
2.3969
2.38956
2.38129
2.37228
2.36249
2.35218
2.34136
2.33038
2.31896
2.30713
2.29509
2.28143
2.26764
2.25351
1
1
1
1
1
1
1
1
1
1
1
1
1
1
1
1
1
1
1
1
1
1
1
1
1
1
1
1
1
1
1
1
1
1
1
1
1
1
1
1
1
1
1
1
1
1
1
1
1
1
1
1
1
1
1
1
1
1
1
1
1
1.00117
1.2077
2.09612
2.39658
2.42891
2.42842
2.42798
2.42702
2.42558
2.42382
2.42191
2.41973
2.41716
2.41447
2.41173
2.40882
2.40585
2.4027
2.39924
2.39527
2.39058
2.38497
2.3783
2.37075
2.36244
2.35335
2.3437
2.33352
2.32318
2.31248
2.30161
2.29037
2.27785
2.26503
2.2519
1
1
1
1
1
1
1
1
1
1
1
1
1
1
1
1
1
1
1
1
1
1
1
1
1
1
1
1
1
1
1
1
1
1
1
1
1
1
1
1
1
1
1
1
1
1
1
1
1
1
1
1
1
1
1
1
1
1
1
1
1
1
1.00303
1.28836
2.14868
2.38801
2.41028
2.41347
2.41342
2.41282
2.41142
2.40952
2.40706
2.40427
2.40143
2.39845
2.39538
2.39225
2.38906
2.38565
2.38181
2.37737
2.37213
2.36592
2.35897
2.35134
2.34294
2.33387
2.32439
2.31482
2.30513
2.29535
2.28516
2.27394
2.26218
2.25011
1
1
1
1
1
1
1
1
1
1
1
1
1
1
1
1
1
1
1
1
1
1
1
1
1
1
1
1
1
1
1
1
1
1
1
1
1
1
1
1
1
1
1
1
1
1
1
1
1
1
1
1
1
1
1
1
1
1
1
1
1
1
1
1.00613
1.3699
2.18805
2.37445
2.39039
2.39505
2.39631
2.39629
2.39536
2.3935
2.39125
2.38871
2.38591
2.38295
2.37983
2.37655
2.373
2.36901
2.36445
2.35921
2.35322
2.34658
2.33939
2.33159
2.32308
2.31433
2.30575
2.29722
2.28849
2.27934
2.26929
2.25859
2.24751
1
1
1
1
1
1
1
1
1
1
1
1
1
1
1
1
1
1
1
1
1
1
1
1
1
1
1
1
1
1
1
1
1
1
1
1
1
1
1
1
1
1
1
1
1
1
1
1
1
1
1
1
1
1
1
1
1
1
1
1
1
1
1
1.00001
1.01107
1.44235
2.21856
2.36393
2.37076
2.37439
2.37606
2.37636
2.37596
2.37498
2.37347
2.37164
2.36948
2.36692
2.36393
2.36045
2.35642
2.35175
2.34645
2.34056
2.33415
2.32725
2.31989
2.31203
2.30399
2.2962
2.28853
2.28064
2.27239
2.26335
2.25365
2.24346
1
1
1
1
1
1
1
1
1
1
1
1
1
1
1
1
1
1
1
1
1
1
1
1
1
1
1
1
1
1
1
1
1
1
1
1
1
1
1
1
1
1
1
1
1
1
1
1
1
1
1
1
1
1
1
1
1
1
1
1
1
1
1
1
1.00003
1.01748
1.52672
2.24238
2.35376
2.35366
2.35486
2.35496
2.35513
2.35536
2.35525
2.35485
2.35396
2.35239
2.3501
2.34712
2.34342
2.33903
2.33396
2.32832
2.32222
2.31566
2.30871
2.30139
2.29389
2.28661
2.27946
2.27214
2.26452
2.25629
2.24738
2.23795
1
1
1
1
1
1
1
1
1
1
1
1
1
1
1
1
1
1
1
1
1
1
1
1
1
1
1
1
1
1
1
1
1
1
1
1
1
1
1
1
1
1
1
1
1
1
1
1
1
1
1
1
1
1
1
1
1
1
1
1
1
1
1
1
1
1.00005
1.02803
1.59464
2.25637
2.34091
2.3384
2.33703
2.33647
2.3361
2.33615
2.3361
2.3358
2.33504
2.33365
2.33153
2.32865
2.32503
2.32069
2.31577
2.31032
2.30433
2.29789
2.29113
2.28419
2.27734
2.27052
2.26348
2.25614
2.2484
2.24
2.23125
1
1
1
1
1
1
1
1
1
1
1
1
1
1
1
1
1
1
1
1
1
1
1
1
1
1
1
1
1
1
1
1
1
1
1
1
1
1
1
1
1
1
1
1
1
1
1
1
1
1
1
1
1
1
1
1
1
1
1
1
1
1
1
1
1
1
1.0001
1.03986
1.61933
2.25199
2.32835
2.32579
2.32371
2.32208
2.3208
2.31963
2.31848
2.31716
2.31562
2.31386
2.31171
2.30903
2.30578
2.30194
2.29747
2.29238
2.28671
2.28064
2.27431
2.2679
2.26139
2.25456
2.24744
2.24003
2.23208
2.22387
1
1
1
1
1
1
1
1
1
1
1
1
1
1
1
1
1
1
1
1
1
1
1
1
1
1
1
1
1
1
1
1
1
1
1
1
1
1
1
1
1
1
1
1
1
1
1
1
1
1
1
1
1
1
1
1
1
1
1
1
1
1
1
1
1
1
1
1.00018
1.04558
1.60915
2.23664
2.31759
2.31536
2.31291
2.31022
2.30743
2.3047
2.30192
2.29925
2.29677
2.29432
2.29185
2.28919
2.28619
2.28269
2.27862
2.27397
2.26887
2.2634
2.25764
2.25163
2.24516
2.23839
2.23133
2.22392
2.21614
1
1
1
1
1
1
1
1
1
1
1
1
1
1
1
1
1
1
1
1
1
1
1
1
1
1
1
1
1
1
1
1
1
1
1
1
1
1
1
1
1
1
1
1
1
1
1
1
1
1
1
1
1
1
1
1
1
1
1
1
1
1
1
1
1
1
1
1
1.00023
1.04413
1.59453
2.21636
2.30582
2.30431
2.30101
2.29765
2.29382
2.2902
2.28669
2.28314
2.27971
2.27649
2.2734
2.27031
2.26707
2.26354
2.25967
2.25541
2.25078
2.24575
2.24039
2.23454
2.22841
2.22192
2.21526
2.20807
1
1
1
1
1
1
1
1
1
1
1
1
1
1
1
1
1
1
1
1
1
1
1
1
1
1
1
1
1
1
1
1
1
1
1
1
1
1
1
1
1
1
1
1
1
1
1
1
1
1
1
1
1
1
1
1
1
1
1
1
1
1
1
1
1
1
1
1
1
1.00022
1.04137
1.56627
2.18837
2.29301
2.29228
2.28866
2.28493
2.28086
2.27686
2.27279
2.26871
2.26462
2.2606
2.25667
2.25279
2.24893
2.24502
2.24097
2.23674
2.23226
2.2275
2.22244
2.21707
2.21143
2.20552
2.19919
1
1
1
1
1
1
1
1
1
1
1
1
1
1
1
1
1
1
1
1
1
1
1
1
1
1
1
1
1
1
1
1
1
1
1
1
1
1
1
1
1
1
1
1
1
1
1
1
1
1
1
1
1
1
1
1
1
1
1
1
1
1
1
1
1
1
1
1
1
1
1.0002
1.03611
1.5232
2.15134
2.27626
2.27944
2.27589
2.2725
2.26851
2.26433
2.25999
2.25549
2.25086
2.24618
2.24152
2.2369
2.23234
2.22783
2.22337
2.21888
2.21438
2.20969
2.2049
2.19988
2.19465
2.18887
1
1
1
1
1
1
1
1
1
1
1
1
1
1
1
1
1
1
1
1
1
1
1
1
1
1
1
1
1
1
1
1
1
1
1
1
1
1
1
1
1
1
1
1
1
1
1
1
1
1
1
1
1
1
1
1
1
1
1
1
1
1
1
1
1
1
1
1
1
1
1
1.00017
1.02898
1.46667
2.09882
2.2542
2.26772
2.26368
2.26017
2.25607
2.25182
2.24732
2.24261
2.23773
2.23273
2.22762
2.22254
2.21749
2.21258
2.20771
2.20292
2.19818
2.19319
2.18819
2.18287
2.17757
1
1
1
1
1
1
1
1
1
1
1
1
1
1
1
1
1
1
1
1
1
1
1
1
1
1
1
1
1
1
1
1
1
1
1
1
1
1
1
1
1
1
1
1
1
1
1
1
1
1
1
1
1
1
1
1
1
1
1
1
1
1
1
1
1
1
1
1
1
1
1
1
1.00012
1.02131
1.39541
2.02342
2.22736
2.25657
2.25008
2.24662
2.24285
2.23883
2.23456
2.23001
2.22521
2.22023
2.21514
2.21004
2.20483
2.19968
2.19425
2.18887
2.18329
2.17782
2.17229
2.16613
1
1
1
1
1
1
1
1
1
1
1
1
1
1
1
1
1
1
1
1
1
1
1
1
1
1
1
1
1
1
1
1
1
1
1
1
1
1
1
1
1
1
1
1
1
1
1
1
1
1
1
1
1
1
1
1
1
1
1
1
1
1
1
1
1
1
1
1
1
1
1
1
1
1.00008
1.01401
1.31146
1.91639
2.19659
2.23935
2.23452
2.23238
2.22978
2.22658
2.22286
2.21871
2.21423
2.20962
2.20463
2.19942
2.19371
2.18805
2.18184
2.17566
2.17087
2.16782
2.16889
1
1
1
1
1
1
1
1
1
1
1
1
1
1
1
1
1
1
1
1
1
1
1
1
1
1
1
1
1
1
1
1
1
1
1
1
1
1
1
1
1
1
1
1
1
1
1
1
1
1
1
1
1
1
1
1
1
1
1
1
1
1
1
1
1
1
1
1
1
1
1
1
1
1
1.00004
1.00813
1.21803
1.79178
2.15334
2.21874
2.21759
2.217
2.21507
2.21279
2.21014
2.20703
2.20311
2.19834
2.19313
2.1876
2.18196
2.17696
2.17719
2.1795
2.19174
2.21845
1
1
1
1
1
1
1
1
1
1
1
1
1
1
1
1
1
1
1
1
1
1
1
1
1
1
1
1
1
1
1
1
1
1
1
1
1
1
1
1
1
1
1
1
1
1
1
1
1
1
1
1
1
1
1
1
1
1
1
1
1
1
1
1
1
1
1
1
1
1
1
1
1
1
1
1.00002
1.00398
1.13495
1.65732
2.10259
2.19097
2.20093
2.19813
2.19798
2.19709
2.19529
2.19205
2.18805
2.18435
2.18167
2.18355
2.19135
2.21382
2.2491
2.29078
2.3277
1
1
1
1
1
1
1
1
1
1
1
1
1
1
1
1
1
1
1
1
1
1
1
1
1
1
1
1
1
1
1
1
1
1
1
1
1
1
1
1
1
1
1
1
1
1
1
1
1
1
1
1
1
1
1
1
1
1
1
1
1
1
1
1
1
1
1
1
1
1
1
1
1
1
1
1
1.00001
1.00166
1.0735
1.5259
2.02794
2.15925
2.18945
2.18196
2.18283
2.17912
2.17503
2.17653
2.18292
2.20005
2.23276
2.27655
2.32594
2.36092
2.38004
2.39007
1
1
1
1
1
1
1
1
1
1
1
1
1
1
1
1
1
1
1
1
1
1
1
1
1
1
1
1
1
1
1
1
1
1
1
1
1
1
1
1
1
1
1
1
1
1
1
1
1
1
1
1
1
1
1
1
1
1
1
1
1
1
1
1
1
1
1
1
1
1
1
1
1
1
1
1
1
1
1.0006
1.03585
1.39199
1.91487
2.13135
2.17039
2.16369
2.16182
2.17326
2.20172
2.24549
2.29806
2.34656
2.37561
2.38936
2.3953
2.39284
2.3869
1
1
1
1
1
1
1
1
1
1
1
1
1
1
1
1
1
1
1
1
1
1
1
1
1
1
1
1
1
1
1
1
1
1
1
1
1
1
1
1
1
1
1
1
1
1
1
1
1
1
1
1
1
1
1
1
1
1
1
1
1
1
1
1
1
1
1
1
1
1
1
1
1
1
1
1
1
1
1
1.00019
1.01563
1.25598
1.76225
2.10098
2.1369
2.1955
2.25385
2.31306
2.35388
2.37738
2.39728
2.3938
2.38502
2.38006
2.37609
2.3709
1
1
1
1
1
1
1
1
1
1
1
1
1
1
1
1
1
1
1
1
1
1
1
1
1
1
1
1
1
1
1
1
1
1
1
1
1
1
1
1
1
1
1
1
1
1
1
1
1
1
1
1
1
1
1
1
1
1
1
1
1
1
1
1
1
1
1
1
1
1
1
1
1
1
1
1
1
1
1
1
1.00005
1.00582
1.13857
1.58648
2.10299
2.35367
2.38765
2.40249
2.40092
2.39649
2.39329
2.38543
2.37598
2.36892
2.36356
2.35858
1
1
1
1
1
1
1
1
1
1
1
1
1
1
1
1
1
1
1
1
1
1
1
1
1
1
1
1
1
1
1
1
1
1
1
1
1
1
1
1
1
1
1
1
1
1
1
1
1
1
1
1
1
1
1
1
1
1
1
1
1
1
1
1
1
1
1
1
1
1
1
1
1
1
1
1
1
1
1
1
1
1.00001
1.00195
1.05319
2.175
2.57519
2.53924
2.50974
2.47976
2.45165
2.42857
2.41075
2.39522
2.383
2.37273
2.36322
1
1
1
1
1
1
1
1
1
1
1
1
1
1
1
1
1
1
1
1
1
1
1
1
1
1
1
1
1
1
1
1
1
1
1
1
1
1
1
1
1
1
1
1
1
1
1
1
1
1
1
1
1
1
1
1
1
1
1
1
1
1
1
1
1
1
1
1
1
1
1
1
1
1
1
1
1
1
1
1
1
1
1
1.0003
2.18517
2.66253
2.62568
2.58762
2.5545
2.5247
2.49704
2.47136
2.4481
2.42741
2.4102
2.39712
1
1
1
1
1
1
1
1
1
1
1
1
1
1
1
1
1
1
1
1
1
1
1
1
1
1
1
1
1
1
1
1
1
1
1
1
1
1
1
1
1
1
1
1
1
1
1
1
1
1
1
1
1
1
1
1
1
1
1
1
1
1
1
1
1
1
1
1
1
1
1
1
1
1
1
1
1
1
1
1
1
1
1
1
1.98646
2.68061
2.67456
2.65957
2.64206
2.62059
2.59789
2.5744
2.54964
2.52517
2.50186
2.48074
1
1
1
1
1
1
1
1
1
1
1
1
1
1
1
1
1
1
1
1
1
1
1
1
1
1
1
1
1
1
1
1
1
1
1
1
1
1
1
1
1
1
1
1
1
1
1
1
1
1
1
1
1
1
1
1
1
1
1
1
1
1
1
1
1
1
1
1
1
1
1
1
1
1
1
1
1
1
1
1
1
1
1
1
1.62101
2.5777
2.68146
2.67509
2.67053
2.66455
2.65468
2.64257
2.6275
2.61006
2.59058
2.56953
1
1
1
1
1
1
1
1
1
1
1
1
1
1
1
1
1
1
1
1
1
1
1
1
1
1
1
1
1
1
1
1
1
1
1
1
1
1
1
1
1
1
1
1
1
1
1
1
1
1
1
1
1
1
1
1
1
1
1
1
1
1
1
1
1
1
1
1
1
1
1
1
1
1
1
1
1
1
1
1
1
1
1
1
1.19078
2.4037
2.68068
2.67823
2.67533
2.67199
2.66941
2.66486
2.65898
2.65146
2.64239
2.63145
1
1
1
1
1
1
1
1
1
1
1
1
1
1
1
1
1
1
1
1
1
1
1
1
1
1
1
1
1
1
1
1
1
1
1
1
1
1
1
1
1
1
1
1
1
1
1
1
1
1
1
1
1
1
1
1
1
1
1
1
1
1
1
1
1
1
1
1
1
1
1
1
1
1
1
1
1
1
1
1
1
1
1
1
1.0034
2.21707
2.6682
2.67522
2.67307
2.67149
2.66939
2.66678
2.66389
2.66076
2.65714
2.6526
1
1
1
1
1
1
1
1
1
1
1
1
1
1
1
1
1
1
1
1
1
1
1
1
1
1
1
1
1
1
1
1
1
1
1
1
1
1
1
1
1
1
1
1
1
1
1
1
1
1
1
1
1
1
1
1
1
1
1
1
1
1
1
1
1
1
1
1
1
1
1
1
1
1
1
1
1
1
1
1
1
1
1
1
1
1.96019
2.63362
2.67039
2.66825
2.667
2.66509
2.6633
2.66139
2.65912
2.65651
2.6534
1
1
1
1
1
1
1
1
1
1
1
1
1
1
1
1
1
1
1
1
1
1
1
1
1
1
1
1
1
1
1
1
1
1
1
1
1
1
1
1
1
1
1
1
1
1
1
1
1
1
1
1
1
1
1
1
1
1
1
1
1
1
1
1
1
1
1
1
1
1
1
1
1
1
1
1
1
1
1
1
1
1
1
1
1
1.62876
2.55331
2.67201
2.66757
2.66558
2.6633
2.66136
2.65945
2.65745
2.65555
2.65353
1
1
1
1
1
1
1
1
1
1
1
1
1
1
1
1
1
1
1
1
1
1
1
1
1
1
1
1
1
1
1
1
1
1
1
1
1
1
1
1
1
1
1
1
1
1
1
1
1
1
1
1
1
1
1
1
1
1
1
1
1
1
1
1
1
1
1
1
1
1
1
1
1
1
1
1
1
1
1
1
1
1
1
1
1
1.25178
2.42791
2.67116
2.6665
2.66443
2.66237
2.66026
2.65807
2.65581
2.65379
2.65195
1
1
1
1
1
1
1
1
1
1
1
1
1
1
1
1
1
1
1
1
1
1
1
1
1
1
1
1
1
1
1
1
1
1
1
1
1
1
1
1
1
1
1
1
1
1
1
1
1
1
1
1
1
1
1
1
1
1
1
1
1
1
1
1
1
1
1
1
1
1
1
1
1
1
1
1
1
1
1
1
1
1
1
1
1
1.00648
2.2913
2.67872
2.67724
2.67125
2.66756
2.66411
2.66098
2.65807
2.65549
2.65312
1
1
1
1
1
1
1
1
1
1
1
1
1
1
1
1
1
1
1
1
1
1
1
1
1
1
1
1
1
1
1
1
1
1
1
1
1
1
1
1
1
1
1
1
1
1
1
1
1
1
1
1
1
1
1
1
1
1
1
1
1
1
1
1
1
1
1
1
1
1
1
1
1
1
1
1
1
1
1
1
1
1
1
1
1
1
2.10899
2.67116
2.6819
2.67719
2.67383
2.67001
2.66637
2.66298
2.65978
2.65659
1
1
1
1
1
1
1
1
1
1
1
1
1
1
1
1
1
1
1
1
1
1
1
1
1
1
1
1
1
1
1
1
1
1
1
1
1
1
1
1
1
1
1
1
1
1
1
1
1
1
1
1
1
1
1
1
1
1
1
1
1
1
1
1
1
1
1
1
1
1
1
1
1
1
1
1
1
1
1
1
1
1
1
1
1
1
1.89522
2.63957
2.68692
2.68193
2.67872
2.67482
2.67099
2.66734
2.66376
2.66015
1
1
1
1
1
1
1
1
1
1
1
1
1
1
1
1
1
1
1
1
1
1
1
1
1
1
1
1
1
1
1
1
1
1
1
1
1
1
1
1
1
1
1
1
1
1
1
1
1
1
1
1
1
1
1
1
1
1
1
1
1
1
1
1
1
1
1
1
1
1
1
1
1
1
1
1
1
1
1
1
1
1
1
1
1
1
1.65535
2.58908
2.68702
2.68129
2.67836
2.67486
2.67148
2.66813
2.66478
2.66145
1
1
1
1
1
1
1
1
1
1
1
1
1
1
1
1
1
1
1
1
1
1
1
1
1
1
1
1
1
1
1
1
1
1
1
1
1
1
1
1
1
1
1
1
1
1
1
1
1
1
1
1
1
1
1
1
1
1
1
1
1
1
1
1
1
1
1
1
1
1
1
1
1
1
1
1
1
1
1
1
1
1
1
1
1
1
1.40806
2.51154
2.687
2.68114
2.67836
2.67525
2.6722
2.66904
2.66578
2.66255
1
1
1
1
1
1
1
1
1
1
1
1
1
1
1
1
1
1
1
1
1
1
1
1
1
1
1
1
1
1
1
1
1
1
1
1
1
1
1
1
1
1
1
1
1
1
1
1
1
1
1
1
1
1
1
1
1
1
1
1
1
1
1
1
1
1
1
1
1
1
1
1
1
1
1
1
1
1
1
1
1
1
1
1
1
1
1.21163
2.42643
2.69005
2.68487
2.68142
2.67824
2.67504
2.67175
2.6684
2.66506
1
1
1
1
1
1
1
1
1
1
1
1
1
1
1
1
1
1
1
1
1
1
1
1
1
1
1
1
1
1
1
1
1
1
1
1
1
1
1
1
1
1
1
1
1
1
1
1
1
1
1
1
1
1
1
1
1
1
1
1
1
1
1
1
1
1
1
1
1
1
1
1
1
1
1
1
1
1
1
1
1
1
1
1
1
1
1.0247
2.31912
2.69011
2.6907
2.68618
2.68318
2.67981
2.6764
2.67292
2.66939
1
1
1
1
1
1
1
1
1
1
1
1
1
1
1
1
1
1
1
1
1
1
1
1
1
1
1
1
1
1
1
1
1
1
1
1
1
1
1
1
1
1
1
1
1
1
1
1
1
1
1
1
1
1
1
1
1
1
1
1
1
1
1
1
1
1
1
1
1
1
1
1
1
1
1
1
1
1
1
1
1
1
1
1
1
1
1.00009
2.21126
2.68548
2.69383
2.68906
2.68634
2.68312
2.67992
2.67663
2.67321
1
1
1
1
1
1
1
1
1
1
1
1
1
1
1
1
1
1
1
1
1
1
1
1
1
1
1
1
1
1
1
1
1
1
1
1
1
1
1
1
1
1
1
1
1
1
1
1
1
1
1
1
1
1
1
1
1
1
1
1
1
1
1
1
1
1
1
1
1
1
1
1
1
1
1
1
1
1
1
1
1
1
1
1
1
1
1
2.09833
2.67663
2.69786
2.69283
2.69013
2.68691
2.68373
2.68041
2.67699
1
1
1
1
1
1
1
1
1
1
1
1
1
1
1
1
1
1
1
1
1
1
1
1
1
1
1
1
1
1
1
1
1
1
1
1
1
1
1
1
1
1
1
1
1
1
1
1
1
1
1
1
1
1
1
1
1
1
1
1
1
1
1
1
1
1
1
1
1
1
1
1
1
1
1
1
1
1
1
1
1
1
1
1
1
1
1
1.99457
2.66516
2.70153
2.69583
2.69289
2.68946
2.68608
2.68256
2.67896
1
1
1
1
1
1
1
1
1
1
1
1
1
1
1
1
1
1
1
1
1
1
1
1
1
1
1
1
1
1
1
1
1
1
1
1
1
1
1
1
1
1
1
1
1
1
1
1
1
1
1
1
1
1
1
1
1
1
1
1
1
1
1
1
1
1
1
1
1
1
1
1
1
1
1
1
1
1
1
1
1
1
1
1
1
1
1
1.90196
2.65152
2.70423
2.69819
2.69515
2.69157
2.68794
2.68407
2.68021
1
1
1
1
1
1
1
1
1
1
1
1
1
1
1
1
1
1
1
1
1
1
1
1
1
1
1
1
1
1
1
1
1
1
1
1
1
1
1
1
1
1
1
1
1
1
1
1
1
1
1
1
1
1
1
1
1
1
1
1
1
1
1
1
1
1
1
1
1
1
1
1
1
1
1
1
1
1
1
1
1
1
1
1
1
1
1
1.8165
2.63523
2.70591
2.6997
2.69661
2.69294
2.68913
2.68502
2.68098
1
1
1
1
1
1
1
1
1
1
1
1
1
1
1
1
1
1
1
1
1
1
1
1
1
1
1
1
1
1
1
1
1
1
1
1
1
1
1
1
1
1
1
1
1
1
1
1
1
1
1
1
1
1
1
1
1
1
1
1
1
1
1
1
1
1
1
1
1
1
1
1
1
1
1
1
1
1
1
1
1
1
1
1
1
1
1
1.73535
2.61986
2.70483
2.69914
2.69648
2.69316
2.68954
2.68563
2.68162
1
1
1
1
1
1
1
1
1
1
1
1
1
1
1
1
1
1
1
1
1
1
1
1
1
1
1
1
1
1
1
1
1
1
1
1
1
1
1
1
1
1
1
1
1
1
1
1
1
1
1
1
1
1
1
1
1
1
1
1
1
1
1
1
1
1
1
1
1
1
1
1
1
1
1
1
1
1
1
1
1
1
1
1
1
1
1
1.66991
2.60427
2.7025
2.6975
2.69547
2.69265
2.68942
2.68589
2.68207
1
1
1
1
1
1
1
1
1
1
1
1
1
1
1
1
1
1
1
1
1
1
1
1
1
1
1
1
1
1
1
1
1
1
1
1
1
1
1
1
1
1
1
1
1
1
1
1
1
1
1
1
1
1
1
1
1
1
1
1
1
1
1
1
1
1
1
1
1
1
1
1
1
1
1
1
1
1
1
1
1
1
1
1
1
1
1
1.62258
2.59163
2.69968
2.69507
2.69345
2.69119
2.68861
2.68565
2.6823
1
1
1
1
1
1
1
1
1
1
1
1
1
1
1
1
1
1
1
1
1
1
1
1
1
1
1
1
1
1
1
1
1
1
1
1
1
1
1
1
1
1
1
1
1
1
1
1
1
1
1
1
1
1
1
1
1
1
1
1
1
1
1
1
1
1
1
1
1
1
1
1
1
1
1
1
1
1
1
1
1
1
1
1
1
1
1
1.59166
2.58302
2.69742
2.69294
2.69142
2.68949
2.68746
2.68505
2.68215
1
1
1
1
1
1
1
1
1
1
1
1
1
1
1
1
1
1
1
1
1
1
1
1
1
1
1
1
1
1
1
1
1
1
1
1
1
1
1
1
1
1
1
1
1
1
1
1
1
1
1
1
1
1
1
1
1
1
1
1
1
1
1
1
1
1
1
1
1
1
1
1
1
1
1
1
1
1
1
1
1
1
1
1
1
1
1
1.5782
2.57855
2.69619
2.6919
2.69048
2.68868
2.6869
2.68474
2.68203
1.47679
0.781236
0.819039
0.894421
0.898952
0.929739
0.96475
1.0144
1.06816
1.14125
1.23659
1.33327
1.42197
1.46561
1.46324
1.46899
1.49354
1.52119
1.54821
1.58445
1.60187
1.60002
1.58228
1.5794
1.58318
1.59322
1.61152
1.62561
1.62668
1.627
1.62735
1.63086
1.644
1.65852
1.66002
1.65773
1.65548
1.65355
1.65318
1.65294
1.6516
1.64659
1.64009
1.64511
1.68523
1.80608
1.99625
2.21906
2.4549
2.5019
2.52139
2.53226
2.5454
2.55562
2.56158
2.56421
2.56864
2.57187
2.5718