/*--------------------------------*- C++ -*----------------------------------*\
  =========                 |
  \\      /  F ield         | OpenFOAM: The Open Source CFD Toolbox
   \\    /   O peration     | Website:  https://openfoam.org
    \\  /    A nd           | Version:  7
     \\/     M anipulation  |
\*---------------------------------------------------------------------------*/
FoamFile
{
    version     2.0;
    format      ascii;
    class       volScalarField;
    location    "4.31";
    object      T;
}
// * * * * * * * * * * * * * * * * * * * * * * * * * * * * * * * * * * * * * //

dimensions      [0 0 0 1 0 0 0];

internalField   nonuniform List<scalar> 
1000
(
0.0642138
0.0642152
0.064218
0.0642222
0.0642277
0.0642346
0.064243
0.0642527
0.0642637
0.0642762
0.0642901
0.0643053
0.064322
0.06434
0.0643594
0.0643801
0.0644023
0.0644258
0.0644507
0.064477
0.0645047
0.0645338
0.0645642
0.064596
0.0646291
0.0646637
0.0646996
0.0647369
0.0647755
0.0648155
0.0648569
0.0648997
0.0649438
0.0649892
0.0650361
0.0650842
0.0651338
0.0651847
0.0652369
0.0652905
0.0653454
0.0654017
0.0654594
0.0655183
0.0655786
0.0656403
0.0657033
0.0657676
0.0658332
0.0659002
0.0659685
0.0660381
0.066109
0.0661813
0.0662548
0.0663297
0.0664059
0.0664834
0.0665622
0.0666423
0.0667237
0.0668064
0.0668904
0.0669757
0.0670622
0.0671501
0.0672392
0.0673296
0.0674213
0.0675142
0.0676084
0.0677039
0.0678006
0.0678986
0.0679978
0.0680983
0.0682001
0.068303
0.0684072
0.0685127
0.0686193
0.0687272
0.0688363
0.0689467
0.0690582
0.069171
0.0692849
0.0694001
0.0695164
0.069634
0.0697527
0.0698726
0.0699937
0.070116
0.0702394
0.070364
0.0704898
0.0706167
0.0707448
0.070874
0.0710044
0.0711359
0.0712685
0.0714023
0.0715372
0.0716732
0.0718103
0.0719485
0.0720878
0.0722282
0.0723697
0.0725123
0.072656
0.0728007
0.0729465
0.0730934
0.0732414
0.0733904
0.0735404
0.0736915
0.0738436
0.0739968
0.0741509
0.0743061
0.0744623
0.0746196
0.0747778
0.074937
0.0750972
0.0752584
0.0754206
0.0755837
0.0757478
0.0759129
0.0760789
0.0762459
0.0764138
0.0765827
0.0767524
0.0769231
0.0770947
0.0772673
0.0774407
0.077615
0.0777902
0.0779663
0.0781433
0.0783211
0.0784998
0.0786794
0.0788598
0.079041
0.0792231
0.079406
0.0795898
0.0797743
0.0799597
0.0801459
0.0803328
0.0805206
0.0807091
0.0808984
0.0810884
0.0812793
0.0814708
0.0816632
0.0818562
0.08205
0.0822445
0.0824397
0.0826356
0.0828322
0.0830296
0.0832276
0.0834262
0.0836256
0.0838256
0.0840263
0.0842276
0.0844295
0.0846321
0.0848353
0.0850391
0.0852435
0.0854486
0.0856542
0.0858604
0.0860672
0.0862745
0.0864824
0.0866909
0.0868999
0.0871094
0.0873195
0.0875301
0.0877412
0.0879528
0.0881649
0.0883774
0.0885905
0.0888041
0.0890181
0.0892325
0.0894474
0.0896628
0.0898785
0.0900947
0.0903113
0.0905283
0.0907457
0.0909635
0.0911817
0.0914002
0.0916192
0.0918384
0.092058
0.092278
0.0924982
0.0927188
0.0929397
0.0931609
0.0933824
0.0936042
0.0938263
0.0940486
0.0942712
0.094494
0.0947171
0.0949404
0.095164
0.0953877
0.0956117
0.0958359
0.0960602
0.0962848
0.0965095
0.0967343
0.0969593
0.0971845
0.0974098
0.0976353
0.0978608
0.0980865
0.0983122
0.0985381
0.098764
0.09899
0.0992161
0.0994423
0.0996684
0.0998947
0.100121
0.100347
0.100573
0.1008
0.101026
0.101252
0.101479
0.101705
0.101931
0.102157
0.102383
0.102609
0.102835
0.103061
0.103287
0.103512
0.103738
0.103963
0.104188
0.104414
0.104638
0.104863
0.105088
0.105312
0.105537
0.105761
0.105985
0.106208
0.106432
0.106655
0.106878
0.107101
0.107323
0.107545
0.107767
0.107989
0.10821
0.108432
0.108652
0.108873
0.109093
0.109313
0.109532
0.109751
0.10997
0.110188
0.110406
0.110624
0.110841
0.111058
0.111274
0.11149
0.111705
0.11192
0.112135
0.112349
0.112563
0.112776
0.112989
0.113201
0.113413
0.113624
0.113835
0.114045
0.114254
0.114463
0.114672
0.11488
0.115087
0.115294
0.1155
0.115706
0.115911
0.116115
0.116319
0.116522
0.116725
0.116927
0.117128
0.117329
0.117528
0.117728
0.117926
0.118124
0.118321
0.118518
0.118713
0.118908
0.119102
0.119296
0.119489
0.119681
0.119872
0.120062
0.120252
0.120441
0.120629
0.120816
0.121003
0.121188
0.121373
0.121557
0.12174
0.121922
0.122104
0.122284
0.122464
0.122643
0.122821
0.122998
0.123174
0.123349
0.123523
0.123697
0.123869
0.124041
0.124211
0.124381
0.124549
0.124717
0.124884
0.125049
0.125214
0.125378
0.12554
0.125702
0.125863
0.126022
0.126181
0.126339
0.126495
0.126651
0.126805
0.126959
0.127111
0.127262
0.127412
0.127561
0.127709
0.127856
0.128002
0.128147
0.12829
0.128433
0.128574
0.128714
0.128853
0.128991
0.129128
0.129264
0.129398
0.129531
0.129663
0.129794
0.129924
0.130052
0.13018
0.130306
0.130431
0.130555
0.130677
0.130798
0.130918
0.131037
0.131155
0.131271
0.131386
0.1315
0.131612
0.131724
0.131834
0.131943
0.13205
0.132156
0.132261
0.132365
0.132467
0.132568
0.132668
0.132766
0.132864
0.132959
0.133054
0.133147
0.133239
0.133329
0.133419
0.133506
0.133593
0.133678
0.133762
0.133844
0.133925
0.134005
0.134084
0.134161
0.134236
0.13431
0.134383
0.134455
0.134525
0.134594
0.134661
0.134727
0.134792
0.134855
0.134917
0.134977
0.135036
0.135094
0.13515
0.135205
0.135258
0.13531
0.13536
0.13541
0.135457
0.135503
0.135548
0.135592
0.135634
0.135674
0.135713
0.135751
0.135787
0.135822
0.135855
0.135887
0.135918
0.135947
0.135974
0.136001
0.136025
0.136049
0.13607
0.136091
0.13611
0.136127
0.136143
0.136158
0.136171
0.136182
0.136193
0.136201
0.136209
0.136214
0.136219
0.136222
0.136223
0.136223
0.136222
0.136219
0.136214
0.136209
0.136201
0.136193
0.136182
0.136171
0.136158
0.136143
0.136127
0.13611
0.136091
0.13607
0.136049
0.136025
0.136001
0.135974
0.135947
0.135918
0.135887
0.135855
0.135822
0.135787
0.135751
0.135713
0.135674
0.135634
0.135592
0.135548
0.135503
0.135457
0.13541
0.13536
0.13531
0.135258
0.135205
0.13515
0.135094
0.135036
0.134977
0.134917
0.134855
0.134792
0.134727
0.134661
0.134594
0.134525
0.134455
0.134383
0.13431
0.134236
0.134161
0.134084
0.134005
0.133925
0.133844
0.133762
0.133678
0.133593
0.133506
0.133419
0.133329
0.133239
0.133147
0.133054
0.132959
0.132864
0.132766
0.132668
0.132568
0.132467
0.132365
0.132261
0.132156
0.13205
0.131943
0.131834
0.131724
0.131612
0.1315
0.131386
0.131271
0.131155
0.131037
0.130918
0.130798
0.130677
0.130555
0.130431
0.130306
0.13018
0.130052
0.129924
0.129794
0.129663
0.129531
0.129398
0.129264
0.129128
0.128991
0.128853
0.128714
0.128574
0.128433
0.12829
0.128147
0.128002
0.127856
0.127709
0.127561
0.127412
0.127262
0.127111
0.126959
0.126805
0.126651
0.126495
0.126339
0.126181
0.126022
0.125863
0.125702
0.12554
0.125378
0.125214
0.125049
0.124884
0.124717
0.124549
0.124381
0.124211
0.124041
0.123869
0.123697
0.123523
0.123349
0.123174
0.122998
0.122821
0.122643
0.122464
0.122284
0.122104
0.121922
0.12174
0.121557
0.121373
0.121188
0.121003
0.120816
0.120629
0.120441
0.120252
0.120062
0.119872
0.119681
0.119489
0.119296
0.119102
0.118908
0.118713
0.118518
0.118321
0.118124
0.117926
0.117728
0.117528
0.117329
0.117128
0.116927
0.116725
0.116522
0.116319
0.116115
0.115911
0.115706
0.1155
0.115294
0.115087
0.11488
0.114672
0.114463
0.114254
0.114045
0.113835
0.113624
0.113413
0.113201
0.112989
0.112776
0.112563
0.112349
0.112135
0.11192
0.111705
0.11149
0.111274
0.111058
0.110841
0.110624
0.110406
0.110188
0.10997
0.109751
0.109532
0.109313
0.109093
0.108873
0.108652
0.108432
0.10821
0.107989
0.107767
0.107545
0.107323
0.107101
0.106878
0.106655
0.106432
0.106208
0.105985
0.105761
0.105537
0.105312
0.105088
0.104863
0.104638
0.104414
0.104188
0.103963
0.103738
0.103512
0.103287
0.103061
0.102835
0.102609
0.102383
0.102157
0.101931
0.101705
0.101479
0.101252
0.101026
0.1008
0.100573
0.100347
0.100121
0.0998947
0.0996684
0.0994423
0.0992161
0.09899
0.098764
0.0985381
0.0983122
0.0980865
0.0978608
0.0976353
0.0974098
0.0971845
0.0969593
0.0967343
0.0965095
0.0962848
0.0960602
0.0958359
0.0956117
0.0953877
0.095164
0.0949404
0.0947171
0.094494
0.0942712
0.0940486
0.0938263
0.0936042
0.0933824
0.0931609
0.0929397
0.0927188
0.0924982
0.092278
0.092058
0.0918384
0.0916192
0.0914002
0.0911817
0.0909635
0.0907457
0.0905283
0.0903113
0.0900947
0.0898785
0.0896628
0.0894474
0.0892325
0.0890181
0.0888041
0.0885905
0.0883774
0.0881649
0.0879528
0.0877412
0.0875301
0.0873195
0.0871094
0.0868999
0.0866909
0.0864824
0.0862745
0.0860672
0.0858604
0.0856542
0.0854486
0.0852435
0.0850391
0.0848353
0.0846321
0.0844295
0.0842276
0.0840263
0.0838256
0.0836256
0.0834262
0.0832276
0.0830296
0.0828322
0.0826356
0.0824397
0.0822445
0.08205
0.0818562
0.0816632
0.0814708
0.0812793
0.0810884
0.0808984
0.0807091
0.0805206
0.0803328
0.0801459
0.0799597
0.0797743
0.0795898
0.079406
0.0792231
0.079041
0.0788598
0.0786794
0.0784998
0.0783211
0.0781433
0.0779663
0.0777902
0.077615
0.0774407
0.0772673
0.0770947
0.0769231
0.0767524
0.0765827
0.0764138
0.0762459
0.0760789
0.0759129
0.0757478
0.0755837
0.0754206
0.0752584
0.0750972
0.074937
0.0747778
0.0746196
0.0744623
0.0743061
0.0741509
0.0739968
0.0738436
0.0736915
0.0735404
0.0733904
0.0732414
0.0730934
0.0729465
0.0728007
0.072656
0.0725123
0.0723697
0.0722282
0.0720878
0.0719485
0.0718103
0.0716732
0.0715372
0.0714023
0.0712685
0.0711359
0.0710044
0.070874
0.0707448
0.0706167
0.0704898
0.070364
0.0702394
0.070116
0.0699937
0.0698726
0.0697527
0.069634
0.0695164
0.0694001
0.0692849
0.069171
0.0690582
0.0689467
0.0688363
0.0687272
0.0686193
0.0685127
0.0684072
0.068303
0.0682001
0.0680983
0.0679978
0.0678986
0.0678006
0.0677039
0.0676084
0.0675142
0.0674213
0.0673296
0.0672392
0.0671501
0.0670622
0.0669757
0.0668904
0.0668064
0.0667237
0.0666423
0.0665622
0.0664834
0.0664059
0.0663297
0.0662548
0.0661813
0.066109
0.0660381
0.0659685
0.0659002
0.0658332
0.0657676
0.0657033
0.0656403
0.0655786
0.0655183
0.0654594
0.0654017
0.0653454
0.0652905
0.0652369
0.0651847
0.0651338
0.0650842
0.0650361
0.0649892
0.0649438
0.0648997
0.0648569
0.0648155
0.0647755
0.0647369
0.0646996
0.0646637
0.0646291
0.064596
0.0645642
0.0645338
0.0645047
0.064477
0.0644507
0.0644258
0.0644023
0.0643801
0.0643594
0.06434
0.064322
0.0643053
0.0642901
0.0642762
0.0642637
0.0642527
0.064243
0.0642346
0.0642277
0.0642222
0.064218
0.0642152
0.0642138
)
;

boundaryField
{
    sides
    {
        type            zeroGradient;
    }
    empty
    {
        type            empty;
    }
}


// ************************************************************************* //
