/*--------------------------------*- C++ -*----------------------------------*\
  =========                 |
  \\      /  F ield         | OpenFOAM: The Open Source CFD Toolbox
   \\    /   O peration     | Website:  https://openfoam.org
    \\  /    A nd           | Version:  7
     \\/     M anipulation  |
\*---------------------------------------------------------------------------*/
FoamFile
{
    version     2.0;
    format      ascii;
    class       volScalarField;
    location    "4.6";
    object      T;
}
// * * * * * * * * * * * * * * * * * * * * * * * * * * * * * * * * * * * * * //

dimensions      [0 0 0 1 0 0 0];

internalField   nonuniform List<scalar> 
1000
(
1.06083e-182
1.06083e-182
1.06083e-182
1.06083e-182
1.06083e-182
1.06084e-182
1.06086e-182
1.0609e-182
1.061e-182
1.06122e-182
1.06175e-182
1.06297e-182
1.06579e-182
1.07233e-182
1.08747e-182
1.12247e-182
1.2034e-182
1.39045e-182
1.82259e-182
2.82053e-182
5.12414e-182
1.04396e-181
2.26995e-181
5.09654e-181
1.16107e-180
2.6617e-180
6.11721e-180
1.40709e-179
3.23708e-179
7.44577e-179
1.71211e-178
3.93543e-178
9.04232e-178
2.07678e-177
4.76783e-177
1.09413e-176
2.50979e-176
5.75468e-176
1.31893e-175
3.02161e-175
6.91944e-175
1.58387e-174
3.62395e-174
8.28818e-174
1.89475e-173
4.32968e-173
9.88951e-173
2.25791e-172
5.15288e-172
1.17546e-171
2.68024e-171
6.10875e-171
1.39169e-170
3.16914e-170
7.21359e-170
1.64123e-169
3.73249e-169
8.48467e-169
1.92788e-168
4.37857e-168
9.94013e-168
2.25558e-167
5.11601e-167
1.15987e-166
2.62842e-166
5.95366e-166
1.34796e-165
3.05054e-165
6.90046e-165
1.56021e-164
3.52607e-164
7.96528e-164
1.79851e-163
4.05907e-163
9.15674e-163
2.06469e-162
4.6534e-162
1.0483e-161
2.36047e-161
5.31265e-161
1.19515e-160
2.68738e-160
6.03996e-160
1.35686e-159
3.04673e-159
6.83799e-159
1.53397e-158
3.43955e-158
7.70868e-158
1.72684e-157
3.8665e-157
8.6532e-157
1.93565e-156
4.32783e-156
9.67174e-156
2.16038e-155
4.82331e-155
1.07634e-154
2.40075e-154
5.35217e-154
1.19262e-153
2.65621e-153
5.91303e-153
1.31566e-152
2.92594e-152
6.50388e-152
1.44499e-151
3.2088e-151
7.12203e-151
1.57997e-150
3.5033e-150
7.76406e-150
1.71982e-149
3.80766e-149
8.42588e-149
1.8636e-148
4.11974e-148
9.10264e-148
2.01022e-147
4.43709e-147
9.78885e-147
2.15845e-146
4.75696e-146
1.04784e-145
2.30692e-145
5.07631e-145
1.11645e-144
2.45415e-144
5.39187e-144
1.184e-143
2.59857e-143
5.70019e-143
1.24973e-142
2.73851e-142
5.99767e-142
1.31287e-141
2.87228e-141
6.28063e-141
1.37261e-140
2.99819e-140
6.54541e-140
1.42818e-139
3.11453e-139
6.7884e-139
1.4788e-138
3.21968e-138
7.00616e-138
1.52374e-137
3.3121e-137
7.19546e-137
1.56233e-136
3.39039e-136
7.35337e-136
1.59398e-135
3.45331e-135
7.47736e-135
1.61815e-134
3.49981e-134
7.56532e-134
1.63443e-133
3.52907e-133
7.61567e-133
1.64252e-132
3.5405e-132
7.62733e-132
1.64222e-131
3.53381e-131
7.59985e-131
1.63349e-130
3.50896e-130
7.53336e-130
1.61639e-129
3.46619e-129
7.42858e-129
1.59113e-128
3.40604e-128
7.28684e-128
1.55802e-127
3.32928e-127
7.11003e-127
1.51752e-126
3.23698e-126
6.90058e-126
1.47018e-125
3.13038e-125
6.66136e-125
1.41666e-124
3.01098e-124
6.39567e-124
1.35769e-123
2.88039e-123
6.10712e-123
1.29406e-122
2.74037e-122
5.79957e-122
1.22663e-121
2.59278e-121
5.47704e-121
1.15627e-120
2.43949e-120
5.14361e-120
1.08384e-119
2.2824e-119
4.80335e-119
1.01023e-118
2.12337e-118
4.46019e-118
9.36279e-118
1.96417e-117
4.11792e-117
8.62773e-117
1.8065e-116
3.78005e-116
7.90455e-116
1.65187e-115
3.44979e-115
7.1999e-115
1.50168e-114
3.13e-114
6.51967e-114
1.35713e-113
2.82313e-113
5.86886e-113
1.21924e-112
2.53125e-112
5.25159e-112
1.08882e-111
2.25597e-111
4.67107e-111
9.66514e-111
1.99851e-110
4.12962e-110
8.52746e-110
1.75968e-109
3.6287e-109
7.47776e-109
1.53991e-108
3.16897e-108
6.51692e-108
1.33927e-107
2.75036e-107
5.64431e-107
1.15752e-106
2.37216e-106
4.85798e-106
9.94172e-106
2.03311e-105
4.15485e-105
8.48478e-105
1.73148e-104
3.53091e-104
7.19524e-104
1.46519e-103
2.98146e-103
6.06251e-103
1.23186e-102
2.50126e-102
5.07506e-102
1.02898e-101
2.08476e-101
4.22073e-101
8.53888e-101
1.72622e-100
3.48714e-100
7.03919e-100
1.41989e-99
2.86196e-99
5.76434e-99
1.16014e-98
2.33317e-98
4.68876e-98
9.41545e-98
1.88928e-97
3.78812e-97
7.58964e-97
1.51946e-96
3.03966e-96
6.07615e-96
1.21367e-95
2.42234e-95
4.83101e-95
9.62729e-95
1.91705e-94
3.81439e-94
7.58367e-94
1.50659e-93
2.99066e-93
5.93199e-93
1.17569e-92
2.3283e-92
4.60727e-92
9.10967e-92
1.79977e-91
3.5529e-91
7.00813e-91
1.38125e-90
2.72016e-90
5.35261e-90
1.05241e-89
2.06753e-89
4.05851e-89
7.96025e-89
1.56002e-88
3.05478e-88
5.97685e-88
1.16844e-87
2.28234e-87
4.45447e-87
8.68662e-87
1.69256e-86
3.29513e-86
6.40972e-86
1.24578e-85
2.41923e-85
4.69403e-85
9.10012e-85
1.76271e-84
3.41149e-84
6.59685e-84
1.27455e-83
2.4604e-83
4.7455e-83
9.14498e-83
1.76079e-82
3.38732e-82
6.51071e-82
1.25032e-81
2.39902e-81
4.59904e-81
8.80884e-81
1.68573e-80
3.22309e-80
6.15706e-80
1.17514e-79
2.24087e-79
4.26932e-79
8.12664e-79
1.54552e-78
2.93661e-78
5.57476e-78
1.05734e-77
2.00359e-77
3.79322e-77
7.17482e-77
1.35587e-76
2.55992e-76
4.82877e-76
9.1001e-76
1.71339e-75
3.22301e-75
6.05712e-75
1.13728e-74
2.13334e-74
3.99805e-74
7.48564e-74
1.40024e-73
2.61677e-73
4.8856e-73
9.11294e-73
1.69819e-72
3.16157e-72
5.88034e-72
1.09267e-71
2.02841e-71
3.76188e-71
6.97004e-71
1.29017e-70
2.38581e-70
4.40761e-70
8.13482e-70
1.49992e-69
2.76288e-69
5.08429e-69
9.34698e-69
1.71666e-68
3.14967e-68
5.7732e-68
1.05715e-67
1.93385e-67
3.53408e-67
6.45198e-67
1.17672e-66
2.14397e-66
3.90233e-66
7.09563e-66
1.28889e-65
2.33884e-65
4.23977e-65
7.67785e-65
1.38897e-64
2.51015e-64
4.53168e-64
8.1728e-64
1.47243e-63
2.65e-63
4.76438e-63
8.55686e-63
1.53521e-62
2.7515e-62
4.92621e-62
8.81049e-62
1.57409e-61
2.80931e-61
5.00853e-61
8.91989e-61
1.58689e-60
2.82013e-60
5.00644e-60
8.87814e-60
1.57271e-59
2.78297e-59
4.91924e-59
8.68598e-59
1.53203e-58
2.69927e-58
4.75062e-58
8.3518e-58
1.46668e-57
2.57284e-57
4.50832e-57
7.89109e-57
1.37969e-56
2.40959e-56
4.20362e-56
7.32523e-56
1.27507e-55
2.21699e-55
3.85041e-55
6.6798e-55
1.15753e-54
2.0036e-54
3.46417e-54
5.98269e-54
1.03205e-53
1.77833e-53
3.06077e-53
5.26202e-53
9.03603e-53
1.54991e-52
2.65543e-52
4.54427e-52
7.76771e-52
1.32623e-51
2.26175e-51
3.8527e-51
6.55514e-51
1.11402e-50
1.89102e-50
3.20621e-50
5.42973e-50
9.1845e-50
1.55175e-49
2.61864e-49
4.41385e-49
7.43097e-49
1.24957e-48
2.09873e-48
3.52076e-48
5.89929e-48
9.87288e-48
1.65032e-47
2.75532e-47
4.59467e-47
7.6527e-47
1.27307e-46
2.11525e-46
3.51034e-46
5.81848e-46
9.63257e-46
1.59275e-45
2.63041e-45
4.33879e-45
7.14797e-45
1.17616e-44
1.93293e-44
3.17273e-44
5.20133e-44
8.5165e-44
1.39274e-43
2.27481e-43
3.71091e-43
6.04611e-43
9.83858e-43
1.599e-42
2.59551e-42
4.2078e-42
6.81309e-42
1.10177e-41
1.77947e-41
2.87041e-41
4.62437e-41
7.4407e-41
1.19571e-40
1.91907e-40
3.07614e-40
4.9246e-40
7.8738e-40
1.25732e-39
2.00519e-39
3.19382e-39
5.08057e-39
8.07159e-39
1.28071e-38
2.02948e-38
3.21191e-38
5.07673e-38
8.01394e-38
1.26342e-37
1.98926e-37
3.12806e-37
4.91244e-37
7.70474e-37
1.20686e-36
1.88795e-36
2.94959e-36
4.60224e-36
7.17152e-36
1.11606e-35
1.7346e-35
2.69243e-35
4.1737e-35
6.46145e-35
9.99013e-35
1.54257e-34
2.37874e-34
3.66336e-34
5.63432e-34
8.65433e-34
1.32756e-33
2.03377e-33
3.11155e-33
4.75423e-33
7.25454e-33
1.10552e-32
1.68247e-32
2.55713e-32
3.88137e-32
5.88357e-32
8.90678e-32
1.34656e-31
2.03307e-31
3.0655e-31
4.61608e-31
6.94173e-31
1.04252e-30
1.56359e-30
2.34197e-30
3.50316e-30
5.23312e-30
7.80695e-30
1.16311e-29
1.73054e-29
2.57135e-29
3.81557e-29
5.65428e-29
8.36784e-29
1.23671e-28
1.82533e-28
2.69049e-28
3.96042e-28
5.82193e-28
8.54695e-28
1.25306e-27
1.83464e-27
2.68254e-27
3.91705e-27
5.712e-27
8.31829e-27
1.20975e-26
1.75701e-26
2.54842e-26
3.69133e-26
5.33963e-26
7.71357e-26
1.1128e-25
1.60322e-25
2.30668e-25
3.31433e-25
4.75578e-25
6.81497e-25
9.75264e-25
1.39379e-24
1.98924e-24
2.83528e-24
4.03571e-24
5.73668e-24
8.14363e-24
1.1545e-23
1.6345e-23
2.31096e-23
3.26301e-23
4.6011e-23
6.47922e-23
9.11174e-23
1.27967e-22
1.79478e-22
2.51388e-22
3.51639e-22
4.9121e-22
6.85262e-22
9.54696e-22
1.32829e-21
1.84562e-21
2.561e-21
3.54894e-21
4.91142e-21
6.78793e-21
9.36891e-21
1.2914e-20
1.7777e-20
2.44385e-20
3.35517e-20
4.60022e-20
6.2989e-20
8.61342e-20
1.17628e-19
1.60424e-19
2.18502e-19
2.97211e-19
4.03739e-19
5.47726e-19
7.42083e-19
1.00408e-18
1.35679e-18
1.83099e-18
2.46768e-18
3.32139e-18
4.46458e-18
5.99338e-18
8.03515e-18
1.07584e-17
1.43858e-17
1.92111e-17
2.56214e-17
3.41262e-17
4.5395e-17
6.03062e-17
8.00114e-17
1.06018e-16
1.40295e-16
1.85413e-16
2.44726e-16
3.22594e-16
4.24691e-16
5.58379e-16
7.33206e-16
9.61534e-16
1.25935e-15
1.64728e-15
2.15196e-15
2.80767e-15
3.65849e-15
4.76106e-15
6.18802e-15
8.03243e-15
1.04133e-14
1.34828e-14
1.7435e-14
2.25172e-14
2.9044e-14
3.74154e-14
4.8139e-14
6.18581e-14
7.93873e-14
1.01756e-13
1.30264e-13
1.66551e-13
2.1268e-13
2.71246e-13
3.4551e-13
4.3956e-13
5.58516e-13
7.08786e-13
8.98374e-13
1.13727e-12
1.43792e-12
1.81581e-12
2.29019e-12
2.88496e-12
3.62976e-12
4.56125e-12
5.72479e-12
7.1764e-12
8.98514e-12
1.12361e-11
1.4034e-11
1.75074e-11
2.18141e-11
2.71474e-11
3.37441e-11
4.18934e-11
5.19485e-11
6.434e-11
7.95921e-11
9.83426e-11
1.21366e-10
1.49602e-10
1.84188e-10
2.26502e-10
2.78209e-10
3.41318e-10
4.1825e-10
5.11921e-10
6.25838e-10
7.64212e-10
9.32093e-10
1.13553e-09
1.38177e-09
1.67945e-09
2.03891e-09
2.47245e-09
2.99472e-09
3.62316e-09
4.37844e-09
5.28513e-09
6.37229e-09
7.67434e-09
9.23194e-09
1.10931e-08
1.33144e-08
1.59624e-08
1.91156e-08
2.28659e-08
2.73213e-08
3.26084e-08
3.88752e-08
4.62949e-08
5.50693e-08
6.54344e-08
7.76643e-08
9.20784e-08
1.09048e-07
1.29003e-07
1.52442e-07
1.79943e-07
2.12175e-07
2.49908e-07
2.94032e-07
3.45573e-07
4.0571e-07
4.75799e-07
5.57398e-07
6.52292e-07
7.62526e-07
8.90438e-07
1.0387e-06
1.21037e-06
1.40892e-06
1.6383e-06
1.90303e-06
2.20822e-06
2.55967e-06
2.96395e-06
3.42852e-06
3.96178e-06
4.57324e-06
5.27362e-06
6.075e-06
6.99097e-06
8.0368e-06
9.22964e-06
1.05887e-05
1.21356e-05
1.38943e-05
1.58919e-05
1.81583e-05
2.07271e-05
2.36355e-05
2.69251e-05
3.0642e-05
3.48374e-05
3.95679e-05
4.48963e-05
5.08921e-05
5.76319e-05
6.52003e-05
7.36905e-05
8.32052e-05
9.38572e-05
0.00010577
0.00011908
0.000133936
0.000150501
0.000168953
0.000189485
0.000212311
0.000237661
0.000265787
0.00029696
0.000331479
0.000369662
0.00041186
0.000458447
0.00050983
0.000566449
0.000628774
0.000697315
0.00077262
0.000855275
0.000945911
0.0010452
0.00115387
0.00127269
0.00140249
0.00154414
0.00169858
0.0018668
0.00204987
0.0022489
0.00246508
0.00269968
0.00295401
0.0032295
0.00352761
0.00384991
0.00419803
0.0045737
0.00497873
0.00541501
0.00588451
0.00638931
0.00693157
0.00751354
0.00813756
0.00880605
0.00952156
0.0102867
0.0111041
0.0119767
0.0129073
0.0138989
0.0149545
0.0160773
0.0172705
0.0185374
0.0198814
0.0213058
0.0228143
0.0244104
0.0260976
0.0278796
0.0297602
0.031743
0.0338319
0.0360306
0.0383429
0.0407725
0.0433233
0.045999
0.0488034
0.0517401
0.0548128
0.0580251
0.0613804
0.0648823
0.0685341
0.072339
0.0763001
0.0804204
0.0847027
0.0891498
0.0937642
0.0985481
0.103504
0.108633
0.113938
0.11942
0.125081
0.13092
0.13694
0.143141
0.149522
0.156085
0.162828
0.169751
0.176853
0.184134
0.19159
0.199222
0.207026
0.215
0.223141
0.231447
0.239913
0.248537
0.257313
0.266239
0.275308
0.284516
0.293859
0.303329
0.312922
0.322631
0.33245
0.342373
0.352392
0.3625
0.37269
0.382954
0.393285
0.403675
0.414115
0.424597
0.435113
0.445655
0.456212
0.466778
0.477343
0.487897
0.498432
0.508939
0.519409
0.529832
0.5402
0.550504
0.560733
0.57088
0.580936
0.590891
0.600736
0.610463
0.620063
0.629528
0.638849
0.648018
0.657027
0.665867
0.674532
0.683012
0.691301
0.699392
0.707276
0.714948
0.7224
0.729626
0.73662
0.743374
0.749884
0.756144
0.762148
0.767891
0.773368
0.778574
0.783504
0.788154
0.79252
0.796599
0.800386
0.803878
0.807072
0.809965
0.812555
0.814838
0.816814
0.81848
0.819835
0.820876
0.821604
0.822017
0.822115
0.821898
0.821365
0.820517
0.819355
0.817878
0.81609
0.81399
0.81158
0.808864
0.805842
0.802518
0.798893
0.794973
0.790759
0.786256
0.781468
0.776398
0.771052
0.765435
0.759551
0.753406
0.747006
0.740357
0.733464
0.726335
0.718976
0.711394
0.703596
0.69559
0.687384
0.678985
0.670402
0.661646
0.652729
0.643669
0.634504
0.625309
0.616267
0.60782
0.60107
)
;

boundaryField
{
    sides
    {
        type            zeroGradient;
    }
    empty
    {
        type            empty;
    }
}


// ************************************************************************* //
