/*--------------------------------*- C++ -*----------------------------------*\
  =========                 |
  \\      /  F ield         | OpenFOAM: The Open Source CFD Toolbox
   \\    /   O peration     | Website:  https://openfoam.org
    \\  /    A nd           | Version:  7
     \\/     M anipulation  |
\*---------------------------------------------------------------------------*/
FoamFile
{
    version     2.0;
    format      ascii;
    class       volScalarField;
    location    "2.42";
    object      T;
}
// * * * * * * * * * * * * * * * * * * * * * * * * * * * * * * * * * * * * * //

dimensions      [0 0 0 1 0 0 0];

internalField   nonuniform List<scalar> 
1000
(
0
0
0
0
0
0
0
0
0
0
0
0
0
0
0
0
0
0
0
0
0
0
0
0
0
0
0
0
0
0
0
0
0
0
0
0
0
0
0
0
0
0
0
0
0
0
0
0
0
0
0
0
0
0
0
0
0
0
0
0
0
0
0
0
0
0
0
0
0
0
0
0
0
0
0
0
0
0
0
0
0
0
0
0
0
0
0
0
0
0
0
0
0
0
0
0
0
0
0
0
0
0
0
0
0
0
0
0
0
0
0
0
0
0
0
0
0
0
0
0
0
0
0
0
0
0
0
0
0
0
0
0
0
0
0
0
0
0
0
1.4822e-323
8.2509e-322
2.69315e-320
6.3069e-319
7.08963e-318
-2.41165e-316
-1.93048e-314
-7.53102e-313
-1.94315e-311
-2.45245e-310
6.61197e-309
5.60788e-307
2.08173e-305
4.57895e-304
1.66232e-303
-3.62929e-301
-1.84215e-299
-4.94781e-298
-4.68692e-297
2.65733e-295
1.6231e-293
4.52559e-292
3.90971e-291
-2.67625e-289
-1.49534e-287
-3.61634e-286
-4.29838e-286
3.28338e-283
1.33992e-281
2.08777e-280
-4.76777e-279
-3.7905e-277
-9.54702e-276
1.17237e-275
9.50035e-273
3.24459e-271
2.23837e-270
-2.31588e-268
-9.8675e-267
-1.04328e-265
5.98506e-264
2.87341e-262
3.21386e-261
-1.74242e-259
-8.18236e-258
-7.21204e-257
5.67235e-255
2.24124e-253
6.87113e-253
-1.92579e-250
-5.55358e-249
4.2915e-248
6.23731e-246
1.05685e-244
-3.43691e-243
-1.74195e-241
-4.90423e-241
1.52373e-238
3.46878e-237
-7.57949e-236
-4.61007e-234
-1.04159e-233
4.10179e-231
7.52954e-230
-2.6497e-228
-1.0792e-226
9.7159e-226
1.1207e-223
4.59253e-223
-9.79568e-221
-1.4481e-219
7.59473e-218
1.99875e-216
-5.3553e-215
-2.2119e-213
3.49302e-212
2.20885e-210
-2.16305e-209
-2.09054e-207
1.36418e-206
1.92372e-204
-1.02319e-203
-1.74227e-201
1.04526e-200
1.55448e-198
-1.33402e-197
-1.35148e-195
1.79095e-194
1.11559e-192
-2.30399e-191
-8.29372e-190
2.73627e-188
4.86467e-187
-2.92695e-185
-1.0403e-184
2.71806e-182
-2.6711e-181
-2.01695e-179
5.43095e-178
8.85823e-177
-6.29983e-175
3.8627e-174
4.74645e-172
-1.31393e-170
-1.27617e-169
1.43045e-167
-2.31602e-166
-6.55003e-165
3.70921e-163
-4.50871e-162
-1.89432e-160
9.47272e-159
-1.30679e-157
-3.86763e-156
2.39412e-154
-4.98201e-153
-2.40038e-152
5.07559e-150
-1.73804e-148
2.62003e-147
3.79876e-146
-3.77345e-144
1.32227e-142
-2.79792e-141
2.01233e-140
1.33798e-138
-8.1663e-137
3.00713e-135
-8.88579e-134
2.27978e-132
-5.25982e-131
1.11267e-129
-2.18468e-128
4.01497e-127
-6.94853e-126
1.1377e-124
-1.76873e-123
2.6185e-122
-3.70029e-121
5.00111e-120
-6.47534e-119
8.04323e-118
-9.59592e-117
1.1007e-115
-1.21494e-114
1.29139e-113
-1.32266e-112
1.30601e-111
-1.24376e-110
1.14277e-109
-1.01326e-108
8.67156e-108
-7.16341e-107
5.71204e-106
-4.39622e-105
3.2652e-104
-2.33976e-103
1.617e-102
-1.07724e-101
6.91396e-101
-4.27188e-100
2.53855e-99
-1.4492e-98
7.93644e-98
-4.16211e-97
2.08555e-96
-9.95664e-96
4.51195e-95
-1.931e-94
7.74938e-94
-2.88523e-93
9.79392e-93
-2.93468e-92
7.20487e-92
-1.10175e-91
-1.48813e-91
2.13752e-90
-1.09391e-89
3.97363e-89
-1.06667e-88
1.68189e-88
2.07141e-88
-2.85143e-87
1.27975e-86
-3.68351e-86
5.76411e-86
7.84091e-86
-9.40099e-85
3.70975e-84
-8.35764e-84
3.4233e-84
6.19839e-83
-3.03646e-82
7.49117e-82
-4.58323e-82
-4.7031e-81
2.31254e-80
-5.17824e-80
5.86039e-81
4.13177e-79
-1.6047e-78
2.5292e-78
3.88669e-78
-3.41486e-77
8.80864e-77
-3.24235e-77
-5.76666e-76
2.1446e-75
-2.52008e-75
-8.19204e-75
4.41565e-74
-7.36776e-74
-1.02903e-73
8.32319e-73
-1.64477e-72
-1.27806e-72
1.50263e-71
-3.15766e-71
-1.98513e-71
2.65753e-70
-5.38749e-70
-4.34826e-70
4.60688e-69
-8.10368e-69
-1.09412e-68
7.67875e-68
-1.01656e-67
-2.60712e-67
1.18827e-66
-8.71747e-67
-5.4752e-66
1.61901e-65
1.23766e-66
-9.84472e-65
1.75997e-64
2.53522e-64
-1.46636e-63
1.09257e-63
6.46344e-63
-1.68148e-62
-8.89084e-63
1.06759e-61
-1.14944e-61
-4.07099e-61
1.20985e-60
4.54295e-61
-7.01448e-60
7.03601e-60
2.72133e-59
-7.07328e-59
-5.15655e-59
4.19458e-58
-2.29192e-58
-1.82686e-57
3.12829e-57
5.61485e-57
-2.09292e-56
-6.204e-57
1.05748e-55
-6.88109e-56
-4.34288e-55
6.95425e-55
1.42451e-54
-4.32466e-54
-3.13237e-54
2.17937e-53
-1.48902e-54
-9.5564e-53
6.87543e-53
3.74061e-52
-5.19231e-52
-1.31309e-51
2.91513e-51
4.07054e-51
-1.41781e-50
-1.0531e-50
6.30222e-50
1.80992e-50
-2.63006e-49
1.74684e-50
1.04789e-48
-3.75105e-49
-4.03467e-48
2.43791e-48
1.51586e-47
-1.2279e-47
-5.60305e-47
5.45122e-47
2.05157e-46
-2.22867e-46
-7.48094e-46
8.54918e-46
2.72586e-45
-3.0993e-45
-9.93565e-45
1.06136e-44
3.61789e-44
-3.40459e-44
-1.31142e-43
1.00169e-43
4.7068e-43
-2.56996e-43
-1.66142e-42
4.90284e-43
5.7218e-42
-8.03859e-44
-1.90449e-41
-5.73594e-42
6.05394e-41
4.02941e-41
-1.80733e-40
-2.01501e-40
4.9301e-40
8.55731e-40
-1.16192e-39
-3.23697e-39
2.00311e-39
1.10496e-38
-2.1463e-40
-3.38652e-38
-1.88698e-38
9.09013e-38
1.12434e-37
-1.99567e-37
-4.63106e-37
2.7655e-37
1.54545e-36
2.9018e-37
-4.2565e-36
-4.00363e-36
9.10592e-36
1.84815e-35
-1.09518e-35
-6.0834e-35
-2.0177e-35
1.51694e-34
1.87584e-34
-2.50106e-34
-7.3829e-34
-1.05975e-36
1.99301e-33
1.90718e-33
-3.47115e-33
-8.50371e-33
6.23945e-34
2.30101e-32
2.2282e-32
-3.63991e-32
-9.67694e-32
-1.14852e-32
2.35622e-31
2.93469e-31
-2.65122e-31
-1.04807e-30
-5.57756e-31
1.96579e-30
3.75191e-30
-3.18471e-31
-9.6699e-30
-1.12804e-29
9.45613e-30
3.96257e-29
2.82848e-29
-5.88973e-29
-1.46196e-28
-5.43918e-29
2.76016e-28
5.07613e-28
4.76086e-29
-1.13376e-27
-1.71542e-27
2.10533e-28
4.31665e-27
5.80315e-27
-1.48236e-27
-1.56403e-26
-2.00618e-26
5.56763e-27
5.45189e-26
7.14605e-26
-1.28849e-26
-1.82627e-25
-2.60522e-25
-4.34616e-27
5.79885e-25
9.53798e-25
2.66502e-25
-1.69048e-24
-3.41549e-24
-1.98747e-24
4.20617e-24
1.15888e-23
1.06772e-23
-6.99669e-24
-3.5713e-23
-4.7593e-23
-6.31484e-24
9.26973e-23
1.80771e-22
1.26226e-22
-1.62123e-22
-5.72098e-22
-7.08943e-22
-8.57995e-23
1.36893e-21
2.77292e-21
2.3314e-21
-1.49225e-21
-7.87888e-21
-1.20876e-20
-6.7371e-21
1.26004e-20
3.92853e-20
5.12489e-20
1.88439e-20
-7.11196e-20
-1.84004e-19
-2.23588e-19
-6.746e-20
3.34985e-19
8.36527e-19
1.03303e-18
3.94151e-19
-1.35287e-18
-3.69539e-18
-5.00807e-18
-2.91945e-18
4.27698e-18
1.53917e-17
2.44287e-17
2.09438e-17
-5.42604e-18
-5.59907e-17
-1.12647e-16
-1.33169e-16
-6.13427e-17
1.4168e-16
4.48652e-16
7.20517e-16
7.00923e-16
9.35853e-17
-1.25447e-15
-3.09382e-15
-4.54817e-15
-4.11351e-15
-9.46994e-17
8.39782e-15
2.00192e-14
2.98506e-14
2.90941e-14
6.97578e-15
-4.42314e-14
-1.21183e-13
-2.00422e-13
-2.32705e-13
-1.47184e-13
1.2766e-13
6.2228e-13
1.26698e-12
1.83126e-12
1.89231e-12
8.76818e-13
-1.77689e-12
-6.30511e-12
-1.21669e-11
-1.75448e-11
-1.89911e-11
-1.15236e-11
1.04565e-11
5.10677e-11
1.095e-10
1.75446e-10
2.24309e-10
2.1396e-10
8.57995e-11
-2.26294e-10
-7.75323e-10
-1.56584e-09
-2.5035e-09
-3.33381e-09
-3.58188e-09
-2.51476e-09
8.39964e-10
7.57407e-09
1.86226e-08
3.42753e-08
5.34298e-08
7.25716e-08
8.45259e-08
7.7118e-08
3.20236e-08
-7.57228e-08
-2.76848e-07
-6.04572e-07
-1.0876e-06
-1.73759e-06
-2.52905e-06
-3.36898e-06
-4.0535e-06
-4.20825e-06
-3.20925e-06
-8.10564e-08
6.63103e-06
1.9017e-05
3.99887e-05
7.34968e-05
0.000124779
0.000200637
0.000309734
0.000462922
0.000673563
0.000957871
0.00133523
0.00182848
0.00246423
0.00327298
0.00428936
0.00555211
0.00710412
0.0089922
0.0112669
0.0139821
0.0171945
0.020963
0.0253478
0.03041
0.0362099
0.0428068
0.0502571
0.0586141
0.067926
0.0782351
0.0895773
0.10198
0.115463
0.130035
0.145697
0.162437
0.180234
0.199057
0.218862
0.239598
0.261201
0.283601
0.306718
0.330465
0.354751
0.379478
0.404545
0.429848
0.455284
0.480749
0.506139
0.531356
0.556303
0.580888
0.605026
0.628638
0.65165
0.673998
0.695624
0.71648
0.736523
0.755721
0.774047
0.791485
0.808024
0.823661
0.838398
0.852244
0.865214
0.877326
0.888603
0.899072
0.908764
0.91771
0.925943
0.933501
0.940419
0.946735
0.952484
0.957705
0.962433
0.966704
0.970551
0.97401
0.97711
0.979882
0.982355
0.984556
0.986509
0.98824
0.989769
0.991118
0.992304
0.993345
0.994257
0.995054
0.995748
0.996352
0.996875
0.997326
0.997711
0.998037
0.998307
0.998524
0.998687
0.998795
0.998842
0.998823
0.998725
0.998537
0.998242
0.997818
0.99724
0.99648
0.995505
0.994277
0.992754
0.990891
0.988636
0.985938
0.982739
0.978983
0.974608
0.969553
0.96376
0.957169
0.949723
0.94137
0.932061
0.921754
0.910414
0.898013
0.884531
0.86996
0.854299
0.83756
0.819763
0.800941
0.781136
0.760401
0.738798
0.716399
0.693282
0.669534
0.645248
0.620522
0.595455
0.570152
0.544716
0.519251
0.493861
0.468644
0.443697
0.419112
0.394974
0.371362
0.34835
0.326002
0.304376
0.28352
0.263477
0.244279
0.225953
0.208515
0.191976
0.176339
0.161602
0.147756
0.134786
0.122674
0.111397
0.100928
0.0912361
0.0822905
0.0740565
0.0664988
0.0595808
0.0532655
0.0475159
0.0422952
0.0375672
0.0332964
0.0294485
0.0259904
0.0228903
0.0201181
0.0176451
0.0154443
0.0134905
0.01176
0.010231
0.00888295
0.0076973
0.0066568
0.00574573
0.00494975
0.00425585
0.00365225
0.00312832
0.00267452
0.00228228
0.00194396
0.00165276
0.00140261
0.00118817
0.00100471
0.000848058
0.000714566
0.00060103
0.000504652
0.000422996
0.000353944
0.000295659
0.000246555
0.000205261
0.000170598
0.000141554
0.000117262
9.69808e-05
8.00774e-05
6.6014e-05
5.43337e-05
4.46494e-05
3.66335e-05
3.00098e-05
2.45457e-05
2.00457e-05
1.63457e-05
1.33084e-05
1.08192e-05
8.78247e-06
7.11858e-06
5.76143e-06
4.65621e-06
3.75754e-06
3.02795e-06
2.43653e-06
1.95785e-06
1.57098e-06
1.2588e-06
1.00725e-06
8.0485e-07
6.42241e-07
5.11787e-07
4.07279e-07
3.23676e-07
2.56892e-07
2.03616e-07
1.61177e-07
1.27416e-07
1.00596e-07
7.93194e-08
6.24625e-08
4.91253e-08
3.85871e-08
3.02714e-08
2.37182e-08
1.85605e-08
1.45066e-08
1.13242e-08
8.82918e-09
6.87557e-09
5.34781e-09
4.15455e-09
3.22373e-09
2.4985e-09
1.93417e-09
1.49555e-09
1.15507e-09
8.91077e-10
6.86636e-10
5.28501e-10
4.06326e-10
3.12045e-10
2.39374e-10
1.83423e-10
1.40396e-10
1.07345e-10
8.19852e-11
6.2549e-11
4.76694e-11
3.62907e-11
2.75988e-11
2.09665e-11
1.59114e-11
1.20625e-11
9.13521e-12
6.91117e-12
5.22324e-12
3.94354e-12
2.97436e-12
2.24112e-12
1.68694e-12
1.26854e-12
9.52974e-13
7.15204e-13
5.36234e-13
4.01659e-13
3.00567e-13
2.24702e-13
1.67826e-13
1.25227e-13
9.33527e-14
6.95262e-14
5.17326e-14
3.84571e-14
2.8562e-14
2.11934e-14
1.57115e-14
1.16369e-14
8.61127e-15
6.36658e-15
4.70281e-15
3.47074e-15
2.5592e-15
1.8854e-15
1.38779e-15
1.02062e-15
7.49946e-16
5.50583e-16
4.03871e-16
2.96001e-16
2.16759e-16
1.58597e-16
1.15944e-16
8.4691e-17
6.18113e-17
4.50754e-17
3.2844e-17
2.3912e-17
1.7395e-17
1.26439e-17
9.18308e-18
6.66421e-18
4.8324e-18
3.50133e-18
2.5349e-18
1.83378e-18
1.32555e-18
9.57431e-19
6.91008e-19
4.98339e-19
3.59116e-19
2.58591e-19
1.86065e-19
1.33779e-19
9.61133e-20
6.90011e-20
4.95001e-20
3.54842e-20
2.54182e-20
1.81944e-20
1.3014e-20
9.30192e-21
6.64383e-21
4.74211e-21
3.38033e-21
2.42598e-21
1.57636e-21
)
;

boundaryField
{
    sides
    {
        type            zeroGradient;
    }
    empty
    {
        type            empty;
    }
}


// ************************************************************************* //
