/*--------------------------------*- C++ -*----------------------------------*\
  =========                 |
  \\      /  F ield         | OpenFOAM: The Open Source CFD Toolbox
   \\    /   O peration     | Website:  https://openfoam.org
    \\  /    A nd           | Version:  7
     \\/     M anipulation  |
\*---------------------------------------------------------------------------*/
FoamFile
{
    version     2.0;
    format      ascii;
    class       volScalarField;
    location    "15";
    object      p;
}
// * * * * * * * * * * * * * * * * * * * * * * * * * * * * * * * * * * * * * //

dimensions      [0 2 -2 0 0 0 0];

internalField   nonuniform List<scalar> 
16000
(
5.8391669e-06
-0.00013518914
-0.00044661968
-0.00084870441
-0.001266582
-0.0016548835
-0.0019827656
-0.002231407
-0.0023901776
-0.0024533794
-0.0024180791
-0.0022828284
-0.0020470648
-0.0017110328
-0.0012760871
-0.0007452342
-0.00012378487
0.00057999418
0.0013543287
0.0021835718
0.0030481073
0.0039245909
0.0047865585
0.0056054387
0.0063519231
0.0069976438
0.0075170549
0.0078893724
0.008100407
0.0081441157
0.0080237218
0.0077523056
0.007352843
0.0068577598
0.0063078977
0.0057507399
0.0052413005
0.0048358296
0.0045960152
0.0045572149
0.00014957465
4.6308116e-06
-0.00024531636
-0.00055397565
-0.00087590278
-0.0011767985
-0.0014324388
-0.0016266586
-0.0017491032
-0.0017933393
-0.0017554371
-0.0016330418
-0.0014249041
-0.0011307919
-0.00075169504
-0.00029021885
0.00024892686
0.00085843194
0.0015279644
0.0022438936
0.0029892244
0.0037439388
0.0044853463
0.0051891123
0.0058304029
0.0063853303
0.0068325717
0.0071550256
0.0073413601
0.0073872982
0.0072965061
0.0070809871
0.0067609379
0.0063640993
0.0059246598
0.0054816044
0.0050760813
0.0047514834
0.0045529774
0.0045175355
0.00046785477
0.00025009308
-5.5725534e-06
-0.00028440777
-0.00056440653
-0.00082107006
-0.0010366211
-0.0011990094
-0.0013000343
-0.0013341859
-0.0012977546
-0.0011882145
-0.0010039302
-0.0007441486
-0.00040921678
-9.5248783e-07
0.00047690499
0.0010182378
0.0016141544
0.0022527268
0.0029189572
0.0035948995
0.0042602035
0.0048928873
0.0054704285
0.0059711104
0.0063755314
0.006668156
0.0068387582
0.0068836025
0.0068062234
0.0066176995
0.0063363743
0.0059870395
0.0055996609
0.0052076667
0.0048456407
0.004547803
0.004350453
0.0042831517
0.0008891067
0.00055804427
0.00025755929
-2.8001272e-05
-0.00029836062
-0.00053724479
-0.00073309532
-0.00087870105
-0.00096899276
-0.0010002831
-0.00096976655
-0.00087516357
-0.00071460823
-0.0004867654
-0.00019112855
0.00017155769
0.00059880974
0.0010859135
0.0016254907
0.0022071956
0.0028176057
0.0034402827
0.0040562749
0.0046448051
0.0051843244
0.0056538295
0.0060343622
0.0063105646
0.006472133
0.006515002
0.006442102
0.0062635752
0.0059963955
0.0056634109
0.0052918854
0.004911694
0.0045534969
0.0042472019
0.0040193021
0.0038837624
0.0013394674
0.00088010195
0.00051720671
0.00020713894
-7.0317435e-05
-0.00030610771
-0.00049455866
-0.00063340804
-0.00072099755
-0.00075576597
-0.00073605687
-0.00065997696
-0.00052545109
-0.00033047395
-7.3515602e-05
0.00024596686
0.00062696362
0.0010663453
0.0015583504
0.0020941923
0.0026618521
0.0032461107
0.0038289043
0.0043900017
0.0049080297
0.0053617986
0.0057318443
0.0060020516
0.0061611907
0.0062041763
0.0061328743
0.005956319
0.0056902751
0.005356163
0.0049794175
0.0045875641
0.0042088602
0.0038704752
0.003587921
0.0033642939
0.0017658684
0.0011731526
0.00073880687
0.00039303401
9.6742012e-05
-0.00014726675
-0.00033868378
-0.00047995902
-0.0005727775
-0.00061771527
-0.000614288
-0.00056097927
-0.00045544267
-0.00029488637
-7.6596565e-05
0.00020144266
0.00053987957
0.00093732272
0.0013897183
0.0018898418
0.0024269764
0.0029868571
0.0035519207
0.0041019464
0.0046150627
0.0050691052
0.005443239
0.0057197018
0.005885485
0.0059337402
0.0058647108
0.0056860226
0.0054122549
0.0050637967
0.0046650397
0.0042423216
0.0038230445
0.0034337109
0.003081283
0.0027540164
0.0021231488
0.0013986881
0.00088947779
0.0005015574
0.00017858184
-8.209546e-05
-0.00028498576
-0.00043686338
-0.00054250298
-0.00060444746
-0.00062325205
-0.00059765214
-0.00052489456
-0.00040124675
-0.00022263727
1.4609247e-05
0.00031298398
0.00067299695
0.0010924227
0.0015656556
0.0020832519
0.0026317577
0.003193843
0.003748889
0.0042739708
0.0047452545
0.0051397215
0.0054370718
0.0056216088
0.0056838714
0.0056217753
0.0054410696
0.0051550016
0.0047831745
0.0043496127
0.0038805659
0.0034040778
0.0029478006
0.0025117367
0.0020703507
0.0023727824
0.0015219926
0.00093835392
0.00050552694
0.00015126497
-0.0001319636
-0.00035301754
-0.00052257131
-0.00064814695
-0.00073397843
-0.00078142836
-0.00078927804
-0.00075417401
-0.00067125076
-0.00053488091
-0.00033952323
-8.0632829e-05
0.00024440791
0.00063538974
0.0010884763
0.0015955875
0.002144089
0.0027167728
0.0032923703
0.0038464848
0.0043530167
0.0047859936
0.0051216635
0.0053406407
0.0054298455
0.005383962
0.0052061731
0.0049080296
0.0045083994
0.0040314576
0.0035043569
0.0029572064
0.0024205519
0.001889365
0.0013270324
0.0024809973
0.0015114076
0.00085616452
0.00037808682
-9.8638619e-06
-0.00031973127
-0.0005643389
-0.00075785802
-0.00091019482
-0.0010269565
-0.0011100341
-0.0011580073
-0.0011666943
-0.0011298761
-0.0010401446
-0.00088985551
-0.00067215547
-0.00038204819
-1.7446939e-05
0.00041985305
0.00092337307
0.0014814815
0.0020771575
0.0026884058
0.003289085
0.0038503294
0.0043424739
0.0047373498
0.0050107444
0.0051447408
0.0051296182
0.0049650134
0.0046601383
0.0042329369
0.0037080647
0.0031144342
0.0024855691
0.0018566097
0.0012189555
0.00052572072
0.0024173566
0.0013378824
0.00061537112
9.3214624e-05
-0.00032943858
-0.00066889746
-0.00094164437
-0.0011649856
-0.0013508665
-0.0015059525
-0.0016323791
-0.0017282676
-0.0017883697
-0.001804878
-0.0017683583
-0.0016687916
-0.0014967085
-0.0012443836
-0.00090704402
-0.00048403071
2.0187278e-05
0.00059539486
0.0012250055
0.0018864296
0.0025516854
0.0031887619
0.0037636021
0.0042426001
0.0045954167
0.0047978163
0.0048341582
0.0046991703
0.0043987085
0.0039492816
0.0033761129
0.0027105726
0.0019908813
0.001258465
0.00050228145
-0.00033453657
0.0021541111
0.00097480436
0.00019039554
-0.0003737207
-0.00083125644
-0.0012026091
-0.0015076703
-0.001766564
-0.0019929675
-0.0021943207
-0.0023727444
-0.0025256642
-0.0026465383
-0.0027257395
-0.0027515512
-0.0027112798
-0.0025924783
-0.0023842576
-0.002078649
-0.0016719648
-0.0011660621
-0.00056905342
0.00010336221
0.00082839723
0.0015763665
0.0023119093
0.0029959637
0.003588435
0.0040513934
0.0043525033
0.0044682737
0.0043866713
0.0041086749
0.0036483981
0.0030313777
0.0022919291
0.0014741821
0.00062756619
-0.00026057517
-0.0012573568
0.0016660847
0.00039807295
-0.00044209844
-0.0010454769
-0.0015376226
-0.0019428715
-0.0022843102
-0.0025846023
-0.0028588971
-0.0031151746
-0.0033553285
-0.0035758918
-0.0037688362
-0.0039225043
-0.0040226471
-0.0040535808
-0.003999475
-0.0038457634
-0.0035806502
-0.0031966428
-0.0026920399
-0.002072462
-0.0013514198
-0.0005513119
0.00029688208
0.0011545037
0.0019770427
0.0027169006
0.0033269632
0.0037647018
0.0039963632
0.0040006923
0.0037716093
0.003319252
0.0026687219
0.0018574584
0.00093662907
-3.4542951e-05
-0.0010697466
-0.0022471366
0.00093089262
-0.00041363494
-0.0013028311
-0.0019424293
-0.0024687041
-0.0029097749
-0.0032917275
-0.0036395238
-0.0039695756
-0.0042902283
-0.0046029986
-0.0049033909
-0.0051817497
-0.0054242202
-0.0056137975
-0.005731497
-0.0057576754
-0.0056735137
-0.0054626496
-0.0051129038
-0.0046180461
-0.0039797195
-0.0032084144
-0.0023249943
-0.0013608849
-0.00035761914
0.00063469483
0.0015600974
0.0023606565
0.0029812815
0.0033750261
0.0035082283
0.0033647252
0.0029482583
0.002282039
0.0014063385
0.0003803367
-0.00072504005
-0.0019240789
-0.0033071882
-7.0635546e-05
-0.0014784709
-0.0024094606
-0.0030820253
-0.0036418631
-0.0041206979
-0.0045474275
-0.004949103
-0.0053432441
-0.005738455
-0.0061358003
-0.006529695
-0.0069087888
-0.0072569263
-0.0075541742
-0.0077779678
-0.007904427
-0.0079098749
-0.0077725685
-0.0074746167
-0.0070040445
-0.0063569788
-0.0055394742
-0.0045693323
-0.0034771038
-0.0023062728
-0.0011122382
4.0155077e-05
0.0010806474
0.0019390526
0.0025518047
0.0028688416
0.0028598567
0.0025186644
0.0018641333
0.00093836681
-0.0001907575
-0.0014385855
-0.0028196161
-0.0044380146
-0.0013539198
-0.0028109535
-0.0037761078
-0.0044782358
-0.0050710006
-0.0055895175
-0.0060653146
-0.0065273572
-0.0069941778
-0.0074746087
-0.0079692712
-0.0084715203
-0.0089683326
-0.0094412331
-0.009867264
-0.010220065
-0.010471138
-0.010591358
-0.010552764
-0.010330636
-0.0099058389
-0.0092673866
-0.0084149613
-0.0073613542
-0.0061343671
-0.0047778767
-0.0033516189
-0.0019292816
-0.00059459345
0.00056467921
0.0014645549
0.0020337584
0.0022225772
0.0020099575
0.0014066012
0.00045438265
-0.00076996197
-0.002165984
-0.0037479792
-0.0056355193
-0.0029300645
-0.0044215084
-0.0054129066
-0.00614105
-0.0067659492
-0.0073258631
-0.0078547772
-0.0083834378
-0.0089313626
-0.0095076647
-0.010112627
-0.010738674
-0.011371231
-0.011989588
-0.012567768
-0.013075492
-0.01347935
-0.013744248
-0.013835208
-0.013719556
-0.013369519
-0.012765183
-0.011897678
-0.010772388
-0.0094118904
-0.0078581519
-0.0061734527
-0.0044394432
-0.002753764
-0.0012238626
4.1968537e-05
0.00094573263
0.0014117662
0.0013975003
0.00089982833
-4.3210702e-05
-0.0013467664
-0.0028926671
-0.0046945358
-0.0068890041
-0.0048053438
-0.0063160815
-0.0073256461
-0.0080760714
-0.0087319687
-0.0093344645
-0.0099198508
-0.010520578
-0.011157201
-0.011839265
-0.01256692
-0.013331895
-0.014118303
-0.014903394
-0.015658292
-0.016348805
-0.01693644
-0.017379735
-0.017636006
-0.01766359
-0.017424627
-0.016888391
-0.016035114
-0.014860018
-0.013377419
-0.011624282
-0.0096626503
-0.0075801397
-0.0054876574
-0.0035135892
-0.0017940879
-0.00045975443
0.00038005479
0.00065269085
0.00033329683
-0.00054969537
-0.001905538
-0.0035968932
-0.0056362485
-0.0081788205
-0.0069808169
-0.0084959001
-0.0095155707
-0.010284278
-0.010969405
-0.011614658
-0.012258527
-0.012935173
-0.013666343
-0.014462271
-0.015323297
-0.016240802
-0.01719793
-0.018170212
-0.019126122
-0.020027691
-0.02083133
-0.021488983
-0.021949758
-0.022162142
-0.022076902
-0.021650714
-0.02085052
-0.019658463
-0.01807712
-0.016134641
-0.013888998
-0.011430445
-0.0088810248
-0.0063899196
-0.0041237098
-0.0022512813
-0.00092427487
-0.00025592259
-0.00030350696
-0.0010568702
-0.0024238449
-0.0042475447
-0.0065390726
-0.00947353
-0.0094521466
-0.010957452
-0.01197941
-0.012762014
-0.01347358
-0.014160114
-0.014862283
-0.015616078
-0.016444732
-0.017359555
-0.018361519
-0.019442119
-0.020583989
-0.02176136
-0.022940426
-0.024079725
-0.025130724
-0.026038748
-0.026744433
-0.027185831
-0.027301331
-0.027033472
-0.026333725
-0.025168278
-0.023524287
-0.021416748
-0.018894772
-0.016046512
-0.013001219
-0.0099267549
-0.0070209339
-0.0044955504
-0.0025532661
-0.0013600289
-0.0010191979
-0.0015512114
-0.0028702301
-0.0048013765
-0.0073547611
-0.01072642
-0.012209687
-0.01369275
-0.014709705
-0.015501285
-0.016234972
-0.016958857
-0.017715887
-0.018544196
-0.019468965
-0.020503135
-0.021648888
-0.022898407
-0.024234363
-0.025630204
-0.027050307
-0.028450117
-0.029776464
-0.030968241
-0.031957608
-0.03267193
-0.033036604
-0.0329789
-0.032432993
-0.031346795
-0.029688289
-0.027454806
-0.024681156
-0.021447379
-0.017884091
-0.0141733
-0.010542268
-0.0072481805
-0.0045524898
-0.0026868344
-0.0018171355
-0.0020110361
-0.0032012202
-0.00519955
-0.0080169265
-0.011871228
-0.015238907
-0.016689965
-0.017695505
-0.018490403
-0.019239747
-0.019993605
-0.020797542
-0.021692405
-0.022706039
-0.023853774
-0.025139731
-0.026557461
-0.028090297
-0.029711471
-0.03138406
-0.033060888
-0.034684574
-0.036187934
-0.037494908
-0.038522259
-0.039182213
-0.039386179
-0.039049783
-0.038101221
-0.036485739
-0.034178833
-0.031195392
-0.027600473
-0.023518501
-0.019138483
-0.014712098
-0.010541083
-0.0069510116
-0.0042516603
-0.002690087
-0.0024022875
-0.0033573113
-0.0053632657
-0.0084361992
-0.012816924
-0.018521206
-0.01993448
-0.020923502
-0.021715063
-0.022470662
-0.023242471
-0.024079361
-0.025025852
-0.026113511
-0.027361074
-0.028775508
-0.030352514
-0.032076745
-0.03392179
-0.035849938
-0.037811866
-0.03974645
-0.041580887
-0.043231349
-0.044604385
-0.045599312
-0.046111893
-0.046039509
-0.045286428
-0.043776029
-0.04145776
-0.038321202
-0.034409338
-0.029831698
-0.02477481
-0.019506193
-0.014366988
-0.0097481228
-0.0060475007
-0.0036124433
-0.0026725432
-0.0032576555
-0.0051882987
-0.008494322
-0.013441434
-0.022035195
-0.023410479
-0.024379672
-0.025159861
-0.025908364
-0.026679991
-0.027528151
-0.028502567
-0.029640051
-0.030964092
-0.03248561
-0.034203309
-0.036103824
-0.038161607
-0.040338579
-0.042583665
-0.044832405
-0.04700684
-0.049015908
-0.050756548
-0.052115793
-0.052974118
-0.053210257
-0.052707344
-0.051362972
-0.049098817
-0.045875169
-0.041706522
-0.036678595
-0.030964416
-0.024835557
-0.018662631
-0.012897567
-0.0080316407
-0.0045297296
-0.002742904
-0.0027931734
-0.00453823
-0.0080370132
-0.013584167
-0.025758506
-0.027103159
-0.028051538
-0.028810325
-0.029533065
-0.030278427
-0.03110643
-0.03207433
-0.033226329
-0.034592417
-0.036188773
-0.038018014
-0.040069335
-0.042318415
-0.044727044
-0.047242594
-0.049797505
-0.052309008
-0.05467929
-0.056796348
-0.058535757
-0.059763657
-0.060341146
-0.060130375
-0.059004038
-0.056854855
-0.05361128
-0.049254383
-0.043838094
-0.037510654
-0.03053377
-0.02329315
-0.016290956
-0.010110137
-0.005345542
-0.0024975811
-0.0018178491
-0.0032361578
-0.0068654001
-0.013037232
-0.029670288
-0.031001773
-0.031931158
-0.032655484
-0.033326545
-0.034009243
-0.034773532
-0.035687642
-0.036806094
-0.038167585
-0.039795045
-0.041695875
-0.043862247
-0.046271169
-0.048884241
-0.051647173
-0.054489256
-0.057322997
-0.060044134
-0.062532262
-0.064652329
-0.066257246
-0.067191854
-0.06729861
-0.066426323
-0.064439634
-0.061234393
-0.056755435
-0.051018956
-0.044138411
-0.036351316
-0.028041038
-0.019743051
-0.012121863
-0.0059066614
-0.0017712824
-0.00013804288
-0.0010546497
-0.0047257547
-0.011535141
-0.033754625
-0.0351038
-0.036019101
-0.036691065
-0.037274425
-0.037844598
-0.038486628
-0.039284631
-0.040307309
-0.04160473
-0.043208147
-0.045130463
-0.047366922
-0.049895575
-0.052677343
-0.055655743
-0.058756465
-0.061887015
-0.064936654
-0.067776845
-0.070262547
-0.072234454
-0.073522625
-0.073951777
-0.073347645
-0.071549585
-0.0684217
-0.063872105
-0.057876136
-0.050505196
-0.041959942
-0.0326032
-0.022982316
-0.01382475
-0.005987877
-0.00033495594
0.0025002148
0.0022963527
-0.0012971012
-0.0087426289
-0.038005406
-0.039420841
-0.040329768
-0.04092341
-0.041368625
-0.041758674
-0.042201447
-0.042803702
-0.043653184
-0.044814317
-0.046328127
-0.048213345
-0.050467864
-0.053069918
-0.055978706
-0.059134487
-0.062458407
-0.065852243
-0.06919833
-0.072359882
-0.075182146
-0.077494317
-0.079112736
-0.079845621
-0.07949943
-0.077888959
-0.074849319
-0.070253674
-0.064036371
-0.056223145
-0.046968682
-0.036599011
-0.025650296
-0.014887584
-0.0052789093
0.0021189887
0.0064257548
0.0071840716
0.003824064
-0.0042397996
-0.042433663
-0.043987231
-0.044898706
-0.045374344
-0.045609909
-0.04572863
-0.045872501
-0.0461798
-0.046763031
-0.047703931
-0.049054232
-0.050838069
-0.053054756
-0.055681085
-0.058672788
-0.061965192
-0.06547341
-0.069092261
-0.072696281
-0.076139848
-0.079258349
-0.081869723
-0.083777314
-0.084774129
-0.084648842
-0.08319446
-0.080219921
-0.075566445
-0.069129698
-0.060889848
-0.050951124
-0.039590865
-0.027312865
-0.014891053
-0.0033766754
0.0059900532
0.012058216
0.014070501
0.011143328
0.0024971049
-0.047079356
-0.048873173
-0.049792946
-0.050087265
-0.050010424
-0.049734957
-0.049452631
-0.04934421
-0.049552953
-0.050180147
-0.051287998
-0.052904371
-0.055027607
-0.057630434
-0.060662575
-0.064052081
-0.067705991
-0.071510437
-0.075331232
-0.07901231
-0.082378959
-0.085237553
-0.087378534
-0.08858031
-0.088614961
-0.087255371
-0.084287015
-0.079522487
-0.072822378
-0.06412415
-0.053481523
-0.041116849
-0.027485243
-0.013341709
0.00021301654
0.01177864
0.019924473
0.023534061
0.021294737
0.012122986
-0.052031521
-0.054205535
-0.055125993
-0.055134875
-0.05459605
-0.053760997
-0.052891794
-0.052223943
-0.051936511
-0.052150635
-0.05293665
-0.054322567
-0.056301798
-0.058839163
-0.06187512
-0.06532719
-0.069091949
-0.073044579
-0.077042346
-0.080914438
-0.084476893
-0.08752359
-0.08983154
-0.091164392
-0.091278674
-0.089926756
-0.086872697
-0.081903129
-0.074846912
-0.06560262
-0.054176239
-0.040733791
-0.025671565
-0.0097022546
0.0060592447
0.020085981
0.03067347
0.036296598
0.035078439
0.02546693
-0.057464537
-0.060201752
-0.061079778
-0.06062883
-0.05940819
-0.057791269
-0.05613494
-0.05474079
-0.053825493
-0.053526557
-0.053916728
-0.055017923
-0.056812714
-0.059252748
-0.062265756
-0.065753951
-0.069601719
-0.073671476
-0.077805604
-0.081824687
-0.085529908
-0.088702229
-0.091104774
-0.09248592
-0.092584158
-0.09113421
-0.087877588
-0.082575397
-0.075026631
-0.065093629
-0.052737438
-0.038068666
-0.021419214
-0.0034415271
0.014768977
0.031597887
0.04508513
0.053256774
0.053516522
0.043606298
-0.063706131
-0.067226063
-0.067936521
-0.066730979
-0.064503815
-0.06180765
-0.059118442
-0.056809686
-0.05513046
-0.05422485
-0.054157411
-0.054934373
-0.05651947
-0.058844977
-0.061818896
-0.065327644
-0.069238518
-0.073399137
-0.077637397
-0.081760859
-0.085556656
-0.088791767
-0.091214452
-0.092556846
-0.092539209
-0.090876191
-0.087285959
-0.081503055
-0.073295448
-0.062488459
-0.048997923
-0.032877562
-0.014389072
0.0058917781
0.026921372
0.047042071
0.064065113
0.075528876
0.077936635
0.068001482
-0.071369515
-0.075883304
-0.076123051
-0.073663867
-0.069950852
-0.06578104
-0.061763218
-0.058334801
-0.055759555
-0.05416884
-0.053601996
-0.05403621
-0.055405436
-0.057615439
-0.060549892
-0.064074302
-0.068037134
-0.072269389
-0.076583682
-0.080773105
-0.084610546
-0.087848467
-0.090219688
-0.091439407
-0.091208842
-0.089220849
-0.085168065
-0.078755579
-0.069716106
-0.057832547
-0.042968587
-0.025112786
-0.0044449175
0.018563826
0.042958506
0.067099061
0.088605363
0.10447822
0.11009956
0.10075443
-0.081621778
-0.087172927
-0.086262348
-0.081709514
-0.075809162
-0.069650578
-0.063957928
-0.059197648
-0.055610536
-0.05328289
-0.052204172
-0.052303857
-0.053475039
-0.055588098
-0.058497515
-0.062044515
-0.066057114
-0.070348741
-0.074716379
-0.078938663
-0.082774446
-0.085961925
-0.088218717
-0.089243143
-0.088717097
-0.08631061
-0.081688403
-0.074522397
-0.064503421
-0.051361908
-0.034894887
-0.015004856
0.0082403572
0.034506327
0.06300432
0.092217145
0.11965175
0.14171491
0.15239687
0.1451162
-0.096752127
-0.10273115
-0.099191836
-0.091150424
-0.082059229
-0.07325964
-0.065507053
-0.059216703
-0.054539673
-0.05146799
-0.049907303
-0.049718162
-0.050738768
-0.052796585
-0.055712783
-0.059302475
-0.063372793
-0.067719961
-0.072126196
-0.076356832
-0.080158017
-0.083255097
-0.085351911
-0.086131217
-0.085256669
-0.082375699
-0.077124175
-0.069137498
-0.058057518
-0.04354936
-0.025322201
-0.0031596852
0.023031183
0.05313071
0.086622424
0.12227224
0.15777061
0.18894206
0.20808848
0.20631762
-0.12133381
-0.12518191
-0.11586861
-0.10207812
-0.088415937
-0.076198494
-0.066007072
-0.058053995
-0.052292798
-0.048550733
-0.046607291
-0.04622987
-0.047189307
-0.049264774
-0.052242699
-0.055912818
-0.060063214
-0.064475257
-0.068918982
-0.073149111
-0.076901866
-0.079892609
-0.081814336
-0.082337201
-0.081109613
-0.077758097
-0.071892464
-0.063109925
-0.050998688
-0.035147029
-0.01515306
0.0093598782
0.038714757
0.073117968
0.11250751
0.15625026
0.20261889
0.24751167
0.28128977
0.29234491
-0.16445316
-0.15842906
-0.1371455
-0.11415609
-0.09410774
-0.077633274
-0.064741074
-0.055165403
-0.048493177
-0.044293771
-0.042173415
-0.041785875
-0.042828525
-0.045033271
-0.048155927
-0.051966025
-0.056237871
-0.060742989
-0.065243905
-0.069489133
-0.073209254
-0.076113931
-0.077889812
-0.07819951
-0.076681845
-0.072941814
-0.066574586
-0.057140423
-0.044175012
-0.027185715
-0.0056438136
0.02102548
0.053453191
0.092319526
0.13828345
0.1918138
0.25265498
0.31749872
0.37625612
0.41535801
-0.24629126
-0.20631517
-0.1621284
-0.12552866
-0.097145313
-0.0758815
-0.060492011
-0.04975721
-0.042664758
-0.038439651
-0.036492121
-0.036365056
-0.037694635
-0.040179943
-0.043559595
-0.047594327
-0.052054097
-0.056708397
-0.061318861
-0.065633591
-0.06938279
-0.072275478
-0.073997152
-0.074209152
-0.072549906
-0.068599617
-0.061958494
-0.052155505
-0.038685315
-0.02098616
0.001588814
0.029816337
0.064675867
0.10745317
0.15985858
0.22416488
0.30289236
0.39551915
0.49623051
0.60319917
-0.42543637
-0.26572728
-0.17721945
-0.12463582
-0.089118451
-0.065106359
-0.049328793
-0.039190775
-0.032988909
-0.029678327
-0.028573388
-0.029187388
-0.03115511
-0.034185697
-0.038030947
-0.042464371
-0.047267215
-0.052218654
-0.057088609
-0.061632357
-0.06558642
-0.0686654
-0.070559245
-0.070929821
-0.06939933
-0.065623452
-0.05912863
-0.049451851
-0.03607652
-0.018407571
0.0042651236
0.032839003
0.068532768
0.11313091
0.16942459
0.24200456
0.33805314
0.46590275
0.64304151
0.92084902
-0.7933097
-0.3244387
-0.14899484
-0.087724618
-0.055347186
-0.036002883
-0.025096397
-0.019206607
-0.016361108
-0.015623894
-0.016497674
-0.018655505
-0.021852274
-0.025885097
-0.030569545
-0.035725506
-0.041168559
-0.046704028
-0.052122435
-0.057195865
-0.061675015
-0.065286833
-0.067732843
-0.068689417
-0.067814993
-0.064700706
-0.058937131
-0.050070558
-0.037594275
-0.02093072
0.00060465522
0.027873168
0.062049045
0.10490223
0.15943916
0.23151517
0.33383827
0.49407886
0.79000294
1.3837648
8.3610257e-06
-0.00013444266
-0.0004464259
-0.00084868645
-0.0012667369
-0.0016551632
-0.0019831312
-0.0022318315
-0.0023906422
-0.0024538717
-0.00241859
-0.0022833488
-0.002047584
-0.0017115398
-0.0012765711
-0.00074568382
-0.00012418789
0.00057965053
0.0013540569
0.0021833835
0.0030480122
0.0039245959
0.0047866672
0.0056056504
0.0063522315
0.0069980375
0.0075175173
0.0078898828
0.0081009408
0.0081446461
0.0080242211
0.0077527463
0.0073531995
0.0068580093
0.0063080274
0.0057507623
0.0052412048
0.0048355881
0.0045956124
0.0045570335
0.00015023934
5.0337307e-06
-0.00024495354
-0.00055357171
-0.00087544437
-0.0011762804
-0.0014318678
-0.0016260478
-0.0017484696
-0.0017927018
-0.0017548129
-0.0016324452
-0.0014243475
-0.0011302879
-0.00075125647
-0.00028985821
0.00024919804
0.00085860326
0.0015280266
0.0022438399
0.002989051
0.0037436434
0.0044849316
0.0051885846
0.0058297724
0.0063846116
0.0068317835
0.0071541905
0.0073405036
0.0073864478
0.0072956907
0.0070802345
0.0067602714
0.0063635356
0.0059242092
0.0054812767
0.0050758952
0.0047513632
0.0045528148
0.0045175896
0.0004682674
0.00025028809
-5.3298642e-06
-0.00028420662
-0.0005642653
-0.00082095957
-0.0010365291
-0.0011989334
-0.0012999741
-0.0013341417
-0.0012977268
-0.0011882039
-0.0010039376
-0.00074417399
-0.00040925946
-1.0117025e-06
0.00047682988
0.0010181477
0.0016140509
0.0022526123
0.002918834
0.00359477
0.0042600704
0.0048927525
0.0054702935
0.0059709762
0.0063753989
0.0066680256
0.0068386293
0.0068834739
0.0068060942
0.0066175696
0.0063362429
0.0059869036
0.0055995156
0.0052075108
0.0048454862
0.004547638
0.0043502388
0.004283081
0.00088953853
0.00055804698
0.00025775077
-2.7829776e-05
-0.00029827434
-0.00053719899
-0.00073307522
-0.00087870615
-0.00096902103
-0.0010003311
-0.00096983166
-0.00087524445
-0.00071470378
-0.00048687332
-0.00019124565
0.00017143447
0.00059868289
0.0010857852
0.001625364
0.0022070739
0.0028174918
0.0034401797
0.0040561855
0.0046447311
0.0051842661
0.005653786
0.0060343318
0.0063105446
0.0064721196
0.0065149895
0.0064420837
0.0062635444
0.0059963471
0.0056633415
0.005291793
0.0049115742
0.0045533433
0.0042470193
0.0040191093
0.0038835839
0.0013399723
0.00087990912
0.00051737599
0.00020734666
-7.0187973e-05
-0.00030599977
-0.00049446035
-0.00063332574
-0.00072093248
-0.00075571723
-0.00073602461
-0.0006599622
-0.00052545415
-0.00033049385
-7.3551075e-05
0.00024591647
0.00062689844
0.0010662654
0.0015582563
0.0020940853
0.0026617337
0.0032459831
0.0038287701
0.0043898641
0.0049078911
0.0053616607
0.0057317079
0.0060019177
0.0061610597
0.0062040478
0.0061327466
0.0059561886
0.0056901387
0.0053560202
0.0049792723
0.0045874142
0.0042086854
0.0038703049
0.0035878587
0.0033640332
0.0017664732
0.0011727786
0.00073894821
0.00039325134
9.6868963e-05
-0.00014715832
-0.00033858059
-0.00047986985
-0.00057270382
-0.00061765693
-0.00061424621
-0.00056095524
-0.00045543611
-0.00029489591
-7.6621275e-05
0.00020140271
0.00053982392
0.00093725097
0.0013896304
0.0018897385
0.002426859
0.0029867273
0.0035517813
0.0041018008
0.0046149141
0.005068956
0.0054430906
0.005719555
0.0058853402
0.0059335979
0.0058645708
0.0056858831
0.0054121121
0.0050636481
0.0046648889
0.0042421656
0.0038228533
0.0034335421
0.0030813064
0.0027536668
0.002123856
0.0013981521
0.00088959792
0.00050178063
0.00017869617
-8.2000568e-05
-0.00028489341
-0.00043678411
-0.00054243845
-0.00060439772
-0.00062321841
-0.00059763543
-0.00052489403
-0.0004012608
-0.00022266503
1.4567508e-05
0.00031292759
0.00067292537
0.0010923358
0.001565554
0.0020831368
0.0026316309
0.0031937073
0.0037487478
0.0042738271
0.0047451111
0.0051395799
0.0054369326
0.0056214719
0.0056837361
0.0056216413
0.0054409359
0.0051548655
0.0047830333
0.004349469
0.0038804121
0.0034038717
0.0029476317
0.002511855
0.0020699202
0.002373591
0.0015213116
0.00093846027
0.00050575992
0.00015137131
-0.0001318758
-0.00035292739
-0.00052249199
-0.00064808143
-0.00073392704
-0.00078139213
-0.00078925747
-0.00075416858
-0.00067125928
-0.00053490286
-0.00033955905
-8.0683434e-05
0.00024434172
0.00063530762
0.0010883786
0.0015954754
0.0021439642
0.0027166379
0.0032922287
0.0038463395
0.0043528701
0.0047858477
0.0051215195
0.0053404992
0.0054297062
0.0053838238
0.0052060344
0.0049078885
0.0045082556
0.0040313159
0.0035042049
0.002956986
0.0024203855
0.0018895854
0.0013265142
0.0024819056
0.0015105944
0.0008562598
0.00037833048
-9.7631297e-06
-0.0003196478
-0.00056424832
-0.00075777618
-0.00091012583
-0.0010269007
-0.0011099924
-0.0011579798
-0.001166681
-0.0011298763
-0.0010401583
-0.00088988307
-0.00067219792
-0.00038210661
-1.7521989e-05
0.00041976157
0.00092326622
0.0014813601
0.002077024
0.0026882635
0.0032889371
0.0038501783
0.0043423213
0.0047371973
0.0050105937
0.005144593
0.0051294729
0.0049648682
0.0046599906
0.0042327878
0.0037079226
0.0031142832
0.0024853338
0.0018564452
0.001219281
0.00052511021
0.002418359
0.0013369482
0.00061545722
9.3470014e-05
-0.00032934088
-0.00066881643
-0.00094155288
-0.0011649014
-0.0013507941
-0.0015058919
-0.0016323311
-0.0017282323
-0.0017883475
-0.0018048689
-0.0017683625
-0.0016688096
-0.0014967414
-0.0012444328
-0.00090711048
-0.00048411421
2.0088114e-05
0.000595279
0.0012248752
0.0018862878
0.0025515354
0.0031886066
0.0037634433
0.0042424392
0.004595256
0.0047976584
0.0048340042
0.0046990185
0.0043985553
0.0039491282
0.0033759705
0.0027104222
0.0019906293
0.0012583015
0.00050271893
-0.00033524541
0.0021551997
0.00097376256
0.00019047578
-0.00037345194
-0.00083115892
-0.0012025283
-0.0015075767
-0.0017664764
-0.0019928901
-0.0021942535
-0.0023726882
-0.0025256193
-0.0026465053
-0.002725719
-0.0027515436
-0.0027112861
-0.0025924996
-0.0023842957
-0.0020787051
-0.0016720387
-0.0011661515
-0.00056916248
0.0001032362
0.00082825691
0.001576215
0.0023117497
0.0029957983
0.0035882658
0.0040512231
0.004352335
0.0044681098
0.0043865113
0.0041085155
0.0036482407
0.0030312353
0.0022917784
0.00147391
0.00062740198
-0.00026001546
-0.0012581764
0.001667252
0.00039693902
-0.00044202032
-0.0010451939
-0.0015375236
-0.0019427894
-0.0022842127
-0.0025845094
-0.0028588128
-0.0031150986
-0.003355262
-0.0035758354
-0.0037687905
-0.0039224703
-0.0040226259
-0.0040535737
-0.0039994832
-0.0038457887
-0.003580694
-0.0031967063
-0.0026921244
-0.0020725643
-0.0013515402
-0.00055144898
0.00029673084
0.0011543411
0.0019768715
0.0027167239
0.0033267844
0.0037645245
0.0039961901
0.0040005239
0.0037714434
0.0033190907
0.0026685803
0.0018573076
0.0009363329
-3.4710041e-05
-0.0010690505
-0.0022480842
0.00093213043
-0.00041484561
-0.0013027527
-0.0019421324
-0.0024686021
-0.0029096897
-0.0032916242
-0.0036394233
-0.0039694819
-0.0042901414
-0.0046029198
-0.0049033208
-0.0051816893
-0.005424171
-0.0056137612
-0.0057314751
-0.0057576692
-0.0056735247
-0.0054626792
-0.0051129538
-0.004618119
-0.0039798119
-0.0032085269
-0.0023251259
-0.0013610333
-0.0003577821
0.00063452013
0.0015599149
0.002360471
0.0029810974
0.0033748463
0.0035080539
0.0033645546
0.0029480947
0.0022818997
0.0014061883
0.00038001267
-0.0007252118
-0.0019232273
-0.0033082852
-6.9338195e-05
-0.0014797437
-0.0024093808
-0.0030817153
-0.0036417566
-0.0041206073
-0.0045473161
-0.0049489925
-0.0053431389
-0.0057383553
-0.0061357074
-0.0065296096
-0.0069087124
-0.0072568609
-0.0075541217
-0.0077779298
-0.007904405
-0.00790987
-0.0077725821
-0.0074746507
-0.007004101
-0.0063570577
-0.0055395759
-0.0045694556
-0.0034772467
-0.0023064332
-0.0011124133
3.9969646e-05
0.0010804573
0.0019388634
0.0025516204
0.002868664
0.0028596842
0.0025185009
0.0018639988
0.00093821871
-0.00019111311
-0.001438763
-0.0028185846
-0.0044392861
-0.0013525762
-0.0028122733
-0.0037760252
-0.0044779134
-0.0050708876
-0.0055894194
-0.0060651932
-0.0065272352
-0.0069940599
-0.0074744947
-0.007969163
-0.0084714189
-0.0089682397
-0.0094411511
-0.009867195
-0.01022001
-0.010471099
-0.010591336
-0.010552761
-0.010330653
-0.0099058784
-0.0092674498
-0.008415049
-0.007361466
-0.0061345017
-0.0047780318
-0.0033517916
-0.0019294673
-0.0005947861
0.00056448624
0.0014643674
0.0020335794
0.0022224053
0.0020097967
0.0014064747
0.00045423896
-0.00077035319
-0.002166168
-0.0037467379
-0.0056369946
-0.0029286884
-0.0044228581
-0.0054128195
-0.0061407161
-0.0067658281
-0.0073257557
-0.0078546445
-0.0083833034
-0.008931231