/*--------------------------------*- C++ -*----------------------------------*\
  =========                 |
  \\      /  F ield         | OpenFOAM: The Open Source CFD Toolbox
   \\    /   O peration     | Website:  https://openfoam.org
    \\  /    A nd           | Version:  7
     \\/     M anipulation  |
\*---------------------------------------------------------------------------*/
FoamFile
{
    version     2.0;
    format      ascii;
    class       surfaceScalarField;
    location    "15";
    object      phi;
}
// * * * * * * * * * * * * * * * * * * * * * * * * * * * * * * * * * * * * * //

dimensions      [0 3 -1 0 0 0 0];

internalField   nonuniform List<scalar> 
45600
(
2.7592102e-07
-2.8102118e-07
-5.6557611e-11
4.0334932e-07
-1.2739789e-07
-2.0153455e-11
1.3233839e-07
2.7103065e-07
-5.2317383e-12
-5.6239912e-07
6.947434e-07
-4.8497377e-13
-1.6389567e-06
1.0765528e-06
4.1798619e-12
-3.0265737e-06
1.3876097e-06
7.553793e-12
-4.650539e-06
1.6239578e-06
9.8716421e-12
-6.4421645e-06
1.7916193e-06
1.1460384e-11
-8.3414013e-06
1.8992271e-06
1.2542529e-11
-1.0296284e-05
1.9548681e-06
1.3290205e-11
-1.2261087e-05
1.9647896e-06
1.379284e-11
-1.4194116e-05
1.9330223e-06
1.4049402e-11
-1.6055662e-05
1.8615408e-06
1.4018225e-11
-1.7806412e-05
1.7507395e-06
1.3689309e-11
-1.9406502e-05
1.6000757e-06
1.3066772e-11
-2.0815298e-05
1.4087829e-06
1.2138827e-11
-2.19919e-05
1.1765904e-06
1.0880684e-11
-2.2896305e-05
9.0439595e-07
9.2777903e-12
-2.3491165e-05
5.9485208e-07
7.3378019e-12
-2.3743998e-05
2.5282637e-07
5.082508e-12
-2.3629688e-05
-1.1431348e-07
2.5664177e-12
-2.3133062e-05
-4.966257e-07
-1.3598977e-13
-2.2251379e-05
-8.8167905e-07
-2.9355379e-12
-2.0996398e-05
-1.2549749e-06
-5.7138622e-12
-1.9395812e-05
-1.6005787e-06
-8.3271627e-12
-1.7493821e-05
-1.9019824e-06
-1.0629601e-11
-1.5350646e-05
-2.1431638e-06
-1.2485568e-11
-1.3040877e-05
-2.3097566e-06
-1.3777362e-11
-1.0650636e-05
-2.390228e-06
-1.441113e-11
-8.27367e-06
-2.3769518e-06
-1.4321473e-11
-6.006586e-06
-2.26707e-06
-1.3479169e-11
-3.9435101e-06
-2.0630629e-06
-1.1896779e-11
-2.1704781e-06
-1.7730221e-06
-9.6233065e-12
-7.5967834e-07
-1.4107946e-06
-6.7369046e-12
2.3689817e-07
-9.9657638e-07
-3.5012647e-12
7.9531509e-07
-5.5842043e-07
-6.0320238e-13
9.2832915e-07
-1.3301852e-07
2.585251e-12
7.0503408e-07
2.2329264e-07
6.5199206e-12
2.9029328e-07
4.1474123e-07
1.0876296e-11
2.9029827e-07
4.5808348e-12
1.3314088e-07
-4.1413327e-07
-1.7945257e-11
-3.0144315e-07
3.0722848e-07
-1.1685653e-11
-1.6147925e-06
1.5844043e-06
-1.0522812e-11
-3.8731114e-06
2.9530732e-06
-1.1715076e-11
-7.0041374e-06
4.207591e-06
-1.3295295e-11
-1.0874395e-05
5.2578896e-06
-1.5027605e-11
-1.5327231e-05
6.0768165e-06
-1.6560507e-11
-2.0205179e-05
6.6695874e-06
-1.7716742e-11
-2.5360144e-05
7.0542094e-06
-1.8376811e-11
-3.0656152e-05
7.2508988e-06
-1.8488887e-11
-3.5968192e-05
7.2768565e-06
-1.8105242e-11
-4.1179314e-05
7.1441715e-06
-1.7305463e-11
-4.617744e-05
6.8596871e-06
-1.6142175e-11
-5.0852781e-05
6.4260946e-06
-1.4616925e-11
-5.5096438e-05
5.8437425e-06
-1.2719502e-11
-5.8800439e-05
5.1127938e-06
-1.0459458e-11
-6.1859304e-05
4.2354636e-06
-7.865001e-12
-6.417303e-05
3.2181257e-06
-4.9688056e-12
-6.5651296e-05
2.0731179e-06
-1.8040416e-12
-6.6218559e-05
8.2008699e-07
1.5564714e-12
-6.5819883e-05
-5.1299286e-07
5.0293059e-12
-6.4426172e-05
-1.8903442e-06
8.5673925e-12
-6.2039929e-05
-3.2679355e-06
1.2028898e-11
-5.8699192e-05
-4.5957288e-06
1.5303846e-11
-5.4480309e-05
-5.8194824e-06
1.8284455e-11
-4.9498634e-05
-6.8836806e-06
2.0846234e-11
-4.3906853e-05
-7.7349683e-06
2.2860395e-11
-3.7890717e-05
-8.3259155e-06
2.4219188e-11
-3.1662151e-05
-8.6188168e-06
2.4841728e-11
-2.5449924e-05
-8.5891988e-06
2.4663741e-11
-1.9488288e-05
-8.2287277e-06
2.3648016e-11
-1.4004063e-05
-7.5473108e-06
2.1827035e-11
-9.2027197e-06
-6.5743879e-06
1.9328797e-11
-5.2537851e-06
-5.3597488e-06
1.6348101e-11
-2.2756702e-06
-3.9747055e-06
1.3069097e-11
-3.1916851e-07
-2.5149323e-06
9.5051409e-12
6.5543942e-07
-1.1076384e-06
5.396567e-12
8.0264889e-07
7.6061676e-08
3.4863787e-12
4.1745683e-07
7.9990232e-07
4.7168554e-12
7.0775895e-07
-1.4595836e-12
-2.7337121e-07
-1.4073754e-07
-1.1140264e-11
-1.6266024e-06
1.6604726e-06
-5.6558341e-12
-4.2871728e-06
4.2449797e-06
-7.0385873e-12
-8.2702648e-06
6.9361711e-06
-5.8337372e-12
-1.3467003e-05
9.4043391e-06
-4.0961321e-12
-1.9697585e-05
1.1488482e-05
-3.204516e-12
-2.675032e-05
1.3129555e-05
-2.6693853e-12
-3.440647e-05
1.4325741e-05
-2.205271e-12
-4.2453498e-05
1.5101243e-05
-1.7473075e-12
-5.069021e-05
1.5487616e-05
-1.2813769e-12
-5.892696e-05
1.5513612e-05
-8.0684181e-13
-6.6983408e-05
1.5200623e-05
-3.0739964e-13
-7.468558e-05
1.4561859e-05
2.1476072e-13
-8.1863501e-05
1.3604016e-05
7.3614642e-13
-8.8350192e-05
1.2330431e-05
1.2377612e-12
-9.3982426e-05
1.0745025e-05
1.717372e-12
-9.8603406e-05
8.8564388e-06
2.1781914e-12
-0.00010206721
6.6819277e-06
2.6121984e-12
-0.00010424478
4.2506744e-06
3.0011932e-12
-0.00010503096
1.6062612e-06
3.3220983e-12
-0.00010435199
-1.1919698e-06
3.5744171e-12
-0.00010217317
-4.0691719e-06
3.7547209e-12
-9.850551e-05
-6.9355996e-06
3.8605367e-12
-9.3411098e-05
-9.6901484e-06
3.9074287e-12
-8.7006284e-05
-1.2224302e-05
3.9156363e-12
-7.9462215e-05
-1.4427754e-05
3.8933341e-12
-7.1002165e-05
-1.6195022e-05
3.8430791e-12
-6.1895404e-05
-1.7432678e-05
3.7817292e-12
-5.2447535e-05
-1.8066688e-05
3.7391968e-12
-4.2987476e-05
-1.8049261e-05
3.7320216e-12
-3.3851531e-05
-1.7364675e-05
3.7474606e-12
-2.5365176e-05
-1.6033669e-05
3.7682516e-12
-1.7823268e-05
-1.4116302e-05
3.8130502e-12
-1.1469339e-05
-1.1713685e-05
3.9429127e-12
-6.4744419e-06
-8.9696081e-06
4.214904e-12
-2.9154177e-06
-6.0739563e-06
4.5198843e-12
-7.5267204e-07
-3.2703783e-06
4.4820305e-12
1.9333205e-07
-8.6994022e-07
4.7850631e-12
2.6506746e-07
7.2814999e-07
6.2128233e-12
9.728243e-07
1.9093326e-12
-7.4539436e-07
6.0467739e-07
-1.1658548e-11
-3.1777634e-06
4.0928392e-06
-7.8706336e-14
-7.3417479e-06
8.4089687e-06
-5.5535206e-12
-1.3155148e-05
1.2749581e-05
-4.973814e-12
-2.0443375e-05
1.6692575e-05
-2.5023114e-12
-2.8974821e-05
2.0019933e-05
-1.3281822e-12
-3.8490035e-05
2.264477e-05
-5.8301111e-13
-4.8722337e-05
2.4558046e-05
1.4805459e-13
-5.9409868e-05
2.5788778e-05
8.1984614e-13
-7.0300854e-05
2.6378603e-05
1.3935471e-12
-8.115437e-05
2.6367126e-05
1.8882749e-12
-9.1738699e-05
2.5784952e-05
2.3457173e-12
-0.00010182903
2.465219e-05
2.7709589e-12
-0.00011120573
2.2980719e-05
3.1298827e-12
-0.00011965411
2.0778807e-05
3.3962812e-12
-0.00012696605
1.805696e-05
3.5735236e-12
-0.00013294373
1.4834111e-05
3.6790072e-12
-0.00013740523
1.1143427e-05
3.7187213e-12
-0.00014019178
7.037217e-06
3.6742035e-12
-0.00014117601
2.5904928e-06
3.5289899e-12
-0.00014027069
-2.0972994e-06
3.303821e-12
-0.00013743748
-6.9023874e-06
2.9861277e-12
-0.00013269444
-1.1678642e-05
2.5922449e-12
-0.00012612207
-1.626252e-05
2.1465982e-12
-0.00011786686
-2.0479517e-05
1.6902007e-12
-0.00010814175
-2.4152859e-05
1.2615791e-12
-9.7223018e-05
-2.7113755e-05
8.839386e-13
-8.5443045e-05
-2.9212651e-05
5.8016984e-13
-7.3178994e-05
-3.0330739e-05
3.899838e-13
-6.0837391e-05
-3.0390865e-05
3.6325033e-13
-4.8835081e-05
-2.9366985e-05
5.330855e-13
-3.7577253e-05
-2.7291495e-05
8.9467809e-13
-2.7433438e-05
-2.4260117e-05
1.4058045e-12
-1.8712534e-05
-2.0434592e-05
2.0099089e-12
-1.1637932e-05
-1.6044221e-05
2.679928e-12
-6.3236323e-06
-1.1388268e-05
3.4744993e-12
-2.7522615e-06
-6.8417554e-06
4.4536041e-12
-7.5781175e-07
-2.8643869e-06
5.2966107e-12
-9.8496584e-09
-1.9821045e-08
5.5902546e-12
9.6297369e-07
4.817965e-12
-1.2271947e-06
1.8318866e-06
-1.3630052e-11
-4.7850541e-06
7.6506929e-06
5.5924957e-12
-1.051477e-05
1.4138694e-05
-4.9095352e-12
-1.8202545e-05
2.0437368e-05
-6.0243201e-12
-2.7586012e-05
2.6076049e-05
-3.7547329e-12
-3.837132e-05
3.0805243e-05
-3.1305498e-12
-5.0250333e-05
3.4523787e-05
-2.8510817e-12
-6.291385e-05
3.7221568e-05
-2.3868464e-12
-7.6059653e-05
3.8934585e-05
-1.8869806e-12
-8.9395915e-05
3.9714866e-05
-1.4134028e-12
-0.00010264132
3.9612535e-05
-9.3562486e-13
-0.00011552348
3.8667106e-05
-4.2805832e-13
-0.00012777696
3.6905679e-05
8.8939525e-14
-0.00013914225
3.4346016e-05
5.7726063e-13
-0.00014936619
3.100274e-05
1.0288041e-12
-0.0001582044
2.6895173e-05
1.4615859e-12
-0.00016542589
2.2055601e-05
1.8905185e-12
-0.00017081948
1.6537016e-05
2.3184423e-12
-0.00017420184
1.0419576e-05
2.7299675e-12
-0.00017542659
3.8152387e-06
3.1034921e-12
-0.00017439382
-3.1300731e-06
3.4322905e-12
-0.00017105946
-1.0236757e-05
3.7006702e-12
-0.00016544358
-1.7294524e-05
3.8906028e-12
-0.00015763707
-2.4069036e-05
3.9917237e-12
-0.00014780575
-3.031084e-05
4.0197745e-12
-0.00013619132
-3.5767297e-05
4.0016622e-12
-0.00012310837
-4.0196706e-05
3.9545163e-12
-0.00010893707
-4.3383959e-05
3.8842328e-12
-9.4111051e-05
-4.515676e-05
3.7993752e-12
-7.9100679e-05
-4.5401241e-05
3.7249968e-12
-6.4391867e-05
-4.40758e-05
3.7050829e-12
-5.0461312e-05
-4.1222053e-05
3.7821524e-12
-3.7749194e-05
-3.6972235e-05
3.9558281e-12
-2.6630822e-05
-3.1552965e-05
4.1407683e-12
-1.7388892e-05
-2.5286156e-05
4.2116124e-12
-1.0188155e-05
-1.8589014e-05
4.34623e-12
-5.0544071e-06
-1.1975513e-05
5.0674285e-12
-1.8600767e-06
-6.0587165e-06
4.9384958e-12
-3.2238039e-07
-1.5575154e-06
1.8083936e-12
6.4058714e-07
7.0374673e-12
-1.692033e-06
3.523935e-06
-1.6328412e-11
-6.367089e-06
1.2325743e-05
1.0847348e-11
-1.3662154e-05
2.1433771e-05
-4.0992349e-12
-2.3218268e-05
2.9993488e-05
-6.3030523e-12
-3.4671718e-05
3.7529498e-05
-3.6819e-12
-4.7657597e-05
4.3791122e-05
-3.1445853e-12
-6.1815906e-05
4.8682098e-05
-2.9927671e-12
-7.6796627e-05
5.2202294e-05
-2.5862608e-12
-9.2262436e-05
5.4400396e-05
-2.136646e-12
-0.00010788891
5.5341342e-05
-1.6919654e-12
-0.00012336299
5.5086604e-05
-1.2120502e-12
-0.00013838061
5.368473e-05
-6.9706377e-13
-0.00015264477
5.1169845e-05
-1.9028831e-13
-0.00016586466
4.7565901e-05
2.7678888e-13
-0.00017775656
4.2894638e-05
7.1663405e-13
-0.00018804686
3.7185475e-05
1.1584135e-12
-0.00019647713
3.0485865e-05
1.6138643e-12
-0.00020281104
2.2870928e-05
2.0809384e-12
-0.00020684293
1.4451461e-05
2.5478901e-12
-0.00020840732
5.3796206e-06
2.9950633e-12
-0.000207389
-4.1483892e-06
3.4055517e-12
-0.000203733
-1.3892763e-05
3.7650461e-12
-0.00019745369
-2.3573836e-05
4.043427e-12
-0.00018864241
-3.2880324e-05
4.2221264e-12
-0.00017747267
-4.1480586e-05
4.3085371e-12
-0.00016420226
-4.9037711e-05
4.3270749e-12
-0.00014917136
-5.5227615e-05
4.3037002e-12
-0.00013279592
-5.9759397e-05
4.2577948e-12
-0.0001155559
-6.2396786e-05
4.1979867e-12
-9.7977916e-05
-6.2979231e-05
4.1264913e-12
-8.0612736e-05
-6.1440984e-05
4.0592828e-12
-6.4008199e-05
-5.7826594e-05
4.044961e-12
-4.8678911e-05
-5.2301527e-05
4.1407158e-12
-3.5074575e-05
-4.5157304e-05
4.3094925e-12
-2.3549228e-05
-3.6811505e-05
4.3714526e-12
-1.4333964e-05
-2.780428e-05
4.523092e-12
-7.515871e-06
-1.8793611e-05
5.5446282e-12
-3.0263219e-06
-1.0548269e-05
4.8944791e-12
-6.4245357e-07
-3.9413816e-06
-6.7786294e-13
-1.892694e-09
9.4378341e-12
-2.1314303e-06
5.6553877e-06
-1.9093113e-11
-7.8854956e-06
1.8079799e-05
1.5545315e-11
-1.6705622e-05
3.0253902e-05
-3.4839109e-12
-2.8086037e-05
4.1373905e-05
-6.4742343e-12
-4.1556125e-05
5.0999582e-05
-3.3157092e-12
-5.6674916e-05
5.8909915e-05
-2.7520995e-12
-7.3028135e-05
6.5035322e-05
-2.6781548e-12
-9.0225654e-05
6.9399816e-05
-2.299147e-12
-0.00010789851
7.2073253e-05
-1.871408e-12
-0.00012569526
7.3138085e-05
-1.4427676e-12
-0.00014327795
7.2669298e-05
-9.7562385e-13
-0.00016031851
7.0725288e-05
-4.8449595e-13
-0.00017649605
6.7347382e-05
-1.5416692e-14
-0.00019149586
6.2565711e-05
4.0729961e-13
-0.00020501038
5.6409157e-05
8.0508543e-13
-0.0002167423
4.8917396e-05
1.2105123e-12
-0.00022640979
4.0153353e-05
1.6353791e-12
-0.00023375358
3.0214719e-05
2.0759773e-12
-0.00023854564
1.9243517e-05
2.520284e-12
-0.00024059895
7.4329332e-06
2.9476855e-12
-0.00023977805
-4.9692995e-06
3.3375847e-12
-0.00023600953
-1.766128e-05
3.6775324e-12
-0.00022929239
-3.0290986e-05
3.9362622e-12
-0.0002197069
-4.2465816e-05
4.0974066e-12
-0.00020742172
-5.3765776e-05
4.1656862e-12
-0.00019269795
-6.3761491e-05
4.1600435e-12
-0.00017588933
-7.2036239e-05
4.106836e-12
-0.00015743748
-7.8211249e-05
4.0352076e-12
-0.00013786131
-8.197296e-05
3.9706158e-12
-0.00011774006
-8.3100487e-05
3.922356e-12
-9.7689921e-05
-8.1491121e-05
3.8868216e-12
-7.8334921e-05
-7.7181595e-05
3.8779094e-12
-6.0273423e-05
-7.0363027e-05
3.9484108e-12
-4.4042575e-05
-6.1388155e-05
4.0969265e-12
-3.0083571e-05
-5.0770511e-05
4.1666725e-12
-1.8711041e-05
-3.9176811e-05
4.458405e-12
-1.0090052e-05
-2.7414603e-05
5.9774085e-12
-4.2242616e-06
-1.6414064e-05
4.8962077e-12
-9.5836843e-07
-7.2072745e-06
-3.4324178e-12
-9.60252e-07
1.1624294e-11
-2.5431953e-06
8.1986075e-06
-2.1832704e-11
-9.3220816e-06
2.4858666e-05
1.9751878e-11
-1.9601255e-05
4.0533075e-05
-3.0843244e-12
-3.27335e-05
5.4506151e-05
-6.756948e-12
-4.8141875e-05
6.6407956e-05
-3.0840664e-12
-6.5308415e-05
7.6076458e-05
-2.5463022e-12
-8.3764174e-05
8.3491084e-05
-2.6144465e-12
-0.00010308008
8.8715719e-05
-2.3004031e-12
-0.0001228585
9.185168e-05
-1.9003166e-12
-0.00014272556
9.3005135e-05
-1.4905804e-12
-0.00016232421
9.226795e-05
-1.0507674e-12
-0.0001813088
8.9709877e-05
-5.9643857e-13
-0.00019934124
8.5379825e-05
-1.5753822e-13
-0.00021608933
7.9313806e-05
2.4723518e-13
-0.0002312273
7.1547128e-05
6.3661079e-13
-0.0002444386
6.2128696e-05
1.0391089e-12
-0.00025542085
5.1135603e-05
1.4676721e-12
-0.0002638927
3.8686565e-05
1.919543e-12
-0.0002696023
2.4953122e-05
2.3818909e-12
-0.00027233718
1.0167811e-05
2.8326914e-12
-0.00027193505
-5.3714315e-06
3.2486668e-12
-0.00026829514
-2.1301197e-05
3.6209799e-12
-0.00026138986
-3.7196268e-05
3.912345e-12
-0.00025127571
-5.2579973e-05
4.1079313e-12
-0.00023810283
-6.6938663e-05
4.2141717e-12
-0.00022212212
-7.9742203e-05
4.2495253e-12
-0.0002036886
-9.0469761e-05
4.2319784e-12
-0.00018325964
-9.8640217e-05
4.1759481e-12
-0.00016138672
-0.00010384588
4.1023945e-12
-0.00013869981
-0.0001057874
4.0396209e-12
-0.0001158837
-0.00010430723
4.0096608e-12
-9.3646985e-05
-9.9418311e-05
4.0224729e-12
-7.2684927e-05
-9.1325085e-05
4.0908555e-12
-5.3639019e-05
-8.0434066e-05
4.1701782e-12
-3.7056681e-05
-6.7352853e-05
4.1077534e-12
-2.3355305e-05
-5.2878187e-05
4.4089968e-12
-1.2794868e-05
-3.797504e-05
6.3929194e-12
-5.4631377e-06
-2.3745787e-05
4.8253463e-12
-1.2769214e-06
-1.1393482e-05
-6.3937081e-12
-2.2371862e-06
1.3989362e-11
-2.9263087e-06
1.1124941e-05
-2.4524019e-11
-1.0665853e-05
3.2598185e-05
2.3586483e-11
-2.2320001e-05
5.2187223e-05
-2.763404e-12
-3.71094e-05
6.9295555e-05
-7.0668313e-12
-5.4355654e-05
8.3654212e-05
-2.9214848e-12
-7.3466297e-05
9.5187105e-05
-2.4208578e-12
-9.3919521e-05
0.00010394431
-2.6270332e-12
-0.00011524952
0.00011004572
-2.3738005e-12
-0.00013703319
0.00011363535
-2.0009729e-12
-0.0001588784
0.00011485034
-1.6157325e-12
-0.00018041416
0.00011380371
-1.2105072e-12
-0.00020128295
0.00011057867
-7.97464e-13
-0.00022113538
0.00010523226
-3.8764838e-13
-0.00023962741
9.7805838e-05
6.9779121e-15
-0.00025641999
8.8339708e-05
3.9595225e-13
-0.00027118111
7.6889816e-05
7.9923547e-13
-0.00028359003
6.3544525e-05
1.2312078e-12
-0.00029334352
4.8440046e-05
1.6942741e-12
-0.00030016382
3.1773429e-05
2.1766428e-12
-0.00030380837
1.3812356e-05
2.6532716e-12
-0.00030408085
-5.0989489e-06
3.0988268e-12
-0.00030084332
-2.453873e-05
3.5215916e-12
-0.00029402964
-4.4009955e-05
3.8713625e-12
-0.00028365872
-6.2950898e-05
4.1270544e-12
-0.00026984743
-8.0749954e-05
4.2895059e-12
-0.00025282168
-9.6767959e-05
4.3805614e-12
-0.00023292413
-0.00011036731
4.4238855e-12
-0.00021061679
-0.00012094756
4.4225264e-12
-0.00018647652
-0.00012798615
4.3706726e-12
-0.00016118182
-0.00013108211
4.2850667e-12
-0.00013548983
-0.00012999922
4.2147935e-12
-0.00011020358
-0.00012470457
4.210382e-12
-8.6130776e-05
-0.00011539789
4.2835988e-12
-6.4037169e-05
-0.00010252768
4.3250961e-12
-4.4598658e-05
-8.679137e-05
4.1208255e-12
-2.8357418e-05
-6.9119429e-05
4.3817717e-12
-1.5687221e-05
-5.0645245e-05
6.8251483e-12
-6.7727754e-06
-3.266024e-05
4.7731581e-12
-1.6064943e-06
-1.6559747e-05
-9.4397447e-12
-3.8436942e-06
1.6482423e-11
-3.2792634e-06
1.4404231e-05
-2.7061278e-11
-1.190717e-05
4.1226066e-05
2.7093171e-11
-2.483762e-05
6.5117676e-05
-2.4969936e-12
-4.1170674e-05
8.5628616e-05
-7.4069431e-12
-6.0134196e-05
0.00010261774
-2.8336818e-12
-8.1066293e-05
0.0001161192
-2.3500572e-12
-0.00010339599
0.00012627401
-2.6535714e-12
-0.00012662408
0.00013327381
-2.4414947e-12
-0.00015030557
0.00013731683
-2.1021432e-12
-0.00017403428
0.00013857905
-1.7559501e-12
-0.00019743006
0.0001371995
-1.3927535e-12
-0.00022012879
0.00013327739
-1.0220692e-12
-0.0002417752
0.00012687867
-6.4358367e-13
-0.0002620186
0.00011804924
-2.6271893e-13
-0.00028051126
0.00010683237
1.2172116e-13
-0.00029690925
9.3287806e-05
5.2183027e-13
-0.00031087555
7.7510821e-05
9.5373594e-13
-0.00032208523
5.9649723e-05
1.4263079e-12
-0.00033023266
3.9920857e-05
1.9274961e-12
-0.00033504068
1.8620376e-05
2.4217866e-12
-0.00033627195
-3.8676873e-06
2.8760009e-12
-0.00033374146
-2.7069225e-05
3.36022e-12
-0.00032733231
-5.0419099e-05
3.7802274e-12
-0.00031701147
-7.3271748e-05
4.1138863e-12
-0.00030284661
-9.4914819e-05
4.3503715e-12
-0.00028502216
-0.00011459241
4.5042321e-12
-0.00026385265
-0.00013153683
4.6065305e-12
-0.00023979109
-0.00014500912
4.6654437e-12
-0.00021342989
-0.00015434736
4.6595355e-12
-0.00018549168
-0.00015902032
4.5778414e-12
-0.00015680823
-0.00015868268
4.4645215e-12
-0.00012828656
-0.00015322624
4.4041053e-12
-0.00010086343
-0.00014282102
4.4448657e-12
-7.5451093e-05
-0.00012794003
4.4505961e-12
-5.2879522e-05
-0.00010936295
4.1287454e-12
-3.3841522e-05
-8.8157431e-05
4.3620906e-12
-1.884736e-05
-6.5639406e-05
7.308625e-12
-8.1951096e-06
-4.3312494e-05
4.7427871e-12
-1.9604314e-06
-2.2794408e-05
-1.2687818e-11
-5.8041416e-06
1.9137336e-11
-3.5996648e-06
1.8003926e-05
-2.9388298e-11
-1.3035503e-05
5.0661875e-05
3.0214874e-11
-2.7130101e-05
7.9212278e-05
-2.3270206e-12
-4.4875924e-05
0.00010337445
-7.7945836e-12
-6.5416674e-05
0.00012315849
-2.8281817e-12
-8.802787e-05
0.0001387304
-2.3423841e-12
-0.00011209445
0.00015034059
-2.7163125e-12
-0.00013708803
0.00015826739
-2.5390098e-12
-0.00016254575
0.00016277455
-2.2438637e-12
-0.00018805164
0.00016408495
-1.9486113e-12
-0.00021322104
0.00016236891
-1.6310301e-12
-0.0002376882
0.00015774455
-1.3013331e-12
-0.00026109712
0.00015028759
-9.567428e-13
-0.00028309554
0.00014004765
-5.9615794e-13
-0.00030333161
0.00012706844
-2.1846364e-13
-0.00032145321
0.00011140941
1.813103e-13
-0.00033710953
9.3167137e-05
6.1818977e-13
-0.00034995481
7.2495006e-05
1.104098e-12
-0.0003596544
4.9620444e-05
1.6266525e-12
-0.00036589304
2.4859016e-05
2.1419285e-12
-0.0003683864
-1.374336e-06
2.5941809e-12
-0.00036689334
-2.8562282e-05
3.1630536e-12
-0.00036123464
-5.6077808e-05
3.6546996e-12
-0.00035131074
-8.3195651e-05
4.0696127e-12
-0.00033712339
-0.00010910217
4.3942601e-12
-0.00031879728
-0.00013291853
4.6292291e-12
-0.00029660015
-0.00015373396
4.7969648e-12
-0.00027095872
-0.00017065055
4.9067737e-12
-0.00024246691
-0.00018283917
4.940854e-12
-0.00021188285
-0.00018960439
4.8810347e-12
-0.00018011158
-0.00019045396
4.7540001e-12
-0.00014817143
-0.00018516639
4.6419366e-12
-0.00011714432
-0.00017384814
4.6216789e-12
-8.8112867e-05
-0.00015697148
4.5656144e-12
-6.2090194e-05
-0.00013538562
4.1308046e-12
-3.995043e-05
-0.00011029719
4.3687847e-12
-2.2368699e-05
-8.3221144e-05
7.8929077e-12
-9.7788306e-06
-5.5902368e-05
4.7625092e-12
-2.353775e-06
-3.0219444e-05
-1.6232942e-11
-8.1579351e-06
2.2127174e-11
-3.8842817e-06
2.188824e-05
-3.1514804e-11
-1.4038864e-05
6.0816425e-05
3.2886741e-11
-2.9172052e-05
9.4345466e-05
-2.2656072e-12
-4.8182783e-05
0.00012238518
-8.2056165e-12
-7.0141357e-05
0.00014511706
-2.8734803e-12
-9.4268665e-05
0.00016285771
-2.382159e-12
-0.00011991151
0.00017598344
-2.8275573e-12
-0.00014651708
0.00018487297
-2.6940501e-12
-0.00017360896
0.00018986642
-2.447071e-12
-0.00020076567
0.00019124166
-2.2026198e-12
-0.00022760255
0.00018920579
-1.9282322e-12
-0.00025375706
0.00018389906
-1.6376488e-12
-0.00027887754
0.00017540808
-1.3267976e-12
-0.00030261521
0.00016378533
-9.87262e-13
-0.00032461898
0.00014907221
-6.142461e-13
-0.00034453284
0.00013132327
-2.0748206e-13
-0.00036199555
0.00011062985
2.3885031e-13
-0.00037664266
8.7142115e-05
7.3386835e-13
-0.00038811092
6.1088701e-05
1.2706077e-12
-0.00039604548
3.2793581e-05
1.8417367e-12
-0.00040011
2.6901797e-06
2.4518205e-12
-0.00040000159
-2.8670696e-05
2.966764e-12
-0.00039546749
-6.0611911e-05
3.4910304e-12
-0.0003863281
-9.233504e-05
3.9755336e-12
-0.00037250221
-0.00012292807
4.3862856e-12
-0.00035403482
-0.00015138592
4.7154644e-12
-0.00033112525
-0.00017664354
4.9654372e-12
-0.00030415205
-0.00019762375
5.1270389e-12
-0.00027369094
-0.00021330029
5.1860217e-12
-0.00024052067
-0.00022277466
5.141617e-12
-0.00020561233
-0.0002253623
5.0206789e-12
-0.00017009825
-0.00022068047
4.8855837e-12
-0.00013521929
-0.0002087271
4.8116848e-12
-0.00010225275
-0.00018993803
4.6768672e-12
-7.2427294e-05
-0.00016521108
4.1070761e-12
-4.6834818e-05
-0.00013588967
4.3737732e-12
-2.6350982e-05
-0.00010370499
8.5897012e-12
-1.1575879e-05
-7.0677478e-05
4.8460205e-12
-2.8022033e-06
-3.8993096e-05
-2.0188041e-11
-1.0960161e-05
2.5585789e-11
-4.1292973e-06
2.6017568e-05
-3.3418363e-11
-1.4904145e-05
7.1591235e-05
3.511239e-11
-3.0936847e-05
0.00011037817
-2.274259e-12
-5.1047771e-05
0.00014249611
-8.6087043e-12
-7.4245295e-05
0.00016831458
-2.9572667e-12
-9.9704188e-05
0.00018831661
-2.4712333e-12
-0.00012673945
0.0002030187
-2.9974784e-12
-0.00015477884
0.00021291236
-2.9172686e-12
-0.00018333668
0.00021842426
-2.7178567e-12
-0.00021199016
0.00021989514
-2.5189147e-12
-0.00024035898
0.00021757461
-2.2851548e-12
-0.00026808851
0.00021162859
-2.0323946e-12
-0.00029483646
0.00020215603
-1.7509411e-12
-0.00032026279
0.00018921166
-1.4257027e-12
-0.00034402248
0.0001728319
-1.0521852e-12
-0.00036576075
0.00015306153
-6.3487975e-13
-0.00038511061
0.00012997971
-1.7898491e-13
-0.00040169276
0.00010372426
3.1863321e-13
-0.00041511799
7.4513928e-05
8.5770346e-13
-0.00042499271
4.2668306e-05
1.4507215e-12
-0.00043092787
8.6253376e-06
2.1132088e-12
-0.00043255363
-2.7044938e-05
2.6791065e-12
-0.0004295366
-6.3628947e-05
3.2637833e-12
-0.00042160514
-0.0001002665
3.81583e-12
-0.00040857868
-0.00013595454
4.3051438e-12
-0.00039040178
-0.00016956282
4.7260489e-12
-0.00036718071
-0.00019986461
5.0665337e-12
-0.00033921911
-0.00022558535
5.2924495e-12
-0.00030704792
-0.00024547149
5.3794999e-12
-0.00027144354
-0.00025837905
5.3396273e-12
-0.00023342749
-0.00026337836
5.2137575e-12
-0.00019424146
-0.00025986651
5.0596624e-12
-0.00015529417
-0.0002476744
4.9474007e-12
-0.00011808057
-0.00022715163
4.7464747e-12
-8.4079945e-05
-0.00019921171
4.0396181e-12
-5.4644689e-05
-0.00016532494
4.3582008e-12
-3.0895526e-05
-0.00012745417
9.3975182e-12
-1.3639438e-05
-8.7933574e-05
4.9812092e-12
-3.3216892e-06
-4.9310819e-05
-2.4697638e-11
-1.4281878e-05
2.9617282e-11
-4.3306686e-06
3.0348269e-05
-3.5025831e-11
-1.5617972e-05
8.2878499e-05
3.6915081e-11
-3.2397906e-05
0.0001271581
-2.3165977e-12
-5.3427904e-05
0.00016352612
-8.989871e-12
-7.766621e-05
0.00019255289
-3.0906494e-12
-0.00010425009
0.00021490049
-2.6261319e-12
-0.00013246905
0.00023123766
-3.2324178e-12
-0.00016173624
0.00024217956
-3.204583e-12
-0.00019156083
0.00024824885
-3.0491593e-12
-0.00022152259
0.00024985692
-2.8930437e-12
-0.0002512497
0.00024730173
-2.6964335e-12
-0.00028039994
0.00024077883
-2.4764297e-12
-0.00030864537
0.00023040146
-2.2167357e-12
-0.0003356602
0.0002162265
-1.8977751e-12
-0.00036111134
0.00019828304
-1.5216829e-12
-0.00038465136
0.00017660156
-1.0998236e-12
-0.00040591372
0.00015124207
-6.3974629e-13
-0.00042451019
0.00012232073
-1.4300411e-13
-0.00044003096
9.0034696e-05
3.9429464e-13
-0.00045204789
5.4685231e-05
9.8606529e-13
-0.00046012178
1.6699234e-05
1.6404883e-12
-0.0004638152
-2.3351526e-05
2.2892677e-12
-0.00046271033
-6.4733817e-05
2.9477138e-12
-0.00045643482
-0.00010654201
3.5748615e-12
-0.00044469443
-0.00014769493
4.1453228e-12
-0.00042731277
-0.00018694448
4.6520313e-12
-0.00040427655
-0.00022290084
5.0779968e-12
-0.00037578297
-0.00025407894
5.3779438e-12
-0.00034228425
-0.00027897021
5.5132158e-12
-0.00030452173
-0.00029614157
5.4869284e-12
-0.00026354081
-0.00030435929
5.3425796e-12
-0.00022067743
-0.00030272991
5.1518637e-12
-0.00017750887
-0.00029084296
5.0009886e-12
-0.00013576674
-0.00026889377
4.7440935e-12
-9.721712e-05
-0.00023776134
3.8988955e-12
-6.3521894e-05
-0.00019902017
4.2953179e-12
-3.6101507e-05
-0.00015487458
1.0313696e-11
-1.6022619e-05
-0.00010801247
5.1489584e-12
-3.9283411e-06
-6.1405067e-05
-2.9917974e-11
-1.8210253e-05
3.4327312e-11
-4.4845585e-06
3.4832861e-05
-3.6273544e-11
-1.6167924e-05
9.4561825e-05
3.8275879e-11
-3.3530751e-05
0.00014452093
-2.3941805e-12
-5.5283535e-05
0.00018527891
-9.3491015e-12
-8.0346098e-05
0.00021761546
-3.2786698e-12
-0.00010782652
0.00024238092
-2.8462177e-12
-0.00013699471
0.00026040585
-3.521636e-12
-0.00016725363
0.00027243848
-3.5380231e-12
-0.00019811096
0.00027910619
-3.4218715e-12
-0.00022915256
0.00028089852
-3.3047441e-12
-0.00026001879
0.00027816797
-3.1393257e-12
-0.00029038412
0.00027114415
-2.9418305e-12
-0.00031993989
0.00025995724
-2.6948779e-12
-0.0003483802
0.00024466682
-2.3785821e-12
-0.00037539032
0.00022529316
-2.0022522e-12
-0.00040063732
0.00020184856
-1.5846596e-12
-0.00042376287
0.00017436761
-1.1290353e-12
-0.00044437803
0.00014293589
-6.349929e-13
-0.00046206068
0.00010771734
-9.8624997e-14
-0.00047635604
6.8980592e-05
4.9196571e-13
-0.00048678141
2.7124606e-05
1.1439629e-12
-0.00049283642
-1.7296514e-05
1.8329556e-12
-0.00049401979
-6.3550452e-05
2.5441204e-12
-0.00048985448
-0.00011070733
3.2448598e-12
-0.00047992208
-0.00015762734
3.9039322e-12
-0.0004639069
-0.00020295966
4.4997772e-12
-0.00044164919
-0.00024515856
5.0084732e-12
-0.00041320474
-0.00028252339
5.385812e-12
-0.00037890586
-0.0003132691
5.5875483e-12
-0.00033941546
-0.00033563198
5.596478e-12
-0.00029576301
-0.00034801175
5.4362221e-12
-0.00024934951
-0.00034914341
5.1901336e-12
-0.00020190933
-0.00033828314
4.984259e-12
-0.00015542175
-0.00031538135
4.6647957e-12
-0.00011197432
-0.00028120877
3.6676412e-12
-7.3592647e-05
-0.00023740185
4.1673824e-12
-4.2062561e-05
-0.00018640468
1.1346307e-11
-1.8777416e-05
-0.00013129763
5.3353555e-12
-4.6383262e-06
-7.5544123e-05
-3.6000555e-11
-2.2848619e-05
3.9830084e-11
-4.5878245e-06
3.9420721e-05
-3.7150418e-11
-1.6544004e-05
0.00010651796
3.9144473e-11
-3.431563e-05
0.00016229257
-2.5252097e-12
-5.658215e-05
0.00020754544
-9.6859825e-12
-8.223614e-05
0.00024326945
-3.5124984e-12
-0.00011036413
0.00027050891
-3.1151372e-12
-0.00014022163
0.00029026336
-3.8466103e-12
-0.00017120519
0.00030342205
-3.8987641e-12
-0.00020282404
0.00031072505
-3.8151753e-12
-0.0002346731
0.00031274758
-3.7285007e-12
-0.00026640824
0.00030990311
-3.5841216e-12
-0.00029772449
0.00030246041
-3.3986714e-12
-0.00032833725
0.00029057
-3.1566684e-12
-0.00035796626
0.00027429583
-2.8417803e-12
-0.00038632199
0.00025364889
-2.4683469e-12
-0.00041309407
0.00022862065
-2.060547e-12
-0.0004379416
0.00019921514
-1.6158616e-12
-0.00046048531
0.0001654796
-1.1274569e-12
-0.00048030204
0.00012753407
-5.9256571e-13
-0.0004969221
8.5600655e-05
-1.9181202e-15
-0.00050983067
4.0033178e-05
6.4947178e-13
-0.00051847456
-8.6526249e-06
1.3527032e-12
-0.00052227605
-5.974896e-05
2.0879138e-12
-0.00052065573
-0.00011232765
2.8418173e-12
-0.0005130663
-0.00016521678
3.5838378e-12
-0.00049903893
-0.00021698705
4.2756764e-12
-0.00047824262
-0.00026595487
4.8767248e-12
-0.0004505554
-0.00031021063
5.3388716e-12
-0.00041614276
-0.00034768175
5.6153987e-12
-0.00037553517
-0.00037623958
5.6738235e-12
-0.00032969147
-0.00039385546
5.5119559e-12
-0.00028003107
-0.00039880383
5.2116933e-12
-0.00022841673
-0.00038989748
4.94002e-12
-0.0001770733
-0.00036672478
4.5382076e-12
-0.00012843857
-0.0003298435
3.3516781e-12
-8.4959196e-05
-0.00028088123
3.9655737e-12
-4.8863109e-05
-0.00022250078
1.250819e-11
-2.1953649e-05
-0.0001582071
5.5335735e-12
-5.4678118e-06
-9.202992e-05
-4.3082469e-11
-2.8316478e-05
4.6243098e-11
-4.6385503e-06
4.4059307e-05
-3.7671507e-11
-1.6740298e-05
0.00011861967
3.9492214e-11
-3.4740576e-05
0.00018029285
-2.7118756e-12
-5.7302876e-05
0.00023010775
-9.9932928e-12
-8.3302645e-05
0.00026926922
-3.7800909e-12
-0.00011181142
0.00029901769
-3.419351e-12
-0.00014207459
0.00032052653
-4.1963914e-12
-0.0001734852
0.00033483267
-4.2763228e-12
-0.00020555647
0.00034279632
-4.2151893e-12
-0.00023789476
0.00034508588
-4.1453919e-12
-0.00027017425
0.00034218261
-4.0079189e-12
-0.00030211411
0.00033440027
-3.8226117e-12
-0.00033345829
0.00032191419
-3.5791191e-12
-0.00036395789
0.00030479543
-3.2636443e-12
-0.00039335568
0.00028304668
-2.8939022e-12
-0.00042137251
0.00025663748
-2.4956336e-12
-0.00044769532
0.00022553794
-2.061913e-12
-0.00047196669
0.00018975097
-1.5804933e-12
-0.00049377632
0.00014934371
-1.0476812e-12
-0.00051265494
0.00010447927
-4.5661164e-13
-0.00052807165
5.5449891e-05
1.9563015e-13
-0.00053943624
2.7119668e-06
9.0472733e-13
-0.00054610847
-5.3076736e-05
1.642195e-12
-0.00054741635
-0.00011101977
2.4201363e-12
-0.00054268682
-0.00016994632
3.2192852e-12
-0.00053129119
-0.00022838269
3.997673e-12
-0.00051270784
-0.00028453822
4.6991627e-12
-0.00048660264
-0.00033631583
5.2608062e-12
-0.00045292447
-0.00038135992
5.6240723e-12
-0.00041200843
-0.00041715562
5.7418736e-12
-0.00036467266
-0.00044119125
5.5919432e-12
-0.00031228792
-0.00045118857
5.2483073e-12
-0.00025679432
-0.00044539108
4.9068382e-12
-0.00020064049
-0.0004228786
4.3927703e-12
-0.00014663111
-0.00038385288
2.9518381e-12
-9.768998e-05
-0.00032982237
3.6712677e-12
-5.657396e-05
-0.00026361682
1.3805518e-11
-2.5597652e-05
-0.00018918342
5.7420754e-12
-6.4328621e-06
-0.00011119466