/*--------------------------------*- C++ -*----------------------------------*\
  =========                 |
  \\      /  F ield         | OpenFOAM: The Open Source CFD Toolbox
   \\    /   O peration     | Website:  https://openfoam.org
    \\  /    A nd           | Version:  7
     \\/     M anipulation  |
\*---------------------------------------------------------------------------*/
FoamFile
{
    version     2.0;
    format      ascii;
    class       surfaceScalarField;
    location    "15";
    object      phi_0;
}
// * * * * * * * * * * * * * * * * * * * * * * * * * * * * * * * * * * * * * //

dimensions      [0 3 -1 0 0 0 0];

internalField   nonuniform List<scalar> 
45600
(
2.7595126e-07
-2.8098905e-07
-6.1473713e-11
4.0336639e-07
-1.2737341e-07
-2.1731189e-11
1.3233988e-07
2.7103802e-07
-6.1749019e-12
-5.6240332e-07
6.9474461e-07
-1.1321736e-12
-1.6389576e-06
1.0765505e-06
3.6703384e-12
-3.0265711e-06
1.3876047e-06
7.2708852e-12
-4.650534e-06
1.623951e-06
9.9239507e-12
-6.4421544e-06
1.7916118e-06
1.1829335e-11
-8.3413851e-06
1.8992203e-06
1.3066792e-11
-1.0296263e-05
1.9548621e-06
1.384288e-11
-1.2261062e-05
1.9647829e-06
1.4366683e-11
-1.4194089e-05
1.9330141e-06
1.4628884e-11
-1.6055632e-05
1.8615319e-06
1.4530925e-11
-1.7806375e-05
1.7507315e-06
1.4050561e-11
-1.9406457e-05
1.6000694e-06
1.3245707e-11
-2.0815246e-05
1.4087781e-06
1.2163756e-11
-2.1991842e-05
1.1765867e-06
1.0797531e-11
-2.2896242e-05
9.043938e-07
9.1147953e-12
-2.3491099e-05
5.9485189e-07
7.1170501e-12
-2.374393e-05
2.5282814e-07
4.8615214e-12
-2.3629619e-05
-1.1431026e-07
2.4136753e-12
-2.3132995e-05
-4.9662146e-07
-1.7317782e-13
-2.2251315e-05
-8.8167371e-07
-2.8408705e-12
-2.0996339e-05
-1.2549682e-06
-5.5032619e-12
-1.939576e-05
-1.6005707e-06
-8.0489052e-12
-1.7493777e-05
-1.9019735e-06
-1.0335105e-11
-1.5350613e-05
-2.1431546e-06
-1.2218957e-11
-1.3040854e-05
-2.3097474e-06
-1.3582833e-11
-1.0650623e-05
-2.3902193e-06
-1.4320068e-11
-8.273667e-06
-2.3769438e-06
-1.4328223e-11
-6.0065907e-06
-2.2670633e-06
-1.3553489e-11
-3.9435202e-06
-2.0630577e-06
-1.2022915e-11
-2.1704912e-06
-1.7730179e-06
-9.8018359e-12
-7.5969261e-07
-1.4107905e-06
-6.9397212e-12
2.368848e-07
-9.9657195e-07
-3.6560018e-12
7.9530517e-07
-5.5841737e-07
-6.5981614e-13
9.2832521e-07
-1.3302124e-07
2.5557868e-12
7.050364e-07
2.2328097e-07
6.3117344e-12
2.9029848e-07
4.1472262e-07
1.0294482e-11
2.9029045e-07
3.7359194e-12
1.3316377e-07
-4.14112e-07
-1.8692371e-11
-3.0142934e-07
3.0724109e-07
-1.2494174e-11
-1.6147865e-06
1.5844037e-06
-1.1579704e-11
-3.8731039e-06
2.9530652e-06
-1.2736609e-11
-7.0041199e-06
4.2075768e-06
-1.3942609e-11
-1.0874367e-05
5.2578694e-06
-1.5141427e-11
-1.5327192e-05
6.0767918e-06
-1.6249555e-11
-2.0205125e-05
6.6695607e-06
-1.7177071e-11
-2.5360072e-05
7.0541815e-06
-1.7717871e-11
-3.0656065e-05
7.2508693e-06
-1.7749544e-11
-3.5968092e-05
7.2768257e-06
-1.732581e-11
-4.1179201e-05
7.1441413e-06
-1.6585931e-11
-4.6177312e-05
6.8596597e-06
-1.5563545e-11
-5.0852638e-05
6.4260711e-06
-1.4198371e-11
-5.5096278e-05
5.8437231e-06
-1.2448497e-11
-5.8800266e-05
5.1127787e-06
-1.0329898e-11
-6.1859121e-05
4.2354534e-06
-7.8740412e-12
-6.4172839e-05
3.2181208e-06
-5.0958253e-12
-6.56511e-05
2.0731185e-06
-2.0122393e-12
-6.6218362e-05
8.2009258e-07
1.3337837e-12
-6.581969e-05
-5.1298272e-07
4.859778e-12
-6.4425986e-05
-1.8903298e-06
8.4891979e-12
-6.2039752e-05
-3.2679169e-06
1.2046944e-11
-5.8699029e-05
-4.5957062e-06
1.5401058e-11
-5.4480163e-05
-5.8194563e-06
1.8425368e-11
-4.9498507e-05
-6.883652e-06
2.0986585e-11
-4.3906748e-05
-7.7349385e-06
2.2954735e-11
-3.7890635e-05
-8.3258854e-06
2.422572e-11
-3.1662091e-05
-8.6187874e-06
2.4740397e-11
-2.5449886e-05
-8.5891705e-06
2.4481691e-11
-1.9488267e-05
-8.2287008e-06
2.3455508e-11
-1.4004056e-05
-7.5472862e-06
2.1685018e-11
-9.2027227e-06
-6.5743673e-06
1.9225812e-11
-5.2537942e-06
-5.3597336e-06
1.6201323e-11
-2.2756835e-06
-3.9746952e-06
1.2825754e-11
-3.1918471e-07
-2.5149235e-06
9.2844802e-12
6.5542377e-07
-1.107628e-06
5.4896273e-12
8.0264181e-07
7.6072574e-08
4.0580872e-12
4.174698e-07
7.9990619e-07
5.362914e-12
7.0775892e-07
-1.6974591e-12
-2.7336485e-07
-1.4073006e-07
-1.1738542e-11
-1.6265933e-06
1.6604729e-06
-6.2741734e-12
-4.2871595e-06
4.2449689e-06
-7.9177419e-12
-8.2702421e-06
6.9361491e-06
-6.6320417e-12
-1.3466963e-05
9.4043056e-06
-4.4525076e-12
-1.9697526e-05
1.1488439e-05
-3.1215987e-12
-2.675024e-05
1.3129506e-05
-2.3309431e-12
-3.4406364e-05
1.4325687e-05
-1.7532275e-12
-4.2453367e-05
1.5101187e-05
-1.1968032e-12
-5.0690052e-05
1.5487557e-05
-6.4325013e-13
-5.8926778e-05
1.5513554e-05
-1.5924048e-13
-6.6983202e-05
1.5200567e-05
2.2809452e-13
-7.468535e-05
1.4561808e-05
5.9130216e-13
-8.1863248e-05
1.360397e-05
9.9945291e-13
-8.8349916e-05
1.2330393e-05
1.4380024e-12
-9.3982132e-05
1.0744995e-05
1.8535518e-12
-9.8603097e-05
8.8564179e-06
2.2232903e-12
-0.0001020669
6.6819165e-06
2.5660119e-12
-0.00010424445
4.2506731e-06
2.9018402e-12
-0.00010503064
1.6062694e-06
3.2203312e-12
-0.00010435167
-1.1919522e-06
3.4986059e-12
-0.00010217286
-4.0691451e-06
3.7150446e-12
-9.8505223e-05
-6.9355638e-06
3.8705366e-12
-9.3410832e-05
-9.6901043e-06
3.9682716e-12
-8.7006044e-05
-1.2224251e-05
4.0034243e-12
-7.9462005e-05
-1.4427697e-05
3.9831037e-12
-7.1001987e-05
-1.6194961e-05
3.928649e-12
-6.1895259e-05
-1.7432616e-05
3.8538e-12
-5.2447422e-05
-1.8066626e-05
3.7601535e-12
-4.2987394e-05
-1.8049202e-05
3.6594965e-12
-3.3851476e-05
-1.7364621e-05
3.5951606e-12
-2.5365145e-05
-1.6033619e-05
3.628035e-12
-1.7823255e-05
-1.4116259e-05
3.7744952e-12
-1.1469337e-05
-1.1713653e-05
3.9613167e-12
-6.4744459e-06
-8.9695885e-06
4.0868098e-12
-2.9154253e-06
-6.0739489e-06
4.0791068e-12
-7.5268405e-07
-3.2703773e-06
3.8996158e-12
1.9331825e-07
-8.6993795e-07
4.5589471e-12
2.6507255e-07
7.2815509e-07
6.5256892e-12
9.72829e-07
1.8969779e-12
-7.4539244e-07
6.0467376e-07
-1.2412941e-11
-3.1777517e-06
4.0928283e-06
-8.1889118e-13
-7.3417243e-06
8.4089428e-06
-6.1690469e-12
-1.3155108e-05
1.2749538e-05
-5.3118756e-12
-2.0443309e-05
1.6692516e-05
-2.4353987e-12
-2.8974725e-05
2.001986e-05
-1.0148598e-12
-3.8489908e-05
2.2644688e-05
-1.4522769e-13
-4.8722176e-05
2.4557957e-05
6.789826e-13
-5.9409671e-05
2.5788684e-05
1.4381581e-12
-7.0300622e-05
2.6378507e-05
2.0254211e-12
-8.1154103e-05
2.6367031e-05
2.4378943e-12
-9.1738399e-05
2.5784862e-05
2.7615068e-12
-0.0001018287
2.4652107e-05
3.0775126e-12
-0.00011120537
2.2980645e-05
3.385965e-12
-0.00011965372
2.0778744e-05
3.6282714e-12
-0.00012696564
1.8056911e-05
3.7660754e-12
-0.0001329433
1.4834076e-05
3.8070237e-12
-0.00013740479
1.1143408e-05
3.7653792e-12
-0.00014019133
7.0372141e-06
3.6442291e-12
-0.00014117557
2.5905063e-06
3.4438316e-12
-0.00014027026
-2.0972696e-06
3.1762416e-12
-0.00013743706
-6.9023419e-06
2.8226638e-12
-0.00013269405
-1.1678582e-05
2.4238403e-12
-0.0001261217
-1.6262447e-05
2.0085726e-12
-0.00011786652
-2.0479432e-05
1.5859469e-12
-0.00010814146
-2.4152766e-05
1.1754819e-12
-9.7222766e-05
-2.7113656e-05
8.1954433e-13
-8.5442835e-05
-2.9212548e-05
5.5897537e-13
-7.3178825e-05
-3.0330636e-05
4.114622e-13
-6.083726e-05
-3.0390766e-05
3.8430419e-13
-4.8834986e-05
-2.9366894e-05
5.0944767e-13
-3.757719e-05
-2.7291415e-05
8.4746621e-13
-2.7433402e-05
-2.4260048e-05
1.4231251e-12
-1.8712519e-05
-2.0434536e-05
2.1476678e-12
-1.1637927e-05
-1.6044179e-05
2.8495457e-12
-6.3236316e-06
-1.1388243e-05
3.4444618e-12
-2.7522632e-06
-6.8417459e-06
4.0867033e-12
-7.5781982e-07
-2.864386e-06
4.8450507e-12
-9.8474915e-09
-1.9818595e-08
5.513115e-12
9.6298213e-07
4.7983007e-12
-1.2271914e-06
1.8318746e-06
-1.432426e-11
-4.7850374e-06
7.650666e-06
4.9622711e-12
-1.0514735e-05
1.4138645e-05
-5.1462558e-12
-1.8202486e-05
2.0437293e-05
-5.9628728e-12
-2.7585917e-05
2.6075952e-05
-3.4640195e-12
-3.8371185e-05
3.080513e-05
-2.8001704e-12
-5.0250158e-05
3.4523661e-05
-2.4688571e-12
-6.2913632e-05
3.7221433e-05
-1.892293e-12
-7.605939e-05
3.8934444e-05
-1.3243139e-12
-8.9395607e-05
3.9714724e-05
-9.1360296e-13
-0.00010264097
3.9612395e-05
-5.787541e-13
-0.00011552308
3.8666973e-05
-1.8264024e-13
-0.00012777653
3.6905556e-05
3.1076041e-13
-0.00013914179
3.4345906e-05
8.2949173e-13
-0.00014936569
3.1002647e-05
1.2982076e-12
-0.00015820388
2.68951e-05
1.7096073e-12
-0.00016542535
2.205555e-05
2.095862e-12
-0.00017081893
1.6536987e-05
2.4620051e-12
-0.00017420129
1.0419571e-05
2.7885067e-12
-0.00017542604
3.8152589e-06
3.0665192e-12
-0.00017439329
-3.1300283e-06
3.3015723e-12
-0.00017105894
-1.0236688e-05
3.4920451e-12
-0.00016544309
-1.7294434e-05
3.6502942e-12
-0.00015763661
-2.4068925e-05
3.7765308e-12
-0.00014780533
-3.0310713e-05
3.8588195e-12
-0.00013619094
-3.5767157e-05
3.8941557e-12
-0.00012310804
-4.0196557e-05
3.8938042e-12
-0.00010893679
-4.3383806e-05
3.8696641e-12
-9.4110822e-05
-4.5156607e-05
3.8312663e-12
-7.9100497e-05
-4.5401094e-05
3.7945624e-12
-6.4391729e-05
-4.4075664e-05
3.7923289e-12
-5.0461212e-05
-4.1221933e-05
3.8620445e-12
-3.7749128e-05
-3.6972135e-05
4.0102783e-12
-2.6630784e-05
-3.1552885e-05
4.1739965e-12
-1.7388874e-05
-2.5286096e-05
4.2479848e-12
-1.0188147e-05
-1.8588973e-05
4.3550402e-12
-5.0544027e-06
-1.1975492e-05
4.9156834e-12
-1.8600797e-06
-6.0587105e-06
4.5901885e-12
-3.2238051e-07
-1.5575148e-06
1.5982242e-12
6.4059839e-07
6.9806684e-12
-1.6920272e-06
3.5239165e-06
-1.6663554e-11
-6.3670672e-06
1.2325695e-05
1.0638347e-11
-1.3662108e-05
2.1433691e-05
-3.9593367e-12
-2.3218188e-05
2.9993377e-05
-6.0092409e-12
-3.4671591e-05
3.7529361e-05
-3.3032229e-12
-4.7657421e-05
4.3790964e-05
-2.8018079e-12
-6.1815682e-05
4.8681923e-05
-2.6045373e-12
-7.6796352e-05
5.2202107e-05
-2.0886551e-12
-9.2262106e-05
5.4400202e-05
-1.624588e-12
-0.00010788853
5.5341148e-05
-1.3108106e-12
-0.00012336255
5.5086414e-05
-9.9705959e-13
-0.00013838013
5.3684549e-05
-5.6467196e-13
-0.00015264424
5.1169677e-05
-3.9811373e-14
-0.00016586409
4.7565752e-05
4.8046865e-13
-0.00017775595
4.2894511e-05
9.431292e-13
-0.00018804623
3.7185374e-05
1.3703409e-12
-0.00019647648
3.0485792e-05
1.7966292e-12
-0.00020281038
2.2870887e-05
2.2143345e-12
-0.00020684227
1.4451453e-05
2.5980364e-12
-0.00020840666
5.3796463e-06
2.9429872e-12
-0.00020738836
-4.1483297e-06
3.2525611e-12
-0.00020373238
-1.3892671e-05
3.5302275e-12
-0.00019745311
-2.3573713e-05
3.7724474e-12
-0.00018864186
-3.2880173e-05
3.9751294e-12
-0.00017747216
-4.1480412e-05
4.1311431e-12
-0.0001642018
-4.9037518e-05
4.240606e-12
-0.00014917095
-5.522741e-05
4.306181e-12
-0.00013279558
-5.9759186e-05
4.3223245e-12
-0.00011555561
-6.2396577e-05
4.2857738e-12
-9.7977681e-05
-6.2979029e-05
4.2229462e-12
-8.0612552e-05
-6.1440796e-05
4.1940296e-12
-6.4008061e-05
-5.7826427e-05
4.2509031e-12
-4.8678813e-05
-5.2301385e-05
4.3803161e-12
-3.5074511e-05
-4.5157192e-05
4.4792067e-12
-2.3549191e-05
-3.6811422e-05
4.4182585e-12
-1.4333946e-05
-2.7804223e-05
4.5075226e-12
-7.5158616e-06
-1.8793578e-05
5.4884228e-12
-3.026321e-06
-1.0548258e-05
4.6980314e-12
-6.4244972e-07
-3.9413821e-06
-8.2806159e-13
-1.8716566e-09
9.451595e-12
-2.1314242e-06
5.6553616e-06
-1.9060377e-11
-7.8854676e-06
1.8079728e-05
1.5687101e-11
-1.6705562e-05
3.0253789e-05
-3.1927514e-12
-2.8085935e-05
4.1373754e-05
-6.1862184e-12
-4.1555967e-05
5.0999398e-05
-2.9621626e-12
-5.6674702e-05
5.8909703e-05
-2.3785606e-12
-7.3027865e-05
6.5035089e-05
-2.2450213e-12
-9.0225324e-05
6.939957e-05
-1.8184689e-12
-0.00010789812
7.2073001e-05
-1.4461967e-12
-0.0001256948
7.3137832e-05
-1.1652891e-12
-0.00014327744
7.2669052e-05
-8.3549119e-13
-0.00016031795
7.0725054e-05
-4.011553e-13
-0.00017649543
6.7347166e-05
8.2536377e-14
-0.0001914952
6.2565519e-05
5.4603891e-13
-0.00020500968
5.6408993e-05
9.7117327e-13
-0.00021674158
4.8917265e-05
1.3881713e-12
-0.00022640904
4.0153258e-05
1.8148722e-12
-0.00023375283
3.0214664e-05
2.2280723e-12
-0.00023854488
1.9243504e-05
2.6003014e-12
-0.00024059821
7.4329644e-06
2.9332019e-12
-0.00023977731
-4.9692244e-06
3.2338342e-12
-0.00023600883
-1.7661162e-05
3.5062184e-12
-0.00022929172
-3.0290828e-05
3.7332948e-12
-0.00021970627
-4.2465622e-05
3.9052776e-12
-0.00020742113
-5.3765551e-05
4.0236614e-12
-0.00019269741
-6.3761242e-05
4.1062107e-12
-0.00017588885
-7.2035975e-05
4.1660456e-12
-0.00015743707
-7.8210977e-05
4.186528e-12
-0.00013786096
-8.197269e-05
4.1360257e-12
-0.00011773977
-8.3100227e-05
4.0261805e-12
-9.768969e-05
-8.1490879e-05
3.9458624e-12
-7.8334745e-05
-7.7181376e-05
4.0048645e-12
-6.0273294e-05
-7.0362839e-05
4.2187595e-12
-4.4042485e-05
-6.1388003e-05
4.426081e-12
-3.0083514e-05
-5.0770397e-05
4.3831811e-12
-1.8711009e-05
-3.9176732e-05
4.5217613e-12
-1.0090036e-05
-2.7414555e-05
5.9919248e-12
-4.2242587e-06
-1.6414042e-05
4.84142e-12
-9.5837038e-07
-7.2072641e-06
-3.4280286e-12
-9.6024043e-07
1.1720421e-11
-2.5431885e-06
8.1985713e-06
-2.1630907e-11
-9.3220465e-06
2.485857e-05
1.997386e-11
-1.9601181e-05
4.0532924e-05
-2.8009564e-12
-3.2733377e-05
5.4505951e-05
-6.5309603e-12
-4.8141689e-05
6.6407715e-05
-2.7517784e-12
-6.5308166e-05
7.6076184e-05
-2.1427588e-12
-8.3763861e-05
8.3490786e-05
-2.1642788e-12
-0.00010307969
8.8715406e-05
-1.8732112e-12
-0.00012285805
9.1851361e-05
-1.5792022e-12
-0.00014272504
9.3004818e-05
-1.3097125e-12
-0.00016232363
9.2267643e-05
-9.7228024e-13
-0.00018130816
8.9709585e-05
-5.6129284e-13
-0.00019934055
8.5379557e-05
-1.3036984e-13
-0.00021608859
7.9313568e-05
2.9475534e-13
-0.00023122653
7.1546924e-05
7.2709199e-13
-0.00024443779
6.2128533e-05
1.18652e-12
-0.00025542002
5.1135486e-05
1.6609405e-12
-0.00026389186
3.8686496e-05
2.1105654e-12
-0.00026960146
2.4953106e-05
2.5141088e-12
-0.00027233635
1.0167849e-05
2.8842882e-12
-0.00027193424
-5.3713386e-06
3.2301794e-12
-0.00026829435
-2.1301051e-05
3.5565621e-12
-0.00026138911
-3.7196073e-05
3.8315314e-12
-0.000251275
-5.2579734e-05
4.0367553e-12
-0.00023810217
-6.6938386e-05
4.1715668e-12
-0.00022212152
-7.9741898e-05
4.2612577e-12
-0.00020368806
-9.0469435e-05
4.3294145e-12
-0.00018325916
-9.8639881e-05
4.3626253e-12
-0.00016138631
-0.00010384554
4.3155619e-12
-0.00013869947
-0.00010578708
4.1791671e-12
-0.00011588342
-0.00010430693
4.042212e-12
-9.3646769e-05
-9.9418038e-05
4.0498257e-12
-7.2684766e-05
-9.1324847e-05
4.2597518e-12
-5.3638903e-05
-8.043387e-05
4.4929628e-12
-3.7056603e-05
-6.7352702e-05
4.4145871e-12
-2.3355258e-05
-5.2878079e-05
4.5582745e-12
-1.2794844e-05
-3.7974973e-05
6.46538e-12
-5.4631272e-06
-2.3745753e-05
4.8699523e-12
-1.2769228e-06
-1.1393472e-05
-6.2332915e-12
-2.23718e-06
1.4226293e-11
-2.9262994e-06
1.1124895e-05
-2.4316648e-11
-1.0665811e-05
3.2598061e-05
2.3753709e-11
-2.2319914e-05
5.2187029e-05
-2.4696726e-12
-3.7109259e-05
6.9295299e-05
-6.8209965e-12
-5.4355445e-05
8.3653908e-05
-2.5714644e-12
-7.3466017e-05
9.5186761e-05
-2.026121e-12
-9.391917e-05
0.00010394394
-2.235207e-12
-0.0001152491
0.00011004533
-2.0393225e-12
-0.00013703269
0.00011363496
-1.7683059e-12
-0.00015887783
0.00011484995
-1.4976903e-12
-0.00018041352
0.00011380334
-1.1817565e-12
-0.00020128225
0.00011057831
-8.2123077e-13
-0.00022113463
0.00010523193
-4.4240093e-13
-0.00023962661
9.7805549e-05
-3.8898144e-14
-0.00025641915
8.8339462e-05
4.1024432e-13
-0.00027118023
7.6889619e-05
9.0645588e-13
-0.00028358913
6.3544384e-05
1.4158191e-12
-0.0002933426
4.8439963e-05
1.8945943e-12
-0.00030016291
3.1773409e-05
2.3342587e-12
-0.00030380746
1.3812401e-05
2.7556264e-12
-0.00030407997
-5.0988388e-06
3.1612449e-12
-0.00030084246
-2.4538557e-05
3.5594877e-12
-0.00029402882
-4.4009724e-05
3.8972491e-12
-0.00028365794
-6.2950614e-05
4.1546475e-12
-0.0002698467
-8.0749626e-05
4.33544e-12
-0.00025282101
-9.6767595e-05
4.4644552e-12
-0.00023292353
-0.00011036692
4.5591674e-12
-0.00021061626
-0.00012094716
4.6004922e-12
-0.00018647606
-0.00012798575
4.545338e-12
-0.00016118142
-0.00013108172
4.3920155e-12
-0.0001354895
-0.00012999885
4.2296525e-12
-0.00011020332
-0.00012470423
4.1961217e-12
-8.6130581e-05
-0.00011539759
4.3497406e-12
-6.4037026e-05
-0.00010252743
4.5145864e-12
-4.459856e-05
-8.6791176e-05
4.3363054e-12
-2.8357357e-05
-6.9119289e-05
4.5079431e-12
-1.5687188e-05
-5.0645157e-05
6.9184784e-12
-6.7727624e-06
-3.2660194e-05
4.9160899e-12
-1.6064932e-06
-1.6559732e-05
-9.1476105e-12
-3.8436913e-06
1.6821208e-11
-3.2792516e-06
1.4404174e-05
-2.6841005e-11
-1.1907122e-05
4.1225908e-05
2.7265707e-11
-2.4837522e-05
6.5117432e-05
-2.1320801e-12
-4.1170517e-05
8.5628299e-05
-7.1017952e-12
-6.0133967e-05
0.00010261736
-2.4908885e-12
-8.1065988e-05
0.00011611879
-2.0263291e-12
-0.00010339561
0.00012627356
-2.3678949e-12
-0.00012662362
0.00013327335
-2.1976762e-12
-0.00015030503
0.00013731636
-1.9184297e-12
-0.00017403366
0.00013857859
-1.6594569e-12
-0.00019742938
0.00013719906
-1.3886709e-12
-0.00022012805
0.00013327698
-1.0856028e-12
-0.0002417744
0.00012687828
-7.4958472e-13
-0.00026201775
0.0001180489
-3.6435892e-13
-0.00028051036
0.00010683208
8.1707158e-14
-0.00029690832
9.3287575e-05
5.7903069e-13
-0.0003108746
7.7510655e-05
1.0908008e-12
-0.00032208426
5.9649626e-05
1.5825755e-12
-0.00033023169
3.9920833e-05
2.0562704e-12
-0.00033503972
1.8620426e-05
2.5282349e-12
-0.000336271
-3.8675618e-06
2.9861063e-12
-0.00033374054
-2.7069027e-05
3.4802492e-12
-0.00032733143
-5.0418834e-05
3.8934304e-12
-0.00031701063
-7.3271422e-05
4.2048453e-12
-0.00030284582
-9.4914441e-05
4.4321953e-12
-0.00028502143
-0.00011459199
4.6106852e-12
-0.00026385199
-0.00013153638
4.7502013e-12
-0.0002397905
-0.00014500865
4.8107645e-12
-0.00021342937
-0.00015434688
4.7426408e-12
-0.00018549124
-0.00015901986
4.5666607e-12
-0.00015680786
-0.00015868224
4.3941679e-12
-0.00012828627
-0.00015322583
4.3453164e-12
-0.0001008632
-0.00014282066
4.445383e-12
-7.5450924e-05
-0.00012793972
4.5125037e-12
-5.2879405e-05
-0.0001093627
4.2080439e-12
-3.3841448e-05
-8.815725e-05
4.4392082e-12
-1.8847318e-05
-6.5639287e-05
7.4448153e-12
-8.1950918e-06
-4.3312429e-05
4.9772395e-12
-1.9604282e-06
-2.2794385e-05
-1.2336844e-11
-5.8041409e-06
1.9496006e-11
-3.5996513e-06
1.8003855e-05
-2.9087733e-11
-1.303545e-05
5.0661681e-05
3.0444164e-11
-2.7129996e-05
7.921198e-05
-1.934669e-12
-4.4875756e-05
0.00010337406
-7.5074059e-12
-6.5416428e-05
0.00012315804
-2.5598869e-12
-8.8027545e-05
0.00013872991
-2.11301e-12
-0.00011209405
0.00015034007
-2.5152605e-12
-0.00013708755
0.00015826685
-2.3463925e-12
-0.00016254518
0.000162774
-2.0706525e-12
-0.000188051
0.00016408441
-1.8385099e-12
-0.00021322033
0.00016236839
-1.6107367e-12
-0.00023768742
0.00015774407
-1.3493581e-12
-0.00026109629
0.00015028715
-1.0456131e-12
-0.00028309465
0.00014004726
-6.8730701e-13
-0.00030333068
0.0001270681
-2.6751235e-13
-0.00032145225
0.00011140914
2.0705393e-13
-0.00033710854
9.3166945e-05
7.0916523e-13
-0.00034995381
7.2494894e-05
1.2108086e-12
-0.00035965339
4.9620414e-05
1.715481e-12
-0.00036589204
2.4859071e-05
2.2301548e-12
-0.00036838541
-1.3741975e-06
2.7175742e-12
-0.00036689238
-2.8562062e-05
3.3257065e-12
-0.00036123371
-5.6077512e-05
3.8147505e-12
-0.00035130985
-8.3195285e-05
4.1749294e-12
-0.00033712256
-0.00010910174
4.4426043e-12
-0.0003187965
-0.00013291805
4.6735434e-12
-0.00029659944
-0.00015373345
4.8755904e-12
-0.00027095808
-0.00017065001
4.9799585e-12
-0.00024246635
-0.00018283862
4.9139284e-12
-0.00021188236
-0.00018960384
4.7140316e-12
-0.00018011117
-0.00019045344
4.5266216e-12
-0.0001481711
-0.00018516591
4.472662e-12
-0.00011714406
-0.0001738477
4.5470644e-12
-8.8112671e-05
-0.00015697111
4.5409571e-12
-6.2090057e-05
-0.00013538531
4.1090056e-12
-3.9950344e-05
-0.00011029697
4.3822924e-12
-2.236865e-05
-8.3220988e-05
8.0246066e-12
-9.7788083e-06
-5.5902279e-05
5.0171086e-12
-2.3537705e-06
-3.0219409e-05
-1.5909077e-11
-8.1579348e-06
2.2427989e-11
-3.8842671e-06
2.1888154e-05
-3.1142492e-11
-1.4038809e-05
6.0816193e-05
3.3114668e-11
-2.9171942e-05
9.4345114e-05
-1.947139e-12
-4.8182607e-05
0.00012238473
-8.0283902e-12
-7.0141102e-05
0.00014511654
-2.7233033e-12
-9.4268328e-05
0.00016285713
-2.2376635e-12
-0.00011991109
0.00017598283
-2.6762899e-12
-0.00014651658
0.00018487234
-2.532354e-12
-0.00017360838
0.0001898658
-2.288324e-12
-0.00020076501
0.00019124105
-2.084651e-12
-0.00022760182
0.0001892052
-1.8792234e-12
-0.00025375627
0.00018389851
-1.6413486e-12
-0.00027887669
0.00017540757
-1.3661636e-12
-0.00030261431
0.00016378488
-1.0416874e-12
-0.00032461804
0.00014907183
-6.5439121e-13
-0.00034453186
0.00013132297
-2.0086743e-13
-0.00036199455
0.00011062963
2.9839213e-13
-0.00037664164
8.7141987e-05
8.1131852e-13
-0.00038810989
6.1088664e-05
1.3379932e-12
-0.00039604446
3.2793638e-05
1.912477e-12
-0.00040010899
2.6903291e-06
2.5574887e-12
-0.0004000006
-2.8670456e-05
3.110683e-12
-0.00039546654
-6.0611587e-05
3.6252464e-12
-0.00038632719
-9.2334638e-05
4.0336067e-12
-0.00037250134
-0.0001229276
4.3538425e-12
-0.00035403401
-0.00015138539
4.6485968e-12
-0.0003311245
-0.00017664297
4.9197487e-12
-0.00030415137
-0.00019762314
5.0793459e-12
-0.00027369033
-0.00021329967
5.0406517e-12
-0.00024052014
-0.00022277404
4.8434203e-12
-0.00020561188
-0.0002253617
4.6438929e-12
-0.00017009789
-0.00022067991
4.5658625e-12
-0.000135219
-0.00020872659
4.6081403e-12
-0.00010225253
-0.00018993758
4.5496625e-12
-7.242714e-05
-0.00016521071
4.0142394e-12
-4.6834721e-05
-0.00013588939
4.3488076e-12
-2.6350926e-05
-0.00010370479
8.6914643e-12
-1.1575853e-05
-7.067736e-05
5.047856e-12
-2.8021981e-06
-3.8993045e-05
-1.9963027e-11
-1.0960158e-05
2.5777293e-11
-4.1292817e-06
2.6017467e-05
-3.3071043e-11
-1.4904088e-05
7.1590964e-05
3.5246576e-11
-3.0936734e-05
0.00011037776
-2.0828327e-12
-5.1047592e-05
0.00014249559
-8.548265e-12
-7.4245036e-05
0.00016831399
-2.9024322e-12
-9.9703846e-05
0.00018831595
-2.3851887e-12
-0.00012673902
0.00020301801
-2.8871978e-12
-0.00015477834
0.00021291165
-2.7974246e-12
-0.00018333609
0.00021842356
-2.5932755e-12
-0.0002119895
0.00021989445
-2.4043207e-12
-0.00024035825
0.00021757395
-2.2031411e-12
-0.00026808772
0.00021162797
-1.9790039e-12
-0.00029483561
0.00020215546
-1.7308968e-12
-0.0003202619
0.00018921117
-1.4374976e-12
-0.00034402154
0.00017283148
-1.0739401e-12
-0.00036575978
0.0001530612
-6.3410846e-13
-0.00038510961
0.00012997947
-1.3983625e-13
-0.00040169174
0.00010372412
3.759051e-13
-0.00041511697
7.4513885e-05
9.130232e-13
-0.00042499169
4.2668364e-05
1.5096033e-12
-0.00043092686
8.6254964e-06
2.1893595e-12
-0.00043255264
-2.7044681e-05
2.7638042e-12
-0.00042953564
-6.3628597e-05
3.3122591e-12
-0.00042160422
-0.00010026607
3.7783995e-12
-0.0004085778
-0.00013595403
4.1800101e-12
-0.00039040095
-0.00016956224
4.5641459e-12
-0.00036717994
-0.00019986398
4.91074e-12
-0.00033921841
-0.00022558468
5.1261043e-12
-0.00030704729
-0.0002454708
5.1353841e-12
-0.00027144298
-0.00025837835
4.9796019e-12
-0.00023342701
-0.00026337768
4.7888818e-12
-0.00019424107
-0.00025986586
4.6704574e-12
-0.00015529385
-0.00024767381
4.6562494e-12
-0.00011808033
-0.00022715111
4.5440554e-12
-8.4079776e-05
-0.00019921128
3.9070168e-12
-5.4644581e-05
-0.00016532459
4.3148268e-12
-3.0895464e-05
-0.00012745392
9.4542855e-12
-1.3639409e-05
-8.793342e-05
5.0826263e-12
-3.3216832e-06
-4.9310746e-05
-2.4613692e-11
-1.4281868e-05
2.967412e-11
-4.3306527e-06
3.0348152e-05
-3.4781616e-11
-1.5617915e-05
8.287819e-05
3.6937438e-11
-3.2397794e-05
0.00012715764
-2.2260485e-12
-5.3427726e-05
0.00016352553
-8.9905458e-12
-7.7665955e-05
0.00019255222
-3.0807644e-12
-0.00010424976
0.00021489975
-2.573397e-12
-0.00013246863
0.00023123688
-3.1633297e-12
-0.00016173574
0.00024217877
-3.1295852e-12
-0.00019156025
0.00024824807
-2.9494018e-12
-0.00022152195
0.00024985615
-2.7587476e-12
-0.00025124899
0.000247301
-2.557614e-12
-0.00028039917
0.00024077814
-2.3487317e-12
-0.00030864454
0.00023040084
-2.1241316e-12
-0.00033565933
0.00021622595
-1.8545289e-12
-0.00036111043
0.00019828258
-1.5090775e-12
-0.00038465042
0.00017660119
-1.0847718e-12
-0.00040591275
0.0001512418
-6.0810858e-13
-0.00042450921
0.00012232057
-1.0592496e-13
-0.00044002997
9.0034645e-05
4.303851e-13
-0.0004520469
5.468529e-05
1.028145e-12
-0.0004601208
1.66994e-05
1.688648e-12
-0.00046381423
-2.3351255e-05
2.320014e-12
-0.00046270939
-6.4733446e-05
2.9180636e-12
-0.00045643391
-0.00010654155
3.4600867e-12
-0.00044469356
-0.00014769439
3.9705367e-12
-0.00042731195
-0.00018694386
4.4675416e-12
-0.00040427577
-0.00022290015
4.900173e-12
-0.00037578225
-0.0002540782
5.1767764e-12
-0.0003422836
-0.00027896945
5.247381e-12
-0.00030452116
-0.0002961408
5.1547016e-12
-0.00026354032
-0.00030435852
4.9845648e-12
-0.00022067701
-0.00030272917
4.8110207e-12
-0.00017750853
-0.00029084229
4.7054336e-12
-0.00013576648
-0.00026889317
4.5107004e-12
-9.7216938e-05
-0.00023776082
3.7473661e-12
-6.3521776e-05
-0.00019901976
4.2404207e-12
-3.610144e-05
-0.00015487427
1.0324018e-11
-1.6022588e-05
-0.00010801228
5.140525e-12
-3.9283343e-06
-6.1404968e-05
-2.9978553e-11
-1.8210231e-05
3.4249141e-11
-4.4845431e-06
3.4832728e-05
-3.6128844e-11
-1.6167869e-05
9.4561478e-05
3.8235233e-11
-3.3530643e-05
0.00014452042
-2.357478e-12
-5.5283364e-05
0.00018527826
-9.3708494e-12
-8.0345853e-05
0.00021761471
-3.2882646e-12
-0.0001078262
0.0002423801
-2.8125326e-12
-0.00013699431
0.000260405
-3.4782675e-12
-0.00016725316
0.00027243762
-3.4790691e-12
-0.00019811041
0.00027910533
-3.3070532e-12
-0.00022915194
0.00028089768
-3.1099454e-12
-0.00026001812
0.00027816717
-2.9154714e-12
-0.00029038338
0.00027114341
-2.7294086e-12
-0.00031993911
0.00025995657
-2.5281873e-12
-0.00034837938
0.00024466623
-2.2762789e-12
-0.00037538946
0.00022529266
-1.9491499e-12
-0.00040063643
0.00020184817
-1.5471904e-12
-0.00042376196
0.00017436733
-1.0991609e-12
-0.0004443771
0.00014293572
-6.2155189e-13
-0.00046205974
0.00010771729
-9.4500229e-14
-0.00047635511
6.898065e-05
5.0435482e-13
-0.00048678048
2.7124779e-05
1.168372e-12
-0.00049283551
-1.729623e-05
1.8465055e-12
-0.0004940189
-6.3550063e-05
2.5065729e-12
-0.00048985361
-0.00011070684
3.1390025e-12
-0.00047992124
-0.00015762676
3.7627346e-12
-0.0004639061
-0.000202959
4.3719649e-12
-0.00044164843
-0.00024515783
4.8978582e-12
-0.00041320403
-0.00028252261
5.2527362e-12
-0.00037890522
-0.00031326828
5.3971189e-12
-0.00033941488
-0.00033563114
5.3608855e-12
-0.0002957625
-0.00034801091
5.1935628e-12
-0.00024934907
-0.0003491426
4.9525854e-12
-0.00020190898
-0.00033828238
4.7484333e-12
-0.00015542148
-0.00031538067
4.4553355e-12
-0.00011197413
-0.00028120818
3.5310407e-12
-7.3592522e-05
-0.00023740137
4.1178856e-12
-4.2062489e-05
-0.00018640432
1.1329654e-11
-1.8777382e-05
-0.00013129739
5.2445808e-12
-4.6383184e-06
-7.5543995e-05
-3.6169011e-11
-2.2848585e-05
3.9648772e-11
-4.5878102e-06
3.9420572e-05
-3.7066608e-11
-1.6543952e-05
0.00010651758
3.9075546e-11
-3.4315528e-05
0.000162292
-2.5270218e-12
-5.6581989e-05
0.00020754473
-9.7281899e-12
-8.2235911e-05
0.00024326863
-3.5395091e-12
-0.00011036383
0.00027050802
-3.084358e-12
-0.00014022126
0.00029026243
-3.7920127e-12
-0.00017120475
0.00030342111
-3.809234e-12
-0.00020282354
0.00031072412
-3.6450156e-12
-0.00023467253
0.00031274668
-3.4530239e-12
-0.00026640762
0.00030990226
-3.2753293e-12
-0.00029772382
0.00030245961
-3.1158023e-12
-0.00032833653
0.00029056928
-2.9369028e-12
-0.0003579655
0.0002742952
-2.6987837e-12
-0.0003863212
0.00025364837
-2.3864316e-12
-0.00041309326
0.00022862023
-2.0047092e-12
-0.00043794077
0.00019921483
-1.5821204e-12
-0.00046048446
0.00016547942
-1.1277598e-12
-0.00048030118
0.00012753401
-6.1604093e-13
-0.00049692125
8.5600711e-05
-2.3661628e-14
-0.00050982982
4.0033354e-05
6.4798334e-13
-0.00051847372
-8.6523326e-06
1.370106e-12
-0.00052227523
-5.9748556e-05
2.1003118e-12
-0.00052065493
-0.00011232714
2.8269552e-12
-0.00051306552
-0.00016521617
3.5503376e-12
-0.00049903817
-0.00021698636
4.2521011e-12
-0.0004782419
-0.0002659541
4.8691355e-12
-0.00045055472
-0.0003102098
5.3230852e-12
-0.00041614213
-0.00034768087
5.5641553e-12
-0.0003755346
-0.00037623868
5.585804e-12
-0.00032969096
-0.00039385456
5.4072658e-12
-0.00028003063
-0.00039880295
5.0938928e-12
-0.00022841637
-0.00038989665
4.8014514e-12
-0.00017707302
-0.00036672402
4.4053533e-12
-0.00012843837
-0.00032984283
3.272612e-12
-8.4959064e-05
-0.00028088069
3.9455264e-12
-4.8863033e-05
-0.00022250036
1.2487137e-11
-2.1953612e-05
-0.00015820681
5.4031077e-12
-5.4678027e-06
-9.2029759e-05
-4.3296821e-11
-2.831643e-05
4.6020742e-11
-4.6385375e-06
4.4059145e-05
-3.7634931e-11
-1.6740252e-05
0.00011861926
3.9389234e-11
-3.4740484e-05
0.00018029223
-2.75431e-12
-5.7302731e-05
0.00023010698
-1.0053282e-11
-8.3302439e-05
0.00026926834
-3.8088857e-12
-0.00011181115
0.00029901674
-3.3597978e-12
-0.00014207426
0.00032052554
-4.0875009e-12
-0.00017348481
0.00033483166
-4.1223692e-12
-0.00020555602
0.00034279533
-3.9783047e-12
-0.00023789425
0.00034508492
-3.8061328e-12
-0.00027017369
0.0003421817
-3.6523161e-12
-0.00030211351
0.00033439943
-3.5150815e-12
-0.00033345766
0.00032191343
-3.3470524e-12
-0.00036395722
0.00030479477
-3.1104121e-12
-0.00039335499
0.00028304613
-2.7991166e-12
-0.0004213718
0.00025663704
-2.4238131e-12
-0.00044769459
0.00022553763
-2.0134781e-12
-0.00047196595
0.00018975078
-1.5745044e-12
-0.00049377558
0.00014934364
-1.0805067e-12
-0.0005126542
0.00010447933
-5.0668474e-13
-0.00052807091
5.5450071e-05
1.5822248e-13
-0.00053943551
2.7122663e-06
9.082388e-13
-0.00054610775
-5.3076321e-05
1.6963196e-12
-0.00054741565
-0.00011101925
2.5090751e-12
-0.00054268613
-0.0001699457
3.3198099e-12
-0.00053129051
-0.00022838198
4.0999158e-12
-0.00051270719
-0.00028453743
4.805109e-12
-0.00048660202
-0.00033631497
5.3714368e-12
-0.00045292389
-0.00038135901
5.7286879e-12
-0.00041200789
-0.00041715468
5.820386e-12
-0.00036467217
-0.00044119029
5.6335404e-12
-0.00031228749
-0.00045118764
5.251558e-12
-0.00025679396
-0.00044539018
4.8778737e-12
-0.00020064022
-0.00042287777
4.3612395e-12
-0.00014663091
-0.00038385215
2.946732e-12
-9.7689844e-05
-0.00032982175
3.6822298e-12
-5.657388e-05
-0.00026361634
1.3779917e-11
-2.5597612e-05
-0.00018918308
5.6040652e-12
-6.4328517e-06
-0.00011119447