/*--------------------------------*- C++ -*----------------------------------*\
  =========                 |
  \\      /  F ield         | OpenFOAM: The Open Source CFD Toolbox
   \\    /   O peration     | Website:  https://openfoam.org
    \\  /    A nd           | Version:  7
     \\/     M anipulation  |
\*---------------------------------------------------------------------------*/
FoamFile
{
    version     2.0;
    format      ascii;
    class       volVectorField;
    location    "15";
    object      U;
}
// * * * * * * * * * * * * * * * * * * * * * * * * * * * * * * * * * * * * * //

dimensions      [0 1 -1 0 0 0 0];

internalField   nonuniform List<vector> 
16000
(
(6.622268e-05 -6.7053189e-05 -2.8745334e-07)
(0.00016294284 -5.6158647e-05 5.836186e-06)
(0.00014187494 5.5696027e-07 1.9329991e-05)
(-5.070695e-05 6.1913489e-05 3.6740062e-05)
(-0.00040993983 0.00011560124 5.4833743e-05)
(-0.00090876122 0.00015767677 7.1646033e-05)
(-0.0015171288 0.00018841265 8.5841922e-05)
(-0.002205923 0.00020950045 9.6606895e-05)
(-0.0029492155 0.00022275698 0.00010348095)
(-0.0037246306 0.00022968404 0.00010621756)
(-0.0045127548 0.00023134651 0.00010468981)
(-0.0052962533 0.00022837323 9.8835006e-05)
(-0.0060589781 0.00022101938 8.8628761e-05)
(-0.0067852164 0.00020926052 7.4081657e-05)
(-0.0074591703 0.0001929 5.5252343e-05)
(-0.0080647196 0.00017167974 3.2270953e-05)
(-0.0085854785 0.000145388 5.3673757e-06)
(-0.0090051354 0.00011395955 -2.5100535e-05)
(-0.009308047 7.7564072e-05 -5.8623065e-05)
(-0.0094800442 3.6678278e-05 -9.4522843e-05)
(-0.0095093937 -7.8649669e-06 -0.00013195064)
(-0.0093878266 -5.487097e-05 -0.00016989582)
(-0.0091115729 -0.00010275933 -0.00020721268)
(-0.0086822988 -0.0001496366 -0.00024266427)
(-0.0081078209 -0.00019337463 -0.0002749817)
(-0.0074025265 -0.00023172935 -0.00030293683)
(-0.0065874027 -0.00026249112 -0.00032542364)
(-0.0056896131 -0.00028365269 -0.00034154232)
(-0.004741597 -0.00029357828 -0.00035067852)
(-0.0037797069 -0.00029115537 -0.0003525706)
(-0.002842455 -0.00027591131 -0.00034735807)
(-0.0019684735 -0.00024808041 -0.00033560718)
(-0.001194303 -0.00020862137 -0.00031831261)
(-0.00055205728 -0.00015922168 -0.00029687812)
(-6.701786e-05 -0.00010240545 -0.00027307197)
(0.0002443942 -4.1790233e-05 -0.00024895026)
(0.0003784901 1.7785791e-05 -0.00022689405)
(0.00034948001 6.6997748e-05 -0.00020933805)
(0.00020605203 8.979256e-05 -0.00019895298)
(5.7439614e-05 5.7386559e-05 -0.00018449896)
(5.8074573e-05 -0.00016652887 -6.4894801e-06)
(4.0990373e-05 -3.9561966e-05 -2.247568e-07)
(-0.00029484404 0.0002486927 1.1401626e-05)
(-0.0010106382 0.00056198858 2.5756915e-05)
(-0.0020983203 0.00084713143 4.0729004e-05)
(-0.0035124205 0.0010825712 5.4722765e-05)
(-0.0051920637 0.0012636132 6.661178e-05)
(-0.0070729043 0.0013932805 7.5644335e-05)
(-0.0090932191 0.001477107 8.1338901e-05)
(-0.011196106 0.0015206354 8.3396305e-05)
(-0.013329541 0.0015283066 8.163372e-05)
(-0.015445397 0.0015030817 7.5941558e-05)
(-0.017498124 0.0014464957 6.6261663e-05)
(-0.019443522 0.001358971 5.258325e-05)
(-0.021237901 0.0012402733 3.4952361e-05)
(-0.0228378 0.001090033 1.3490164e-05)
(-0.024200303 0.00090827673 -1.15843e-05)
(-0.025283963 0.00069592733 -3.9931051e-05)
(-0.026050269 0.00045523554 -7.1069558e-05)
(-0.026465541 0.00019011278 -0.0001043659)
(-0.026503149 -9.3665129e-05 -0.00013902966)
(-0.026145778 -0.00038837971 -0.00017412982)
(-0.025387674 -0.00068450639 -0.00020861111)
(-0.02423663 -0.00097100302 -0.00024134179)
(-0.022715377 -0.0012357916 -0.00027116687)
(-0.020862313 -0.001466413 -0.00029697539)
(-0.018731335 -0.0016508178 -0.0003177757)
(-0.016390662 -0.0017782361 -0.00033277247)
(-0.013920596 -0.0018400539 -0.00034143869)
(-0.011410252 -0.0018306158 -0.00034357549)
(-0.0089533783 -0.001747875 -0.00033935341)
(-0.0066434591 -0.0015938413 -0.00032933073)
(-0.0045683104 -0.0013748278 -0.00031444673)
(-0.0028043501 -0.0011016064 -0.00029599151)
(-0.0014105959 -0.00078976904 -0.00027555509)
(-0.00042240496 -0.00046062973 -0.00025495072)
(0.00015502963 -0.00014275296 -0.00023609248)
(0.0003561874 0.0001220371 -0.00022099643)
(0.00027499121 0.00027086663 -0.00021176261)
(9.0054549e-05 0.00020496699 -0.00019556548)
(1.9453507e-06 -0.00014857391 -2.0262385e-05)
(-0.00025587832 0.00029728707 -1.1636771e-05)
(-0.0010499017 0.0010234266 2.535446e-07)
(-0.0023865761 0.001796793 1.322359e-05)
(-0.0042371512 0.0025086361 2.6248182e-05)
(-0.0065419145 0.0031083474 3.8186736e-05)
(-0.0092198598 0.0035788684 4.8212795e-05)
(-0.012182919 0.0039211223 5.5766112e-05)
(-0.015343953 0.0041437077 6.0465311e-05)
(-0.018619988 0.0042570251 6.2054132e-05)
(-0.021932957 0.0042702319 6.0360032e-05)
(-0.025209114 0.0041899413 5.5265545e-05)
(-0.028377844 0.0040200491 4.6694598e-05)
(-0.031370512 0.0037622822 3.4612153e-05)
(-0.034119729 0.0034171737 1.9034331e-05)
(-0.036559274 0.0029852538 4.5678845e-08)
(-0.038624785 0.0024682932 -2.2179881e-05)
(-0.040255205 0.0018704765 -4.7357802e-05)
(-0.041394897 0.0011994035 -7.5074541e-05)
(-0.04199631 0.00046683737 -0.00010477533)
(-0.042022935 -0.00031086286 -0.00013576259)
(-0.041452394 -0.0011126474 -0.00016720162)
(-0.040279376 -0.0019132094 -0.0001981459)
(-0.038518103 -0.0026837397 -0.00022757302)
(-0.036204095 -0.0033931697 -0.0002544354)
(-0.033394965 -0.0040098032 -0.00027772294)
(-0.030170029 -0.0045032555 -0.00029653326)
(-0.026628558 -0.0048465738 -0.00031014376)
(-0.022886617 -0.0050183805 -0.00031807878)
(-0.019072499 -0.0050048598 -0.00032016457)
(-0.015320889 -0.0048014224 -0.00031656552)
(-0.011765976 -0.0044139337 -0.00030779696)
(-0.0085337856 -0.0038594978 -0.00029471203)
(-0.0057340342 -0.0031669542 -0.00027846379)
(-0.0034516956 -0.0023774889 -0.00026044596)
(-0.0017384503 -0.001546051 -0.00024221343)
(-0.00060430781 -0.00074445078 -0.00022537505)
(-8.5574392e-06 -6.6873776e-05 -0.00021152188)
(0.00015511767 0.00035985399 -0.00020234167)
(7.3471663e-05 0.0003540745 -0.00018541629)
(-6.4640618e-05 5.0671951e-05 -3.8498815e-05)
(-0.00060801722 0.0010456126 -2.595561e-05)
(-0.001929399 0.0023807809 -1.1983955e-05)
(-0.0039440841 0.0037546369 1.2983965e-06)
(-0.006585033 0.0050125472 1.3875231e-05)
(-0.0097732223 0.0060765362 2.4987065e-05)
(-0.013408853 0.0069163924 3.4096989e-05)
(-0.017384734 0.0075295458 4.0869935e-05)
(-0.021594271 0.0079265477 4.5070088e-05)
(-0.025934487 0.0081220559 4.6525912e-05)
(-0.030306898 0.0081297832 4.5106935e-05)
(-0.034617171 0.0079601437 4.0707163e-05)
(-0.038774198 0.0076197694 3.3239814e-05)
(-0.042689181 0.0071122793 2.2642761e-05)
(-0.046275177 0.0064398248 8.8924234e-06)
(-0.049447349 0.0056050346 -7.9765619e-06)
(-0.052124042 0.0046130702 -2.7848666e-05)
(-0.05422867 0.0034735623 -5.0504621e-05)
(-0.055692332 0.0022022491 -7.5601274e-05)
(-0.056456961 0.00082217525 -0.00010265743)
(-0.056478792 -0.00063565916 -0.00013104878)
(-0.055731927 -0.0021323122 -0.00016001075)
(-0.054211662 -0.0036216081 -0.00018866187)
(-0.051937259 -0.0050515823 -0.00021603573)
(-0.048953935 -0.0063666524 -0.00024113001)
(-0.045333718 -0.0075104395 -0.0002629678)
(-0.041174959 -0.0084291032 -0.0002806673)
(-0.036600286 -0.0090749934 -0.00029351417)
(-0.031752899 -0.0094103614 -0.00030102913)
(-0.026791197 -0.0094108477 -0.00030302306)
(-0.021881835 -0.009068469 -0.00029963223)
(-0.017191451 -0.0083939005 -0.00029132836)
(-0.012877378 -0.0074179865 -0.00027890099)
(-0.0090777528 -0.0061926259 -0.00026341285)
(-0.0059014522 -0.0047914651 -0.00024613206)
(-0.0034183038 -0.003311224 -0.0002284481)
(-0.0016497679 -0.0018746707 -0.00021178698)
(-0.00056012825 -0.00063534386 -0.00019754003)
(-5.0343453e-05 0.00021420881 -0.0001869398)
(3.801611e-05 0.00041336971 -0.00016812438)
(-0.00013078521 0.00044557436 -5.7996529e-05)
(-0.00097033496 0.0022418019 -4.093049e-05)
(-0.0028443869 0.00435699 -2.4060063e-05)
(-0.0055612197 0.0064536199 -9.6391999e-06)
(-0.0090035981 0.0083485748 3.2675676e-06)
(-0.013066958 0.0099454373 1.4235058e-05)
(-0.017630794 0.011204857 2.3000442e-05)
(-0.022569982 0.012122065 2.9458925e-05)
(-0.02776158 0.012709619 3.3533257e-05)
(-0.033086653 0.012986079 3.5150772e-05)
(-0.038430662 0.012969349 3.4234453e-05)
(-0.043683036 0.012673452 3.069626e-05)
(-0.048736361 0.01210782 2.4439657e-05)
(-0.053485677 0.011278326 1.5371344e-05)
(-0.057828293 0.010189436 3.4201553e-06)
(-0.061664347 0.0088469364 -1.1439147e-05)
(-0.064898212 0.0072608202 -2.9159583e-05)
(-0.067440731 0.0054480007 -4.9595598e-05)
(-0.069212153 0.0034345849 -7.2479226e-05)
(-0.070145625 0.0012575054 -9.7401803e-05)
(-0.070190968 -0.0010346526 -0.00012380432)
(-0.069318534 -0.0033817691 -0.00015097893)
(-0.06752281 -0.0057132681 -0.00017808545)
(-0.064825481 -0.0079502814 -0.00020418293)
(-0.061277658 -0.010008821 -0.00022827723)
(-0.056960957 -0.011803881 -0.00024938277)
(-0.051987141 -0.013254294 -0.00026659424)
(-0.046496101 -0.014288081 -0.00027916208)
(-0.040651988 -0.014847943 -0.00028656396)
(-0.034637427 -0.014896498 -0.00028856335)
(-0.028645895 -0.014420866 -0.000285247)
(-0.022872448 -0.013436249 -0.00027703506)
(-0.01750319 -0.011988337 -0.00026466079)
(-0.012703987 -0.010154591 -0.00024912054)
(-0.0086091316 -0.0080447734 -0.00023159744)
(-0.0053106613 -0.0058015608 -0.00021337159)
(-0.0028482019 -0.0036022101 -0.00019575687)
(-0.001200088 -0.0016610895 -0.00018001814)
(-0.00028892117 -0.00023466788 -0.0001668786)
(-2.5087841e-06 0.00034990219 -0.00014563479)
(-0.00019273838 0.0010309343 -7.645761e-05)
(-0.0013230932 0.0038905492 -5.4556538e-05)
(-0.0037493067 0.0069640631 -3.4366397e-05)
(-0.0071684193 0.0099049194 -1.8285706e-05)
(-0.011407054 0.012519717 -4.5025808e-06)
(-0.016330416 0.014705331 6.8470945e-06)
(-0.021794908 0.016420174 1.5750334e-05)
(-0.027657297 0.017660882 2.2321602e-05)
(-0.033779828 0.018443638 2.66391e-05)
(-0.040030271 0.018791448 2.8729586e-05)
(-0.046281328 0.018726459 2.8570563e-05)
(-0.052409782 0.018266224 2.60915e-05)
(-0.058295562 0.01742297 2.1183228e-05)
(-0.063821089 0.016205019 1.3715867e-05)
(-0.068871256 0.014619601 3.5632056e-06)
(-0.073334189 0.012676387 -9.3684969e-06)
(-0.077102872 0.010391213 -2.5109384e-05)
(-0.080077582 0.0077895524 -4.3594737e-05)
(-0.082169028 0.0049094152 -6.4636016e-05)
(-0.083302018 0.0018033924 -8.7897215e-05)
(-0.083419445 -0.0014603362 -0.00011287989)
(-0.082486353 -0.0047981965 -0.00013892057)
(-0.080493825 -0.0081126815 -0.00016520237)
(-0.0774624 -0.01129519 -0.00019078482)
(-0.073444709 -0.014230183 -0.00021465062)
(-0.068527016 -0.016800582 -0.00023576887)
(-0.062829327 -0.018894208 -0.00025317045)
(-0.056503756 -0.020410955 -0.00026602923)
(-0.049730877 -0.021270267 -0.00027374012)
(-0.042713919 -0.021418399 -0.00027598461)
(-0.035670759 -0.020834904 -0.00027277399)
(-0.028823914 -0.01953782 -0.00026446292)
(-0.022388916 -0.017587194 -0.00025172947)
(-0.016561715 -0.015086815 -0.00023552197)
(-0.011506044 -0.012184418 -0.00021697508)
(-0.0073417593 -0.0090710687 -0.00019731366)
(-0.0041335505 -0.0059806728 -0.00017781158)
(-0.0018812896 -0.0031892321 -0.00015970356)
(-0.00053616384 -0.0010151207 -0.00014331603)
(-4.1257516e-05 0.00015832382 -0.00011921392)
(-0.00024994084 0.0017976683 -9.1926509e-05)
(-0.0016585984 0.0059807018 -6.5042795e-05)
(-0.0046211877 0.010192439 -4.1373854e-05)
(-0.0087260252 0.014098228 -2.3333443e-05)
(-0.013741987 0.017511243 -8.308791e-06)
(-0.019501526 0.020334139 3.8161867e-06)
(-0.025836323 0.022531518 1.3253004e-05)
(-0.032584715 0.024106628 2.0317383e-05)
(-0.039595026 0.025082206 2.5231196e-05)
(-0.046723613 0.025487167 2.8112679e-05)
(-0.053832982 0.025348509 2.8987685e-05)
(-0.060790227 0.024687491 2.7797385e-05)
(-0.067465728 0.02351917 2.4413688e-05)
(-0.073732361 0.021854374 1.8662966e-05)
(-0.079465456 0.019703257 1.0355868e-05)
(-0.084543614 0.017079677 -6.7852919e-07)
(-0.088850385 0.014005752 -1.4556083e-05)
(-0.092276763 0.010516091 -3.1300519e-05)
(-0.094724378 0.0066612967 -5.0808339e-05)
(-0.096109228 0.0025104512 -7.2818828e-05)
(-0.096365796 -0.0018476578 -9.6892761e-05)
(-0.09545131 -0.0063047413 -0.00012240439)
(-0.093349974 -0.010734743 -0.00014854768)
(-0.090076885 -0.014997248 -0.00017436365)
(-0.085681306 -0.018942521 -0.000198786)
(-0.080248989 -0.02241814 -0.00022070618)
(-0.073903123 -0.025277029 -0.00023905352)
(-0.066803509 -0.027386569 -0.00025288382)
(-0.059143563 -0.028638268 -0.00026146699)
(-0.051144843 -0.028957383 -0.00026436296)
(-0.04304897 -0.028311702 -0.0002614748)
(-0.035107041 -0.026718756 -0.0002530699)
(-0.027566926 -0.024250804 -0.00023976435)
(-0.020659202 -0.021037214 -0.00022246995)
(-0.014582932 -0.017264269 -0.00020230422)
(-0.0094925474 -0.013172991 -0.00018048786)
(-0.0054847806 -0.009055832 -0.00015832441)
(-0.0025872633 -0.005251785 -0.00013710308)
(-0.00078433032 -0.0021410765 -0.00011682771)
(-7.6888817e-05 -0.00016113419 -8.9616253e-05)
(-0.00030273323 0.0027349517 -0.00010273536)
(-0.0019740591 0.0084928628 -7.0774515e-05)
(-0.0054481992 0.014019681 -4.3646842e-05)
(-0.010210648 0.019009154 -2.3518299e-05)
(-0.015973831 0.023296005 -7.0380529e-06)
(-0.022536944 0.026800823 6.1358e-06)
(-0.029706504 0.02950337 1.6417324e-05)
(-0.03730252 0.031419615 2.4303798e-05)
(-0.045160238 0.032582697 3.0144846e-05)
(-0.053126146 0.033029651 3.4137337e-05)
(-0.061054673 0.032793456 3.6344663e-05)
(-0.068805725 0.031899552 3.6710128e-05)
(-0.076242809 0.030365937 3.5077735e-05)
(-0.083231913 0.028205877 3.1221164e-05)
(-0.089641259 0.025432316 2.4878692e-05)
(-0.095341983 0.022063128 1.5792611e-05)
(-0.1002097 0.018126518 3.751541e-06)
(-0.10412691 0.013666014 -1.1366271e-05)
(-0.10698606 0.0087445962 -2.9551101e-05)
(-0.10869329 0.0034476731 -5.0624533e-05)
(-0.10917257 -0.0021153754 -7.4210765e-05)
(-0.10837018 -0.0078112736 -9.9722168e-05)
(-0.10625939 -0.013484662 -0.00012635839)
(-0.102845 -0.018961883 -0.00015313021)
(-0.098167542 -0.024056719 -0.00017890289)
(-0.092306731 -0.028578119 -0.00020246248)
(-0.085383658 -0.03233979 -0.00022260096)
(-0.077561259 -0.035171319 -0.00023821356)
(-0.069042426 -0.036930307 -0.0002483986)
(-0.060065316 -0.037514725 -0.00025254771)
(-0.05089551 -0.036874535 -0.00025041362)
(-0.041815006 -0.035021501 -0.00024214436)
(-0.033108386 -0.032036174 -0.00022827716)
(-0.02504699 -0.028071301 -0.00020968965)
(-0.017872575 -0.023351369 -0.00018750636)
(-0.011782028 -0.018168687 -0.00016298981)
(-0.0069116036 -0.012876818 -0.00013753936)
(-0.0033227434 -0.0078808981 -0.00011257994)
(-0.0010365707 -0.0036262237 -8.7882567e-05)
(-0.0001109224 -0.00060748492 -5.7436075e-05)
(-0.00035142803 0.0038314338 -0.00010742214)
(-0.002268009 0.011402999 -7.0279115e-05)
(-0.0062229368 0.018415247 -3.9823821e-05)
(-0.011606377 0.02460377 -1.75911e-05)
(-0.018077435 0.029837937 4.5644167e-07)
(-0.025403144 0.034067571 1.4869281e-05)
(-0.033365534 0.037296478 2.6246214e-05)
(-0.041767034 0.039559808 3.5247307e-05)
(-0.050430858 0.040905481 4.2333038e-05)
(-0.059195112 0.041381399 4.7764121e-05)
(-0.067908043 0.041028074 5.1628523e-05)
(-0.076424571 0.039875863 5.3860165e-05)
(-0.0846037 0.037945894 5.4264542e-05)
(-0.092306883 0.035253704 5.2552382e-05)
(-0.099397398 0.031814591 4.8379138e-05)
(-0.1057407 0.027649794 4.1389269e-05)
(-0.11120572 0.022792764 3.1264032e-05)
(-0.11566695 0.017294923 1.7771042e-05)
(-0.11900731 0.011230485 8.1323087e-07)
(-0.12112175 0.0047000056 -1.9525921e-05)
(-0.12192137 -0.002167595 -4.29451e-05)
(-0.12133808 -0.0092147796 -6.8903292e-05)
(-0.11932981 -0.01625699 -9.6608873e-05)
(-0.11588586 -0.023086551 -0.00012503882)
(-0.11103224 -0.029478811 -0.00015297726)
(-0.10483658 -0.035200751 -0.00017908158)
(-0.097412095 -0.040022007 -0.00020197198)
(-0.088919761 -0.043728082 -0.0002203383)
(-0.07956816 -0.046135168 -0.00023305437)
(-0.069610066 -0.047105743 -0.00023928683)
(-0.059335276 -0.046563685 -0.00023858351)
(-0.049059421 -0.044507481 -0.00023092748)
(-0.03910896 -0.041020012 -0.00021674719)
(-0.029803244 -0.036273644 -0.00019687732)
(-0.021435382 -0.030529894 -0.00017246482)
(-0.014253852 -0.024133795 -0.00014485389)
(-0.0084428841 -0.017503745 -0.00011560239)
(-0.0041042479 -0.0111165 -8.6350114e-05)
(-0.0012996342 -0.0054891058 -5.6703175e-05)
(-0.00014462155 -0.001182029 -2.2745258e-05)
(-0.00039609175 0.0050753605 -0.00010466917)
(-0.0025389296 0.014683731 -6.2205363e-05)
(-0.006939171 0.023342398 -2.8623915e-05)
(-0.012900007 0.03084025 -4.3415032e-06)
(-0.020031513 0.037092753 1.5320453e-05)
(-0.028070775 0.042089233 3.1109626e-05)
(-0.036776936 0.045865965 4.3795285e-05)
(-0.04593618 0.048483724 5.4183419e-05)
(-0.055361034 0.050009811 6.2829316e-05)
(-0.064882762 0.050506058 7.0042894e-05)
(-0.074345237 0.050022365 7.5923491e-05)
(-0.08360043 0.048594946 8.0383719e-05)
(-0.092505008 0.046248323 8.3179469e-05)
(-0.10091806 0.043000034 8.3947602e-05)
(-0.10869991 0.038867026 8.224932e-05)
(-0.11571201 0.033872806 7.7618635e-05)
(-0.12181776 0.028054599 6.9615116e-05)
(-0.12688415 0.021469921 5.7879452e-05)
(-0.13078424 0.014202162 4.218964e-05)
(-0.13340051 0.0063648432 2.2514998e-05)
(-0.13462889 -0.0018956798 -9.3663701e-07)
(-0.13438356 -0.010399352 -2.769009e-05)
(-0.13260265 -0.018933471 -5.6973971e-05)
(-0.12925459 -0.027256324 -8.7737614e-05)
(-0.12434473 -0.035103343 -0.00011867956)
(-0.11792207 -0.042196271 -0.0001483109)
(-0.11008532 -0.048255415 -0.00017504757)
(-0.10098747 -0.0530149 -0.0001973265)
(-0.090837947 -0.056240446 -0.00021373658)
(-0.079901152 -0.057748698 -0.00022315058)
(-0.068490572 -0.057426676 -0.00022484099)
(-0.056957813 -0.05524941 -0.00021856253)
(-0.045676517 -0.05129366 -0.00020458753)
(-0.035021989 -0.045745717 -0.00018368395)
(-0.025348534 -0.038901902 -0.0001570252)
(-0.016966837 -0.031161487 -0.00012606964)
(-0.010119113 -0.023012768 -9.2593268e-05)
(-0.0049553805 -0.015012136 -5.8529454e-05)
(-0.0015833161 -0.0077587168 -2.3372102e-05)
(-0.00017994249 -0.0018920337 1.4497445e-05)
(-0.000436545 0.0064542341 -9.3275126e-05)
(-0.0027848251 0.018304533 -4.531551e-05)
(-0.0075904781 0.02875892 -8.8574725e-06)
(-0.014078745 0.037669643 1.7376108e-05)
(-0.021815718 0.045008299 3.8660822e-05)
(-0.030511503 0.050812901 5.5933428e-05)
(-0.039904603 0.055159978 7.0122023e-05)
(-0.049766751 0.058142096 8.216373e-05)
(-0.059901386 0.059850544 9.2694363e-05)
(-0.070134559 0.060364294 0.00010205986)
(-0.080307545 0.059744681 0.0001103589)
(-0.090271302 0.058034874 0.00011747171)
(-0.099882219 0.055263112 0.00012309404)
(-0.10899908 0.051448597 0.0001267781)
(-0.11748125 0.046608994 0.00012797895)
(-0.12518786 0.040768591 0.00012610618)
(-0.13197805 0.033966363 0.00012058088)
(-0.13771202 0.026263415 0.00011089659)
(-0.14225297 0.017749396 9.6682653e-05)
(-0.14546998 0.0085476292 7.7767523e-05)
(-0.14724195 -0.0011812569 5.4237525e-05)
(-0.14746233 -0.01123742 2.6470137e-05)
(-0.14604533 -0.021382247 -4.8046143e-06)
(-0.14293325 -0.031340901 -3.8526841e-05)
(-0.13810447 -0.040808142 -7.3315851e-05)
(-0.13158223 -0.049457584 -0.00010752695)
(-0.12344325 -0.056954819 -0.0001393433)
(-0.11382519 -0.062974569 -0.00016690002)
(-0.10293183 -0.067221532 -0.00018843294)
(-0.091034466 -0.069453993 -0.0002024381)
(-0.07846811 -0.069508515 -0.00020782287)
(-0.065621452 -0.067323325 -0.0002040275)
(-0.052920033 -0.062957484 -0.00019109745)
(-0.040803278 -0.056602905 -0.00016968928)
(-0.02969757 -0.048586872 -0.000140991)
(-0.019988156 -0.039364135 -0.00010659785)
(-0.01198738 -0.029499113 -6.8560282e-05)
(-0.0059036877 -0.019638333 -2.9185306e-05)
(-0.0018988505 -0.010476768 1.2106759e-05)
(-0.00021902654 -0.0027501936 5.4448769e-05)
(-0.00047241435 0.0079544296 -7.2150147e-05)
(-0.0030031825 0.022231525 -1.8488651e-05)
(-0.0081698204 0.034617275 2.0560901e-05)
(-0.015129336 0.045036181 4.8620251e-05)
(-0.023409404 0.053524695 7.1515028e-05)
(-0.032696581 0.060177602 9.0364208e-05)
(-0.04271138 0.0651187 0.00010624472)
(-0.053213165 0.0684781 0.0001202119)
(-0.063998046 0.070375528 0.00013297)
(-0.07488854 0.070910342 0.00014489007)
(-0.085725066 0.070157479 0.00015606024)
(-0.096359448 0.068168286 0.00016631924)
(-0.10664979 0.06497511 0.00017529364)
(-0.11645663 0.06059846 0.00018244127)
(-0.12564036 0.055055644 0.00018709937)
(-0.13405969 0.048369949 0.00018853848)
(-0.14157106 0.040579642 0.00018602228)
(-0.14802901 0.031746309 0.00017887331)
(-0.15328743 0.021962208 0.00016654289)
(-0.15720183 0.011356424 0.00014868254)
(-0.15963282 9.9670146e-05 0.00012521312)
(-0.16045102 -0.01159248 9.6395961e-05)
(-0.15954336 -0.023458769 6.2859534e-05)
(-0.1568211 -0.035193392 2.5645602e-05)
(-0.15222949 -0.046450799 -1.3804952e-05)
(-0.14575858 -0.05685443 -5.3694065e-05)
(-0.13745463 -0.066010161 -9.1951493e-05)
(-0.12743107 -0.073524987 -0.00012636336)
(-0.11587749 -0.079030897 -0.00015473832)
(-0.10306488 -0.082213172 -0.00017509828)
(-0.089345116 -0.082841298 -0.00018587333)
(-0.075142876 -0.080799633 -0.0001860748)
(-0.060938844 -0.076114014 -0.00017541983)
(-0.047244314 -0.0689701 -0.00015438006)
(-0.034569405 -0.059719742 -0.00012412331)
(-0.023388165 -0.048873366 -8.6389906e-05)
(-0.014097891 -0.037078452 -4.3557255e-05)
(-0.0069786845 -0.025084428 1.6105347e-06)
(-0.0022581136 -0.01369914 4.9739466e-05)
(-0.00026403971 -0.0037753353 9.7299151e-05)
(-0.00050319713 0.0095608925 -4.0325174e-05)
(-0.0031911146 0.026427197 1.926699e-05)
(-0.0086696577 0.04086453 6.0594972e-05)
(-0.016038054 0.052877331 9.0338645e-05)
(-0.024791513 0.062574295 0.00011482107)
(-0.034596699 0.070113914 0.00013533638)
(-0.045158973 0.075673435 0.0001531012)
(-0.056227536 0.079425743 0.00016927784)
(-0.067592968 0.081523223 0.00018462924)
(-0.079075908 0.082088822 0.00019954348)
(-0.090517604 0.081213318 0.00021409113)
(-0.10177255 0.078957586 0.00022806306)
(-0.11270252 0.075358584 0.00024101021)
(-0.12317188 0.070437811 0.00025228817)
(-0.13304419 0.064211097 0.00026110602)
(-0.14217983 0.056698797 0.00026658075)
(-0.15043455 0.047935724 0.00026779871)
(-0.15765897 0.037980414 0.00026388461)
(-0.16369898 0.026923488 0.00025407742)
(-0.16839732 0.014894992 0.00023781064)
(-0.17159634 0.0020705732 0.00021479454)
(-0.17314273 -0.011323763 0.00018510538)
(-0.17289376 -0.025008674 0.00014923119)
(-0.17072585 -0.038651063 0.00010814233)
(-0.16654548 -0.051867002 6.3300424e-05)
(-0.16030204 -0.064229141 1.6637238e-05)
(-0.15200216 -0.075279709 -2.9516627e-05)
(-0.14172458 -0.084550062 -7.2558425e-05)
(-0.12963376 -0.091587243 -0.00010979366)
(-0.11599013 -0.095987119 -0.00013865998)
(-0.10115434 -0.097432404 -0.00015697378)
(-0.085582676 -0.095732305 -0.00016316935)
(-0.069811646 -0.090859001 -0.00015649488)
(-0.054430832 -0.082975168 -0.00013712449)
(-0.040046014 -0.072446908 -0.00010613811)
(-0.02723614 -0.059838309 -6.5407601e-05)
(-0.016501409 -0.045886752 -1.7682544e-05)
(-0.0082106162 -0.031459196 3.3726787e-05)
(-0.0026732783 -0.017496552 8.9472236e-05)
(-0.00031716653 -0.0049926676 0.00014319206)
(-0.00052833066 0.011256968 3.0297346e-06)
(-0.0033456046 0.030850257 6.8795688e-05)
(-0.0090823821 0.047442349 0.00011206608)
(-0.016791292 0.061123856 0.00014334281)
(-0.025941273 0.072081649 0.0001693865)
(-0.036182806 0.08054364 0.00019165826)
(-0.047208947 0.086745803 0.00021150567)
(-0.0587609 0.090908458 0.00023018827)
(-0.070625444 0.093220579 0.00024852053)
(-0.082622892 0.093831832 0.00026690257)
(-0.094596903 0.092851152 0.0002853839)
(-0.10640635 0.090350429 0.00030370476)
(-0.11791857 0.086371892 0.00032133724)
(-0.12900386 0.080937861 0.00033752993)
(-0.13953124 0.074061651 0.00035135572)
(-0.14936517 0.065758759 0.00036176506)
(-0.1583632 0.056057706 0.00036764726)
(-0.16637447 0.045010226 0.00036790105)
(-0.17323919 0.032700682 0.00036151513)
(-0.17878926 0.01925467 0.00034765738)
(-0.18285024 0.0048467709 0.00032577083)
(-0.18524532 -0.010292796 0.00029567527)
(-0.18580136 -0.025872854 0.00025765233)
(-0.18435751 -0.041538454 0.00021252995)
(-0.18077697 -0.056871228 0.00016172908)
(-0.17496153 -0.071394535 0.00010727223)
(-0.16686874 -0.084584953 5.1736083e-05)
(-0.15653088 -0.095891659 -1.8633657e-06)
(-0.1440739 -0.10476487 -5.0258247e-05)
(-0.12973394 -0.11069356 -9.0184094e-05)
(-0.11386804 -0.11325117 -0.0001186843)
(-0.096955285 -0.1121459 -0.00013343036)
(-0.079584753 -0.10726993 -0.00013301258)
(-0.062428149 -0.098739827 -0.00011714338)
(-0.046198192 -0.086919878 -8.6700747e-05)
(-0.031596376 -0.072421897 -4.3641524e-05)
(-0.019247155 -0.056078643 8.8807117e-06)
(-0.0096295893 -0.038890491 6.6915082e-05)
(-0.0031566387 -0.02195468 0.00013112095)
(-0.0003806318 -0.0064338448 0.00019214937)
(-0.00054726464 0.013024388 5.8582164e-05)
(-0.0034638166 0.03545575 0.00013077272)
(-0.0094009706 0.054287252 0.000175631)
(-0.017376542 0.069700111 0.00020828254)
(-0.026839486 0.08196369 0.00023585786)
(-0.037427695 0.091379715 0.00025997528)
(-0.048824613 0.098247211 0.00028210483)
(-0.060765451 0.102838 0.00030359517)
(-0.073034736 0.10538127 0.00032530785)
(-0.085453841 0.10605646 0.00034765357)
(-0.097870248 0.10499306 0.00037066126)
(-0.11014879 0.10227565 0.00039402184)
(-0.12216418 0.097952616 0.00041712959)
(-0.13379479 0.092047169 0.00043912521)
(-0.14491748 0.084569306 0.00045894091)
(-0.15540354 0.075527934 0.00047535057)
(-0.16511528 0.064942575 0.00048702875)
(-0.17390362 0.052854447 0.00049262079)
(-0.18160641 0.03933691 0.00049082616)
(-0.18804802 0.024505383 0.00048049507)
(-0.1930402 0.0085267642 0.00046073761)
(-0.19638503 -0.0083717685 0.0004310427)
(-0.19788017 -0.025894891 0.00039139559)
(-0.19732711 -0.043673221 0.00034239117)
(-0.19454298 -0.061260356 0.00028532253)
(-0.18937631 -0.078134685 0.00022223043)
(-0.18172655 -0.093708034 0.00015589327)
(-0.17156705 -0.10734343 8.9738344e-05)
(-0.15896975 -0.11838402 2.765999e-05)
(-0.14412911 -0.12619447 -2.6259662e-05)
(-0.12738133 -0.13021433 -6.8114472e-05)
(-0.10921378 -0.13002042 -9.4589252e-05)
(-0.090259348 -0.12539179 -0.00010337169)
(-0.071271412 -0.11636761 -9.3482657e-05)
(-0.053078871 -0.10328623 -6.5420369e-05)
(-0.036524179 -0.086794979 -2.1130735e-05)
(-0.022380807 -0.067824251 3.5821283e-05)
(-0.011264842 -0.047523967 0.00010074772)
(-0.0037205068 -0.027173875 0.00017429575)
(-0.0004567332 -0.0081369973 0.00024399381)
(-0.00055953706 0.01484345 0.00012681283)
(-0.003543455 0.04019554 0.00020568294)
(-0.0096197928 0.061331277 0.00025176107)
(-0.017783681 0.078524741 0.00028562247)
(-0.027470273 0.092130295 0.0003146925)
(-0.038308186 0.10252647 0.00034073532)
(-0.04997366 0.11007871 0.00036533539)
(-0.062197642 0.11511378 0.00038992421)
(-0.074763706 0.11790442 0.00041540915)
(-0.087495442 0.11866286 0.00044221397)
(-0.10024537 0.11754163 0.00047035188)
(-0.1128857 0.1146399 0.00049947046)
(-0.12530026 0.11001343 0.00052889192)
(-0.13737753 0.10368672 0.00055765299)
(-0.14900479 0.095666024 0.00058454536)
(-0.16006308 0.085952319 0.00060816075)
(-0.17042298 0.074553783 0.0006269452)
(-0.17994107 0.061497711 0.00063926645)
(-0.18845723 0.046841921 0.00064349758)
(-0.19579294 0.030685923 0.00063811889)
(-0.20175086 0.013182003 0.00062183863)
(-0.2061164 -0.0054537648 0.00059373052)
(-0.20866159 -0.024930867 0.00055338204)
(-0.2091523 -0.044874928 0.00050104357)
(-0.20735937 -0.06482068 0.00043776522)
(-0.20307451 -0.084209304 0.00036549887)
(-0.19613151 -0.10239269 0.00028714125)
(-0.18643255 -0.11864766 0.00020649001)
(-0.17397872 -0.13220333 0.00012808655)
(-0.15890218 -0.14228435 5.6928391e-05)
(-0.14149582 -0.14817104 -1.9476052e-06)
(-0.12223409 -0.14927447 -4.3983385e-05)
(-0.10177767 -0.14522015 -6.5659585e-05)
(-0.080954753 -0.13592867 -6.4996377e-05)
(-0.060715587 -0.12167755 -4.1849793e-05)
(-0.042061363 -0.10312795 2.0129799e-06)
(-0.025942307 -0.081304302 6.2650325e-05)
(-0.013143988 -0.057520822 0.00013454709)
(-0.0043771224 -0.03326851 0.00021831595)
(-0.00054787912 -0.010146747 0.00029826236)
(-0.0005648532 0.016693389 0.00020799334)
(-0.0035831607 0.045019209 0.0002938029)
(-0.0097355378 0.068503158 0.00034072555)
(-0.018006487 0.087511911 0.00037562322)
(-0.027823168 0.10248537 0.00040613505)
(-0.038807786 0.11388045 0.0004341584)
(-0.050631371 0.12213136 0.00046138504)
(-0.063021981 0.12762275 0.00048932577)
(-0.075763247 0.13067397 0.00051893622)
(-0.088681885 0.13153301 0.00055066015)
(-0.10163646 0.13037813 0.0005845047)
(-0.11450782 0.12732523 0.00062008509)
(-0.12719047 0.122439 0.00065666236)
(-0.13958505 0.11574612 0.00069317848)
(-0.15159178 0.10724918 0.00072829034)
(-0.16310461 0.09694041 0.00076040755)
(-0.17400616 0.084814918 0.00078773973)
(-0.18416323 0.070883253 0.00080835848)
(-0.19342294 0.055183675 0.00082027852)
(-0.20160976 0.037794418 0.00082156198)
(-0.20852364 0.018846306 0.00081044793)
(-0.21393976 -0.0014641239 0.00078550727)
(-0.2176107 -0.022861149 0.00074582058)
(-0.21927167 -0.044976666 0.00069116559)
(-0.21865004 -0.06733854 0.00062220811)
(-0.21548033 -0.089362376 0.0005406675)
(-0.20952567 -0.11034973 0.00044942936)
(-0.20060649 -0.12949651 0.00035256885)
(-0.18863613 -0.14591599 0.00025524439)
(-0.17366156 -0.15868103 0.00016342736)
(-0.15590501 -0.16688869 8.3450433e-05)
(-0.13579948 -0.1697475 2.1388135e-05)
(-0.1140085 -0.16668193 -1.7673032e-05)
(-0.091419302 -0.15744147 -3.0354191e-05)
(-0.069101839 -0.14219401 -1.5499811e-05)
(-0.048230954 -0.12157956 2.557017e-05)
(-0.029963232 -0.096703225 8.8640746e-05)
(-0.015292092 -0.069054429 0.00016730196)
(-0.0051385279 -0.040365898 0.00026210997)
(-0.0006566251 -0.012514194 0.00035410453)
(-0.00056316705 0.018552986 0.00030216953)
(-0.0035829368 0.049875446 0.00039518969)
(-0.0097482345 0.075730113 0.00044258233)
(-0.018044328 0.096573163 0.00047833028)
(-0.027895482 0.11292857 0.00051020162)
(-0.038919701 0.12533176 0.00054021362)
(-0.05078427 0.13428725 0.0005701604)
(-0.063215341 0.14023996 0.0006016322)
(-0.075997315 0.14355876 0.00063564017)
(-0.088960725 0.14453042 0.00067266012)
(-0.10197102 0.14336173 0.00071270796)
(-0.11491877 0.14018783 0.00075538277)
(-0.12771063 0.13508431 0.00079990058)
(-0.14026136 0.1280814 0.00084512325)
(-0.15248657 0.11917868 0.00088958445)
(-0.16429634 0.1083596 0.00093151822)
(-0.1755893 0.095605193 0.0009688971)