/*--------------------------------*- C++ -*----------------------------------*\
  =========                 |
  \\      /  F ield         | OpenFOAM: The Open Source CFD Toolbox
   \\    /   O peration     | Website:  https://openfoam.org
    \\  /    A nd           | Version:  7
     \\/     M anipulation  |
\*---------------------------------------------------------------------------*/
FoamFile
{
    version     2.0;
    format      ascii;
    class       volVectorField;
    location    "15";
    object      U_0;
}
// * * * * * * * * * * * * * * * * * * * * * * * * * * * * * * * * * * * * * //

dimensions      [0 1 -1 0 0 0 0];

internalField   nonuniform List<vector> 
16000
(
(6.6230202e-05 -6.7045243e-05 -2.8849688e-07)
(0.00016295363 -5.6152227e-05 5.8330387e-06)
(0.00014187867 5.5902838e-07 1.9325755e-05)
(-5.0708147e-05 6.1913967e-05 3.6734617e-05)
(-0.00040994104 0.0001156011 5.4826933e-05)
(-0.00090876095 0.00015767625 7.1637966e-05)
(-0.0015171274 0.00018841176 8.5832763e-05)
(-0.0022059201 0.00020949936 9.6597026e-05)
(-0.0029492103 0.00022275606 0.00010347084)
(-0.0037246231 0.00022968336 0.00010620718)
(-0.0045127454 0.00023134573 0.00010467874)
(-0.0052962428 0.00022837211 9.8822871e-05)
(-0.0060589666 0.00022101806 8.8615398e-05)
(-0.0067852028 0.00020925935 7.4067111e-05)
(-0.0074591538 0.00019289916 5.5236828e-05)
(-0.0080647001 0.00017167915 3.2254907e-05)
(-0.0085854563 0.00014538755 5.3514661e-06)
(-0.0090051112 0.00011395926 -2.5115553e-05)
(-0.0093080212 7.756404e-05 -5.8636582e-05)
(-0.0094800173 3.6678522e-05 -9.4534547e-05)
(-0.0095093663 -7.8645478e-06 -0.00013196049)
(-0.0093877994 -5.4870467e-05 -0.00016990392)
(-0.0091115468 -0.00010275873 -0.0002072191)
(-0.0086822743 -0.00014963583 -0.00024266901)
(-0.0081077987 -0.00019337366 -0.00027498477)
(-0.0074025073 -0.00023172823 -0.00030293833)
(-0.0065873872 -0.00026248994 -0.00032542392)
(-0.0056896018 -0.00028365149 -0.000341542)
(-0.0047415899 -0.00029357711 -0.00035067851)
(-0.0037797038 -0.00029115431 -0.00035257194)
(-0.0028424554 -0.00027591044 -0.0003473617)
(-0.0019684765 -0.00024807976 -0.00033561372)
(-0.0011943077 -0.00020862084 -0.00031832228)
(-0.00055206288 -0.00015922108 -0.00029689087)
(-6.7023474e-05 -0.00010240472 -0.00027308756)
(0.00024438949 -4.1789684e-05 -0.00024896825)
(0.0003784873 1.7785429e-05 -0.00022691374)
(0.00034947966 6.699575e-05 -0.00020935839)
(0.0002060534 8.9789377e-05 -0.00019897293)
(5.7440384e-05 5.7385362e-05 -0.00018451676)
(5.8080563e-05 -0.00016651666 -6.4916951e-06)
(4.0999011e-05 -3.9552799e-05 -2.2791373e-07)
(-0.00029484034 0.00024869501 1.1397421e-05)
(-0.0010106359 0.00056198789 2.5751241e-05)
(-0.0020983155 0.0008471289 4.0721514e-05)
(-0.0035124116 0.0010825672 5.4713784e-05)
(-0.0051920506 0.0012636078 6.6601789e-05)
(-0.0070728858 0.0013932746 7.5633747e-05)
(-0.0090931941 0.0014771011 8.132804e-05)
(-0.011196075 0.0015206294 8.3385074e-05)
(-0.013329503 0.0015283003 8.1621749e-05)
(-0.015445354 0.0015030751 7.592852e-05)
(-0.017498076 0.0014464894 6.624737e-05)
(-0.019443467 0.0013589656 5.2567711e-05)
(-0.02123784 0.001240269 3.4935831e-05)
(-0.022837733 0.0010900297 1.3473208e-05)
(-0.024200231 0.0009082745 -1.1600868e-05)
(-0.025283888 0.00069592626 -3.9946399e-05)
(-0.026050191 0.00045523572 -7.1083108e-05)
(-0.026465462 0.00019011415 -0.00010437743)
(-0.026503071 -9.366279e-05 -0.00013903922)
(-0.026145702 -0.00038837653 -0.00017413751)
(-0.025387602 -0.00068450235 -0.00020861701)
(-0.024236562 -0.00097099808 -0.0002413459)
(-0.022715315 -0.0012357858 -0.00027116919)
(-0.020862258 -0.0014664066 -0.00029697606)
(-0.018731288 -0.0016508111 -0.0003177751)
(-0.016390625 -0.0017782293 -0.00033277131)
(-0.013920568 -0.0018400474 -0.00034143796)
(-0.011410232 -0.0018306096 -0.00034357632)
(-0.0089533666 -0.0017478692 -0.00033935681)
(-0.0066434539 -0.0015938361 -0.00032933734)
(-0.0045683101 -0.0013748235 -0.00031445675)
(-0.0028043529 -0.001101603 -0.00029600476)
(-0.0014106007 -0.00078976638 -0.00027557122)
(-0.00042241111 -0.00046062749 -0.00025496938)
(0.00015502313 -0.00014275133 -0.00023611335)
(0.00035618276 0.00012203699 -0.00022101898)
(0.00027499226 0.00027086391 -0.00021178563)
(9.0056721e-05 0.00020496565 -0.00019558521)
(1.9470123e-06 -0.00014856789 -2.0265458e-05)
(-0.00025587506 0.00029729005 -1.1640368e-05)
(-0.0010498975 0.0010234249 2.4905461e-07)
(-0.0023865693 0.0017967879 1.3217607e-05)
(-0.0042371389 0.0025086275 2.6240366e-05)
(-0.0065418951 0.0031083358 3.8177486e-05)
(-0.0092198322 0.0035788546 4.8202501e-05)
(-0.012182882 0.0039211073 5.5755119e-05)
(-0.015343906 0.0041436919 6.0454009e-05)
(-0.01861993 0.0042570087 6.204257e-05)
(-0.021932889 0.0042702152 6.0347946e-05)
(-0.025209036 0.004189925 5.5252629e-05)
(-0.028377756 0.0040200343 4.6680651e-05)
(-0.031370415 0.0037622693 3.4597195e-05)
(-0.034119623 0.0034171629 1.9018684e-05)
(-0.036559159 0.0029852453 2.9977102e-08)
(-0.038624664 0.0024682873 -2.2194828e-05)
(-0.040255079 0.0018704734 -4.737126e-05)
(-0.041394769 0.0011994033 -7.5086069e-05)
(-0.041996181 0.00046683985 -0.00010478481)
(-0.042022807 -0.00031085779 -0.00013577009)
(-0.04145227 -0.0011126398 -0.00016720731)
(-0.040279258 -0.0019131992 -0.00019814989)
(-0.038517992 -0.0026837273 -0.00022757534)
(-0.036203993 -0.0033931552 -0.00025443607)
(-0.033394875 -0.0040097871 -0.00027772212)
(-0.030169951 -0.0045032385 -0.00029653132)
(-0.026628493 -0.0048465565 -0.00031014136)
(-0.022886565 -0.0050183635 -0.00031807683)
(-0.01907246 -0.0050048435 -0.00032016412)
(-0.015320862 -0.0048014071 -0.00031656753)
(-0.011765959 -0.0044139197 -0.00030780207)
(-0.0085337772 -0.003859486 -0.00029472054)
(-0.0057340317 -0.0031669454 -0.00027847556)
(-0.0034516965 -0.0023774834 -0.00026046051)
(-0.0017384531 -0.0015460482 -0.00024223009)
(-0.000604312 -0.0007444488 -0.00022539328)
(-8.5626922e-06 -6.6871407e-05 -0.00021154161)
(0.00015511579 0.00035985572 -0.00020236293)
(7.3472421e-05 0.00035407541 -0.00018543537)
(-6.4640345e-05 5.0672305e-05 -3.8502077e-05)
(-0.00060801495 0.0010456107 -2.595965e-05)
(-0.0019293924 0.0023807743 -1.1988951e-05)
(-0.0039440718 0.0037546247 1.2920116e-06)
(-0.0065850121 0.0050125295 1.3867107e-05)
(-0.0097731904 0.006076514 2.4977556e-05)
(-0.013408809 0.006916367 3.4086331e-05)
(-0.017384676 0.0075295182 4.0858487e-05)
(-0.0215942 0.0079265186 4.505843e-05)
(-0.025934402 0.008122026 4.6514278e-05)
(-0.030306798 0.0081297534 4.5095099e-05)
(-0.034617058 0.0079601153 4.069476e-05)
(-0.038774071 0.0076197432 3.3226669e-05)
(-0.042689041 0.007112256 2.2629023e-05)
(-0.046275026 0.006439805 8.8785037e-06)
(-0.049447188 0.005605019 -7.990077e-06)
(-0.052123873 0.0046130592 -2.7861107e-05)
(-0.054228496 0.0034735562 -5.0515401e-05)
(-0.055692155 0.0022022481 -7.5610064e-05)
(-0.056456784 0.00082217933 -0.00010266419)
(-0.056478617 -0.00063565009 -0.00013105364)
(-0.055731758 -0.0021322982 -0.00016001389)
(-0.0542115 -0.0036215895 -0.00018866339)
(-0.051937107 -0.0050515595 -0.00021603569)
(-0.048953795 -0.006366626 -0.00024112846)
(-0.045333593 -0.0075104102 -0.00026296486)
(-0.04117485 -0.008429072 -0.00028066334)
(-0.036600193 -0.0090749613 -0.00029350982)
(-0.031752824 -0.0094103295 -0.00030102529)
(-0.026791137 -0.0094108171 -0.00030302072)
(-0.02188179 -0.0090684408 -0.00029963221)
(-0.017191419 -0.0083938753 -0.0002913312)
(-0.012877359 -0.0074179651 -0.0002789069)
(-0.0090777431 -0.006192609 -0.00026342189)
(-0.0059014487 -0.0047914535 -0.00024614411)
(-0.0034183033 -0.003311218 -0.00022846265)
(-0.0016497685 -0.0018746689 -0.00021180314)
(-0.00056013044 -0.00063534357 -0.00019755713)
(-5.0345461e-05 0.00021420965 -0.00018695811)
(3.8015779e-05 0.0004133722 -0.00016814129)
(-0.0001307848 0.00044557128 -5.7999808e-05)
(-0.0009703317 0.0022417948 -4.0934709e-05)
(-0.0028443773 0.0043569756 -2.4065227e-05)
(-0.0055612013 0.0064535972 -9.6454467e-06)
(-0.0090035676 0.0083485444 3.2597818e-06)
(-0.013066912 0.009945401 1.422594e-05)
(-0.017630732 0.011204817 2.2990099e-05)
(-0.022569903 0.012122021 2.9447768e-05)
(-0.027761483 0.012709573 3.3522019e-05)
(-0.033086539 0.012986032 3.5139787e-05)
(-0.038430529 0.012969302 3.4223542e-05)
(-0.043682886 0.012673408 3.0685093e-05)
(-0.048736195 0.012107779 2.4428125e-05)
(-0.053485497 0.011278289 1.5359667e-05)
(-0.057828099 0.010189405 3.4087477e-06)
(-0.061664141 0.008846912 -1.1449807e-05)
(-0.064897998 0.0072608029 -2.9169004e-05)
(-0.067440511 0.0054479911 -4.9603346e-05)
(-0.069211931 0.0034345833 -7.2485056e-05)
(-0.070145403 0.0012575119 -9.7405714e-05)
(-0.070190749 -0.001034638 -0.00012380645)
(-0.069318322 -0.0033817468 -0.00015097943)
(-0.067522607 -0.0057132385 -0.00017808444)
(-0.06482529 -0.0079502453 -0.00020418047)
(-0.061277482 -0.010008779 -0.00022827339)
(-0.056960797 -0.011803835 -0.0002493777)
(-0.051987 -0.013254245 -0.00026658823)
(-0.04649598 -0.014288031 -0.00027915568)
(-0.040651886 -0.014847893 -0.00028655799)
(-0.034637345 -0.01489645 -0.00028855873)
(-0.028645831 -0.014420821 -0.00028524449)
(-0.022872401 -0.013436209 -0.00027703508)
(-0.017503157 -0.011988305 -0.0002646634)
(-0.012703967 -0.010154565 -0.00024912577)
(-0.0086091211 -0.0080447538 -0.00023160541)
(-0.0053106567 -0.0058015482 -0.00021338232)
(-0.0028482 -0.0036022044 -0.00019576972)
(-0.0012000881 -0.0016610886 -0.00018003196)
(-0.00028892216 -0.00023466808 -0.00016689311)
(-2.5090519e-06 0.00034990597 -0.00014564804)
(-0.00019273757 0.0010309284 -7.6461092e-05)
(-0.0013230887 0.0038905347 -5.4560843e-05)
(-0.003749294 0.0069640379 -3.4371386e-05)
(-0.0071683947 0.0099048832 -1.8291427e-05)
(-0.011407013 0.012519671 -4.5096524e-06)
(-0.016330356 0.014705278 6.8387679e-06)
(-0.021794828 0.016420115 1.5740858e-05)
(-0.027657198 0.017660819 2.2311417e-05)
(-0.033779707 0.018443572 2.6628976e-05)
(-0.040030128 0.018791381 2.8719883e-05)
(-0.046281164 0.018726394 2.8561169e-05)
(-0.052409599 0.018266162 2.6082199e-05)
(-0.05829536 0.017422912 2.1174009e-05)
(-0.06382087 0.016204968 1.3706945e-05)
(-0.068871021 0.014619557 3.5548859e-06)
(-0.073333941 0.012676353 -9.3758932e-06)
(-0.077102615 0.010391188 -2.5115529e-05)
(-0.080077319 0.0077895384 -4.3599325e-05)
(-0.082168763 0.0049094126 -6.463886e-05)
(-0.083301754 0.0018034014 -8.7898296e-05)
(-0.083419185 -0.0014603156 -0.00011287928)
(-0.082486101 -0.0047981647 -0.00013891836)
(-0.080493584 -0.0081126393 -0.00016519866)
(-0.077462172 -0.011295138 -0.00019077972)
(-0.073444497 -0.014230124 -0.00021464427)
(-0.068526823 -0.016800516 -0.00023576145)
(-0.062829156 -0.018894138 -0.00025316227)
(-0.056503606 -0.020410883 -0.00026602073)
(-0.04973075 -0.021270195 -0.00027373195)
(-0.042713814 -0.02141833 -0.00027597753)
(-0.035670676 -0.02083484 -0.00027276871)
(-0.02882385 -0.019537763 -0.00026445985)
(-0.02238887 -0.017587146 -0.00025172868)
(-0.016561683 -0.015086778 -0.00023552339)
(-0.011506025 -0.01218439 -0.00021697873)
(-0.0073417489 -0.0090710498 -0.00019731974)
(-0.0041335456 -0.0059806626 -0.00017781987)
(-0.0018812881 -0.0031892291 -0.00015971292)
(-0.0005361634 -0.0010151211 -0.00014332582)
(-4.125706e-05 0.00015832567 -0.00011922244)
(-0.00024994012 0.0017976595 -9.1929936e-05)
(-0.0016585928 0.0059806785 -6.5046861e-05)
(-0.0046211713 0.010192401 -4.1378165e-05)
(-0.0087259937 0.014098176 -2.3338092e-05)
(-0.013741936 0.017511179 -8.3145854e-06)
(-0.019501452 0.020334066 3.809273e-06)
(-0.025836227 0.022531437 1.3245132e-05)
(-0.032584595 0.024106542 2.0309006e-05)
(-0.039594882 0.025082118 2.5222973e-05)
(-0.046723444 0.025487079 2.8104934e-05)
(-0.053832789 0.025348422 2.8980409e-05)
(-0.060790012 0.024687408 2.7790514e-05)
(-0.067465492 0.023519094 2.4407279e-05)
(-0.073732106 0.021854306 1.865715e-05)
(-0.079465184 0.019703199 1.0350792e-05)
(-0.084543329 0.017079631 -6.8268784e-07)
(-0.08885009 0.014005719 -1.4559105e-05)
(-0.092276462 0.010516072 -3.1302171e-05)
(-0.094724074 0.0066612925 -5.0808448e-05)
(-0.096108926 0.0025104625 -7.2817313e-05)
(-0.096365499 -0.001847631 -9.6889587e-05)
(-0.095451021 -0.0063046995 -0.00012239957)
(-0.093349697 -0.010734688 -0.00014854131)
(-0.090076622 -0.01499718 -0.00017435593)
(-0.085681061 -0.018942442 -0.00019877718)
(-0.080248765 -0.022418052 -0.00022069652)
(-0.073902921 -0.025276936 -0.00023904329)
(-0.066803332 -0.027386473 -0.00025287335)
(-0.05914341 -0.028638173 -0.00026145672)
(-0.051144715 -0.028957292 -0.00026435347)
(-0.043048867 -0.028311617 -0.00026146668)
(-0.03510696 -0.02671868 -0.00025306359)
(-0.027566865 -0.024250739 -0.00023976008)
(-0.020659159 -0.021037162 -0.00022246768)
(-0.014582903 -0.017264231 -0.00020230385)
(-0.0094925302 -0.013172964 -0.00018048941)
(-0.0054847719 -0.0090558165 -0.00015832784)
(-0.0025872603 -0.0052517788 -0.00013710758)
(-0.00078433066 -0.0021410749 -0.00011683284)
(-7.6889327e-05 -0.00016113227 -8.9621337e-05)
(-0.00030273254 0.0027349394 -0.00010273822)
(-0.0019740522 0.0084928297 -7.0777853e-05)
(-0.0054481788 0.014019629 -4.3650101e-05)
(-0.01021061 0.019009084 -2.3521518e-05)
(-0.01597377 0.02329592 -7.0421286e-06)
(-0.022536858 0.026800727 6.1308687e-06)
(-0.029706392 0.029503265 1.6411661e-05)
(-0.037302382 0.031419504 2.4297792e-05)
(-0.045160072 0.032582583 3.0139047e-05)
(-0.053125953 0.033029538 3.4132064e-05)
(-0.061054454 0.032793346 3.6340007e-05)
(-0.068805481 0.031899447 3.6706137e-05)
(-0.076242543 0.03036584 3.5074489e-05)
(-0.083231626 0.028205791 3.1218691e-05)
(-0.089640955 0.025432243 2.4876993e-05)
(-0.095341665 0.022063069 1.5791744e-05)
(-0.10020938 0.018126476 3.751648e-06)
(-0.10412658 0.013665989 -1.1365e-05)
(-0.10698573 0.0087445905 -2.9548496e-05)
(-0.10869296 0.003447687 -5.0620452e-05)
(-0.10917224 -0.0021153419 -7.4205081e-05)
(-0.10836986 -0.007811221 -9.9714837e-05)
(-0.10625908 -0.013484591 -0.00012634953)
(-0.1028447 -0.018961797 -0.0001531201)
(-0.098167267 -0.024056619 -0.00017889186)
(-0.092306477 -0.028578009 -0.00020245081)
(-0.085383429 -0.032339672 -0.00022258887)
(-0.077561055 -0.035171198 -0.0002382013)
(-0.069042249 -0.036930187 -0.00024838653)
(-0.060065166 -0.037514609 -0.00025253629)
(-0.050895386 -0.036874427 -0.0002504033)
(-0.041814907 -0.035021404 -0.00024213547)
(-0.033108311 -0.03203609 -0.00022826991)
(-0.025046936 -0.028071232 -0.00020968414)
(-0.017872537 -0.023351316 -0.00018750256)
(-0.011782004 -0.01816865 -0.00016298758)
(-0.0069115903 -0.012876795 -0.00013753844)
(-0.0033227373 -0.0078808875 -0.00011257982)
(-0.0010365694 -0.0036262202 -8.7882612e-05)
(-0.0001109228 -0.00060748152 -5.7436667e-05)
(-0.00035142697 0.0038314175 -0.00010742419)
(-0.0022680004 0.011402955 -7.028145e-05)
(-0.0062229125 0.018415178 -3.9825831e-05)
(-0.011606332 0.02460368 -1.7592693e-05)
(-0.018077366 0.029837828 4.5436458e-07)
(-0.025403047 0.034067448 1.4866678e-05)
(-0.033365408 0.037296344 2.6243115e-05)
(-0.041766879 0.039559669 3.5243969e-05)
(-0.050430674 0.04090534 4.2329928e-05)
(-0.059194899 0.041381259 4.7761617e-05)
(-0.067907801 0.041027938 5.1626828e-05)
(-0.076424303 0.039875734 5.3859378e-05)
(-0.084603409 0.037945775 5.4264705e-05)
(-0.092306571 0.035253599 5.2553408e-05)
(-0.099397067 0.031814501 4.838091e-05)
(-0.10574036 0.027649722 4.1391764e-05)
(-0.11120537 0.022792712 3.1267337e-05)
(-0.11566658 0.017294893 1.7775311e-05)
(-0.11900695 0.011230477 8.1862546e-07)
(-0.12112139 0.0047000223 -1.9519228e-05)
(-0.12192101 -0.0021675545 -4.2936929e-05)
(-0.12133773 -0.009214716 -6.8893575e-05)
(-0.11932947 -0.016256905 -9.6597758e-05)
(-0.11588554 -0.023086446 -0.00012502664)
(-0.11103193 -0.029478691 -0.00015296437)
(-0.1048363 -0.035200617 -0.00017906823)
(-0.09741184 -0.040021865 -0.00020195831)
(-0.088919532 -0.043727935 -0.00022032451)
(-0.07956796 -0.046135021 -0.00023304082)
(-0.069609894 -0.0471056 -0.00023927404)
(-0.059335133 -0.046563551 -0.00023857187)
(-0.049059305 -0.04450736 -0.00023091714)
(-0.03910887 -0.041019906 -0.00021673817)
(-0.029803177 -0.036273556 -0.00019686973)
(-0.021435335 -0.030529825 -0.00017245872)
(-0.014253821 -0.024133746 -0.00014484904)
(-0.0084428663 -0.017503715 -0.00011559829)
(-0.0041042398 -0.011116485 -8.6346483e-05)
(-0.0012996321 -0.0054891014 -5.6699882e-05)
(-0.00014462152 -0.0011820273 -2.2742755e-05)
(-0.00039609027 0.0050753399 -0.00010467019)
(-0.0025389195 0.014683675 -6.2206423e-05)
(-0.0069391436 0.023342311 -2.8624414e-05)
(-0.012899957 0.030840136 -4.3412596e-06)
(-0.020031436 0.037092617 1.5320584e-05)
(-0.028070668 0.042089081 3.1109531e-05)
(-0.036776799 0.045865801 4.3794903e-05)
(-0.045936012 0.048483554 5.4182892e-05)
(-0.055360834 0.05000964 6.2829068e-05)
(-0.064882532 0.050505889 7.0043378e-05)
(-0.074344978 0.050022201 7.5924978e-05)
(-0.083600144 0.048594791 8.0386284e-05)
(-0.092504697 0.046248181 8.3183059e-05)
(-0.10091772 0.042999909 8.3952017e-05)
(-0.10869956 0.03886692 8.2254361e-05)
(-0.11571165 0.033872721 7.7624233e-05)
(-0.12181739 0.028054537 6.9621331e-05)
(-0.12688376 0.021469885 5.7886424e-05)
(-0.13078385 0.014202153 4.2197535e-05)
(-0.13340013 0.0063648624 2.2524002e-05)
(-0.13462851 -0.0018956326 -9.2634674e-07)
(-0.13438319 -0.010399278 -2.767846e-05)
(-0.13260229 -0.018933372 -5.6961157e-05)
(-0.12925425 -0.027256202 -8.7723934e-05)
(-0.12434441 -0.035103202 -0.00011866533)
(-0.11792177 -0.042196115 -0.00014829633)
(-0.11008504 -0.048255247 -0.00017503279)
(-0.10098722 -0.053014726 -0.00019731171)
(-0.090837725 -0.05624027 -0.00021372223)
(-0.07990096 -0.057748527 -0.00022313722)
(-0.068490411 -0.057426514 -0.00022482902)
(-0.05695768 -0.055249262 -0.00021855199)
(-0.045676412 -0.05129353 -0.00020457826)
(-0.03502191 -0.045745608 -0.00018367588)
(-0.025348477 -0.038901814 -0.0001570183)
(-0.0169668 -0.031161423 -0.00012606365)
(-0.010119091 -0.023012727 -9.2587735e-05)
(-0.0049553698 -0.015012114 -5.8523964e-05)
(-0.0015833127 -0.0077587094 -2.3366999e-05)
(-0.00017994211 -0.0018920331 1.4501498e-05)
(-0.00043654328 0.0064542086 -9.3274892e-05)
(-0.0027848139 0.018304462 -4.5315025e-05)
(-0.0075904484 0.028758812 -8.8562231e-06)
(-0.014078692 0.037669503 1.7378321e-05)
(-0.021815636 0.045008134 3.8663198e-05)
(-0.030511389 0.050812718 5.5935818e-05)
(-0.039904457 0.055159783 7.0124355e-05)
(-0.049766572 0.058141895 8.2166096e-05)
(-0.059901175 0.059850342 9.269715e-05)
(-0.070134317 0.060364094 0.00010206353)
(-0.080307273 0.059744488 0.0001103637)
(-0.090271003 0.058034694 0.00011747761)
(-0.099881896 0.055262946 0.00012310086)
(-0.10899874 0.05144845 0.00012678553)
(-0.11748089 0.04660887 0.00012798673)
(-0.12518748 0.040768492 0.00012611425)
(-0.13197766 0.033966292 0.00012058932)
(-0.13771162 0.026263373 0.00011090556)
(-0.14225256 0.017749385 9.669234e-05)
(-0.14546958 0.0085476503 7.7778109e-05)
(-0.14724156 -0.001181204 5.4249154e-05)
(-0.14746194 -0.011237337 2.6482825e-05)
(-0.14604495 -0.021382135 -4.791013e-06)
(-0.14293288 -0.031340763 -3.8512572e-05)
(-0.13810412 -0.040807981 -7.3301149e-05)
(-0.13158191 -0.049457405 -0.00010751198)
(-0.12344296 -0.056954626 -0.00013932824)
(-0.11382492 -0.062974368 -0.00016688517)
(-0.10293159 -0.067221328 -0.0001884188)
(-0.091034256 -0.069453791 -0.0002024252)
(-0.078467932 -0.069508323 -0.00020781155)
(-0.065621304 -0.067323147 -0.00020401776)
(-0.052919914 -0.062957326 -0.00019108906)
(-0.040803188 -0.05660277 -0.00016968195)
(-0.029697504 -0.048586763 -0.00014098446)
(-0.019988113 -0.039364054 -0.00010659163)
(-0.011987354 -0.029499058 -6.8554191e-05)
(-0.0059036746 -0.019638303 -2.917934e-05)
(-0.0018988461 -0.010476757 1.2112084e-05)
(-0.00021902595 -0.0027501934 5.4452883e-05)
(-0.00047241247 0.0079543983 -7.2148544e-05)
(-0.0030031706 0.02223144 -1.8486556e-05)
(-0.0081697892 0.034617145 2.056387e-05)
(-0.015129279 0.045036015 4.8624316e-05)
(-0.023409318 0.053524501 7.151948e-05)
(-0.032696463 0.060177387 9.0368928e-05)
(-0.042711229 0.065118473 0.00010624969)
(-0.053212981 0.068477865 0.00012021722)
(-0.063997829 0.070375293 0.00013297597)
(-0.074888292 0.070910112 0.00014489707)
(-0.085724788 0.070157257 0.00015606837)
(-0.096359142 0.068168078 0.00016632829)
(-0.10664946 0.064974921 0.00017530328)
(-0.11645628 0.060598293 0.0001824511)
(-0.12563999 0.055055503 0.00018710915)
(-0.13405931 0.048369836 0.00018854818)
(-0.14157066 0.04057956 0.00018603205)
(-0.1480286 0.031746261 0.00017888335)
(-0.15328702 0.021962195 0.00016655339)
(-0.15720142 0.011356446 0.00014869365)
(-0.15963242 9.9727934e-05 0.00012522494)
(-0.16045062 -0.011592388 9.6408486e-05)
(-0.15954297 -0.023458645 6.2872676e-05)
(-0.15682073 -0.035193238 2.5659235e-05)
(-0.15222913 -0.04645062 -1.3790942e-05)
(-0.14575824 -0.056854229 -5.3679802e-05)
(-0.13745432 -0.066009943 -9.1937215e-05)
(-0.12743078 -0.073524757 -0.00012634949)
(-0.11587723 -0.079030663 -0.00015472538)
(-0.10306465 -0.082212939 -0.00017508672)
(-0.089344922 -0.082841074 -0.00018586334)
(-0.075142714 -0.080799423 -0.00018606632)
(-0.060938713 -0.076113825 -0.00017541264)
(-0.047244212 -0.068969937 -0.00015437373)
(-0.034569331 -0.059719608 -0.0001241174)
(-0.023388116 -0.048873264 -8.6384044e-05)
(-0.014097862 -0.037078382 -4.3551478e-05)
(-0.0069786694 -0.025084387 1.61582e-06)
(-0.0022581085 -0.013699123 4.9743792e-05)
(-0.00026403906 -0.0037753346 9.7302255e-05)
(-0.0005031951 0.0095608551 -4.0322319e-05)
(-0.0031911022 0.026427097 1.9270454e-05)
(-0.0086696256 0.040864377 6.0599336e-05)
(-0.016037997 0.052877138 9.0344207e-05)
(-0.024791426 0.062574071 0.00011482729)
(-0.034596579 0.070113667 0.00013534321)
(-0.04515882 0.075673174 0.00015310871)
(-0.05622735 0.079425475 0.00016928608)
(-0.06759275 0.081522956 0.00018463839)
(-0.079075658 0.08208856 0.0001995537)
(-0.090517326 0.081213068 0.0002141023)
(-0.10177225 0.078957352 0.00022807478)
(-0.11270219 0.075358371 0.00024102198)
(-0.12317153 0.070437623 0.00025229956)
(-0.13304383 0.064210938 0.00026111684)
(-0.14217945 0.05669867 0.00026659109)
(-0.15043416 0.047935632 0.00026780881)
(-0.15765857 0.037980359 0.00026389469)
(-0.16369858 0.026923472 0.00025408761)
(-0.16839691 0.014895015 0.00023782104)
(-0.17159594 0.0020706352 0.0002148052)
(-0.17314233 -0.011323663 0.00018511635)
(-0.17289337 -0.025008539 0.00014924251)
(-0.17072547 -0.038650895 0.00010815403)
(-0.16654512 -0.051866805 6.3312532e-05)
(-0.1603017 -0.064228919 1.6649662e-05)
(-0.15200184 -0.075279467 -2.9504172e-05)
(-0.14172429 -0.084549806 -7.2546422e-05)
(-0.12963349 -0.091586979 -0.00010978262)
(-0.1159899 -0.095986855 -0.0001386502)
(-0.10115413 -0.097432147 -0.00015696532)
(-0.085582502 -0.095732063 -0.00016316214)
(-0.069811503 -0.09085878 -0.00015648872)
(-0.054430722 -0.082974975 -0.00013711899)
(-0.040045933 -0.072446747 -0.0001061328)
(-0.027236086 -0.059838185 -6.540233e-05)
(-0.016501376 -0.045886663 -1.7677639e-05)
(-0.0082105994 -0.031459141 3.3730712e-05)
(-0.0026732726 -0.017496527 8.9474954e-05)
(-0.00031716584 -0.0049926649 0.00014319366)
(-0.00052832853 0.011256924 3.0334735e-06)
(-0.003345592 0.03085014 6.8800065e-05)
(-0.00908235 0.047442174 0.00011207138)
(-0.016791235 0.061123635 0.00014334945)
(-0.025941187 0.072081394 0.00016939416)
(-0.036182688 0.080543361 0.00019166696)
(-0.047208796 0.086745509 0.00021151552)
(-0.058760717 0.090908158 0.00023019924)
(-0.070625229 0.09322028 0.00024853258)
(-0.082622648 0.09383154 0.0002669156)
(-0.094596631 0.092850874 0.00028539755)
(-0.10640606 0.090350169 0.00030371839)
(-0.11791825 0.086371656 0.00032135025)
(-0.12900352 0.080937652 0.00033754192)
(-0.13953089 0.074061475 0.0003513666)
(-0.1493648 0.065758619 0.00036177505)
(-0.15836282 0.056057604 0.00036765668)
(-0.16637408 0.045010166 0.00036791013)
(-0.1732388 0.032700663 0.00036152393)
(-0.17878886 0.019254694 0.00034766588)
(-0.18284985 0.0048468363 0.00032577908)
(-0.18524493 -0.01029269 0.00029568342)
(-0.18580097 -0.025872709 0.00025766062)
(-0.18435714 -0.041538273 0.00021253865)
(-0.18077662 -0.056871015 0.00016173833)
(-0.17496119 -0.071394294 0.00010728195)
(-0.16686842 -0.084584688 5.174596e-05)
(-0.15653058 -0.095891377 -1.8538021e-06)
(-0.14407363 -0.10476458 -5.0249392e-05)
(-0.1297337 -0.11069327 -9.0176105e-05)
(-0.11386783 -0.11325088 -0.00011867715)
(-0.096955101 -0.11214562 -0.00013342397)
(-0.079584601 -0.10726968 -0.00013300686)
(-0.062428031 -0.098739602 -0.00011713812)
(-0.046198105 -0.086919688 -8.6695702e-05)
(-0.031596317 -0.072421747 -4.3636825e-05)
(-0.019247119 -0.056078533 8.8845437e-06)
(-0.0096295709 -0.038890422 6.6917486e-05)
(-0.0031566325 -0.021954645 0.00013112206)
(-0.00038063106 -0.0064338386 0.00019214954)
(-0.00054726255 0.013024338 5.8586303e-05)
(-0.0034638044 0.035455618 0.00013077752)
(-0.0094009396 0.054287055 0.00017563681)
(-0.017376487 0.069699863 0.00020828991)
(-0.026839404 0.081963405 0.00023586664)
(-0.037427581 0.091379404 0.00025998554)
(-0.048824468 0.098246885 0.00028211671)
(-0.060765276 0.10283767 0.00030360847)
(-0.073034531 0.10538094 0.00032532227)
(-0.085453609 0.10605614 0.00034766873)
(-0.09786999 0.10499276 0.00037067658)
(-0.11014851 0.10227536 0.00039403651)
(-0.12216388 0.097952358 0.00041714293)
(-0.13379447 0.092046942 0.00043913689)
(-0.14491715 0.084569115 0.00045895098)
(-0.15540319 0.075527782 0.00047535939)
(-0.16511492 0.064942465 0.00048703669)
(-0.17390325 0.05285438 0.00049262805)
(-0.18160604 0.039336888 0.00049083271)
(-0.18804764 0.024505407 0.00048050081)
(-0.19303982 0.0085268323 0.00046074261)
(-0.19638466 -0.0083716571 0.00043104724)
(-0.19787981 -0.025894738 0.00039140014)
(-0.19732675 -0.043673029 0.00034239621)
(-0.19454264 -0.06126013 0.00028532833)
(-0.18937598 -0.078134427 0.00022223692)
(-0.18172624 -0.09370775 0.0001559001)
(-0.17156675 -0.10734312 8.9745147e-05)
(-0.15896947 -0.1183837 2.7666579e-05)
(-0.14412886 -0.12619414 -2.6253237e-05)
(-0.12738111 -0.13021401 -6.8108127e-05)
(-0.10921359 -0.13002011 -9.4583055e-05)
(-0.090259191 -0.1253915 -0.0001033658)
(-0.071271288 -0.11636735 -9.3477171e-05)
(-0.053078779 -0.10328601 -6.541536e-05)
(-0.036524116 -0.086794802 -2.1126577e-05)
(-0.022380769 -0.067824119 3.582406e-05)
(-0.011264822 -0.04752388 0.00010074883)
(-0.0037205 -0.02717383 0.00017429569)
(-0.00045673236 -0.0081369864 0.00024399305)
(-0.00055953511 0.014843393 0.00012681691)
(-0.0035434436 0.040195393 0.00020568773)
(-0.0096197638 0.061331059 0.00025176697)
(-0.01778363 0.078524468 0.00028563015)
(-0.027470196 0.092129981 0.00031470193)
(-0.03830808 0.10252613 0.00034074663)
(-0.049973525 0.11007835 0.00036534866)
(-0.062197479 0.11511342 0.00038993913)
(-0.074763516 0.11790406 0.00041542511)
(-0.087495226 0.11866251 0.00044223033)
(-0.10024513 0.1175413 0.00047036788)
(-0.11288544 0.11463959 0.0004994852)
(-0.12529998 0.11001315 0.00052890474)
(-0.13737724 0.10368647 0.00055766363)
(-0.14900448 0.095665819 0.00058455401)
(-0.16006276 0.085952156 0.00060816784)
(-0.17042265 0.074553665 0.00062695115)
(-0.17994073 0.061497639 0.00063927138)
(-0.18845689 0.046841896 0.00064350137)
(-0.1957926 0.030685946 0.00063812142)
(-0.20175053 0.013182072 0.00062184001)
(-0.20611606 -0.0054536493 0.00059373118)
(-0.20866126 -0.024930708 0.00055338263)
(-0.20915198 -0.044874728 0.00050104473)
(-0.20735905 -0.064820442 0.00043776728)
(-0.2030742 -0.084209033 0.00036550176)
(-0.19613121 -0.10239239 0.00028714469)
(-0.18643227 -0.11864734 0.0002064938)
(-0.17397845 -0.13220299 0.00012809076)
(-0.15890194 -0.142284 5.6933274e-05)
(-0.1414956 -0.14817069 -1.9419481e-06)
(-0.1222339 -0.14927413 -4.3977211e-05)
(-0.10177751 -0.14521983 -6.5653402e-05)
(-0.080954626 -0.13592839 -6.4990654e-05)
(-0.060715492 -0.1216773 -4.1844949e-05)
(-0.042061298 -0.10312775 2.0164696e-06)
(-0.025942267 -0.081304146 6.2652098e-05)
(-0.013143967 -0.057520717 0.00013454726)
(-0.004377115 -0.033268453 0.00021831531)
(-0.00054787815 -0.010146731 0.00029826127)
(-0.00056485144 0.016693327 0.0002079969)
(-0.0035831504 0.045019049 0.00029380718)
(-0.0097355116 0.068502921 0.00034073102)
(-0.01800644 0.087511614 0.00037563059)
(-0.027823098 0.10248503 0.00040614443)
(-0.038807691 0.11388008 0.00043416991)
(-0.05063125 0.12213098 0.00046139876)
(-0.063021834 0.12762236 0.00048934126)
(-0.075763077 0.13067359 0.00051895261)
(-0.088681692 0.13153264 0.00055067657)
(-0.10163625 0.13037778 0.00058452029)
(-0.11450759 0.1273249 0.00062009896)
(-0.12719022 0.1224387 0.00065667391)
(-0.13958479 0.11574586 0.00069318755)
(-0.15159151 0.10724896 0.00072829718)
(-0.16310433 0.096940238 0.00076041263)
(-0.17400587 0.084814793 0.00078774341)
(-0.18416293 0.070883177 0.00080836081)
(-0.19342264 0.055183648 0.00082027932)
(-0.20160947 0.03779444 0.00082156113)
(-0.20852334 0.018846378 0.00081044563)
(-0.21393947 -0.0014640052 0.00078550409)
(-0.21761041 -0.022860985 0.0007458173)
(-0.21927138 -0.044976459 0.00069116288)
(-0.21864976 -0.067338294 0.00062220632)
(-0.21548005 -0.089362094 0.00054066657)
(-0.2095254 -0.11034942 0.00044942913)
(-0.20060623 -0.12949617 0.00035256936)
(-0.18863589 -0.14591564 0.00025524599)
(-0.17366134 -0.15868066 0.00016343049)
(-0.1559048 -0.16688832 8.3455154e-05)
(-0.1357993 -0.16974713 2.1393962e-05)
(-0.11400835 -0.16668158 -1.7666965e-05)
(-0.091419175 -0.15744115 -3.0348735e-05)
(-0.069101742 -0.14219373 -1.5495634e-05)
(-0.048230887 -0.12157932 2.5572662e-05)
(-0.02996319 -0.096703045 8.8641472e-05)
(-0.01529207 -0.069054304 0.00016730148)
(-0.0051385198 -0.040365827 0.0002621092)
(-0.00065662396 -0.012514172 0.0003541036)
(-0.0005631655 0.018552919 0.00030217209)
(-0.003582928 0.049875275 0.00039519288)
(-0.0097482118 0.075729859 0.0004425867)
(-0.018044288 0.096572846 0.00047833655)
(-0.027895422 0.1129282 0.00051021002)
(-0.038919619 0.12533136 0.00054022429)
(-0.050784166 0.13428684 0.00057017341)
(-0.063215216 0.14023954 0.00060164705)
(-0.075997169 0.14355835 0.00063565576)
(-0.088960561 0.14453002 0.00067267545)
(-0.10197084 0.14336136 0.00071272215)
(-0.11491857 0.14018748 0.00075539497)
(-0.12771042 0.135084 0.00079991026)
(-0.14026114 0.12808113 0.00084513035)
(-0.15248634 0.11917846 0.00088958921)
(-0.1642961 0.10835942 0.00093152106)
(-0.17558906 0.095605064 0.0009688983)