/*--------------------------------*- C++ -*----------------------------------*\
  =========                 |
  \\      /  F ield         | OpenFOAM: The Open Source CFD Toolbox
   \\    /   O peration     | Website:  https://openfoam.org
    \\  /    A nd           | Version:  7
     \\/     M anipulation  |
\*---------------------------------------------------------------------------*/
FoamFile
{
    version     2.0;
    format      ascii;
    class       volScalarField;
    location    "8.5";
    object      p;
}
// * * * * * * * * * * * * * * * * * * * * * * * * * * * * * * * * * * * * * //

dimensions      [1 -1 -2 0 0 0 0];

internalField   nonuniform List<scalar> 
19968
(
1
1
1
1
1
1
1
1
1
1
1
1
1
1
1
1
1
1
1
1
1
1
1
1
1
1
1
1
1
1
1
1
1
1
1
1
1
1
1
1
1
1
1
1
1
1
1
1
1.55836
8.06157
10.4453
10.4475
10.5196
10.5757
10.6346
10.6915
10.7477
10.8042
10.8607
10.9167
10.9705
11.0204
11.0673
11.1141
11.1624
11.2108
11.2589
11.3067
11.3528
11.3958
11.4352
11.4725
11.5096
11.5478
11.5874
11.6269
11.6645
11.699
11.7305
11.7598
11.7886
11.8175
11.8461
11.873
11.897
11.9176
11.9354
11.9506
11.9641
11.9767
11.9895
12.0031
12.0176
12.0318
12.0435
12.0534
1
1
1
1
1
1
1
1
1
1
1
1
1
1
1
1
1
1
1
1
1
1
1
1
1
1
1
1
1
1
1
1
1
1
1
1
1
1
1
1
1
1
1
1
1
1
1
1
1.52801
7.98878
10.4178
10.4538
10.5228
10.5772
10.6342
10.6902
10.7461
10.8028
10.8595
10.915
10.9682
11.0174
11.0643
11.1106
11.1583
11.2061
11.2538
11.3013
11.3474
11.3905
11.4305
11.4685
11.5061
11.5447
11.5842
11.6236
11.661
11.6955
11.7268
11.7559
11.7843
11.8127
11.8407
11.8671
11.8906
11.9111
11.929
11.9448
11.9589
11.9721
11.9851
11.9982
12.0117
12.0247
12.0353
12.0444
1
1
1
1
1
1
1
1
1
1
1
1
1
1
1
1
1
1
1
1
1
1
1
1
1
1
1
1
1
1
1
1
1
1
1
1
1
1
1
1
1
1
1
1
1
1
1
1
1.45681
7.83132
10.406
10.4511
10.5168
10.571
10.6276
10.6835
10.7397
10.7972
10.8541
10.9093
10.9623
11.0109
11.0579
11.1035
11.1504
11.1972
11.2444
11.2914
11.3373
11.3807
11.4213
11.4601
11.4986
11.5376
11.5773
11.6165
11.6539
11.6883
11.7194
11.7482
11.7759
11.8036
11.8309
11.8567
11.8798
11.9001
11.9182
11.9348
11.9501
11.9645
11.9781
11.9911
12.0035
12.0147
12.0234
12.0312
1
1
1
1
1
1
1
1
1
1
1
1
1
1
1
1
1
1
1
1
1
1
1
1
1
1
1
1
1
1
1
1
1
1
1
1
1
1
1
1
1
1
1
1
1
1
1
1
1.35492
7.58009
10.3979
10.4476
10.5084
10.5619
10.6179
10.6743
10.7312
10.7896
10.8466
10.9011
10.9535
11.0016
11.0486
11.0935
11.1394
11.1847
11.2309
11.2773
11.3232
11.367
11.4084
11.4483
11.4877
11.5273
11.567
11.6061
11.6433
11.6775
11.7083
11.7365
11.7633
11.7898
11.8158
11.8403
11.8625
11.8824
11.9007
11.9181
11.9349
11.9507
11.9651
11.978
11.9892
11.9985
12.0052
12.0116
1
1
1
1
1
1
1
1
1
1
1
1
1
1
1
1
1
1
1
1
1
1
1
1
1
1
1
1
1
1
1
1
1
1
1
1
1
1
1
1
1
1
1
1
1
1
1
1
1.2282
7.246
10.3931
10.4432
10.4959
10.5477
10.6024
10.659
10.7168
10.7764
10.8343
10.8892
10.9419
10.9904
11.038
11.0825
11.1271
11.1705
11.2152
11.2606
11.3062
11.3505
11.3928
11.4335
11.4736
11.5137
11.5536
11.5927
11.6298
11.6638
11.6944
11.722
11.748
11.7733
11.7982
11.8218
11.8435
11.8631
11.8816
11.8995
11.9169
11.9329
11.9468
11.9582
11.9669
11.9732
11.977
11.9816
1
1
1
1
1
1
1
1
1
1
1
1
1
1
1
1
1
1
1
1
1
1
1
1
1
1
1
1
1
1
1
1
1
1
1
1
1
1
1
1
1
1
1
1
1
1
1
1
1.03118
6.755
10.375
10.4292
10.4811
10.5362
10.5929
10.6512
10.7102
10.7699
10.8271
10.8806
10.9323
10.9808
11.0285
11.0726
11.1153
11.1557
11.1977
11.241
11.2856
11.3294
11.3714
11.4118
11.4513
11.4907
11.5301
11.5686
11.6053
11.6388
11.6688
11.6956
11.7206
11.7448
11.7686
11.7916
11.8131
11.8333
11.8528
11.8721
11.8908
11.9078
11.9219
11.9325
11.9395
11.9437
11.9455
11.9486
1
1
1
1
1
1
1
1
1
1
1
1
1
1
1
1
1
1
1
1
1
1
1
1
1
1
1
1
1
1
1
1
1
1
1
1
1
1
1
1
1
1
1
1
1
1
1
1
1.00029
6.05537
10.2919
10.3855
10.437
10.496
10.5536
10.6121
10.6709
10.7296
10.7864
10.8402
10.8925
10.9426
10.9915
11.0368
11.0797
11.1195
11.1608
11.2037
11.248
11.2913
11.3326
11.3722
11.4113
11.4509
11.4908
11.5299
11.5668
11.6002
11.6299
11.6563
11.6807
11.7043
11.7276
11.7505
11.7725
11.7937
11.8144
11.8346
11.8538
11.8707
11.8841
11.8935
11.899
11.9017
11.9019
11.904
1
1
1
1
1
1
1
1
1
1
1
1
1
1
1
1
1
1
1
1
1
1
1
1
1
1
1
1
1
1
1
1
1
1
1
1
1
1
1
1
1
1
1
1
1
1
1
1
1
5.12329
10.155
10.3579
10.4047
10.4684
10.5277
10.5875
10.6465
10.7034
10.758
10.8109
10.8628
10.9134
10.9625
11.0078
11.0496
11.088
11.128
11.17
11.2131
11.255
11.2943
11.3321
11.3699
11.4089
11.4486
11.4876
11.5241
11.5568
11.5857
11.6115
11.6352
11.6581
11.6807
11.7033
11.7255
11.7473
11.7687
11.7892
11.808
11.8239
11.8359
11.8439
11.8482
11.85
11.8494
11.8508
1
1
1
1
1
1
1
1
1
1
1
1
1
1
1
1
1
1
1
1
1
1
1
1
1
1
1
1
1
1
1
1
1
1
1
1
1
1
1
1
1
1
1
1
1
1
1
1
1
4.03624
9.872
10.3359
10.3774
10.4424
10.4998
10.5581
10.6161
10.6719
10.7249
10.7771
10.8285
10.879
10.9271
10.9713
11.0115
11.0481
11.0861
11.1262
11.167
11.2067
11.2435
11.2792
11.3155
11.3534
11.3921
11.4299
11.4653
11.4972
11.5255
11.5508
11.5741
11.5962
11.618
11.6398
11.6619
11.6841
11.706
11.7266
11.7447
11.7594
11.7702
11.7775
11.7814
11.7834
11.7829
11.7842
1
1
1
1
1
1
1
1
1
1
1
1
1
1
1
1
1
1
1
1
1
1
1
1
1
1
1
1
1
1
1
1
1
1
1
1
1
1
1
1
1
1
1
1
1
1
1
1
1
2.89205
9.33976
10.3177
10.3737
10.4349
10.4847
10.5373
10.5921
10.6462
10.6968
10.7465
10.7961
10.8445
10.8905
10.9329
10.9714
11.0062
11.0417
11.0793
11.1174
11.155
11.19
11.2236
11.2574
11.2924
11.3276
11.3618
11.394
11.4238
11.4509
11.4756
11.4983
11.5196
11.5402
11.5612
11.583
11.6054
11.6274
11.6471
11.6634
11.6756
11.6843
11.6903
11.6938
11.696
11.6959
11.6972
1
1
1
1
1
1
1
1
1
1
1
1
1
1
1
1
1
1
1
1
1
1
1
1
1
1
1
1
1
1
1
1
1
1
1
1
1
1
1
1
1
1
1
1
1
1
1
1
1
1.838
8.38474
10.3538
10.3402
10.3957
10.4427
10.4952
10.5502
10.6047
10.6544
10.7025
10.7514
10.7994
10.8447
10.8864
10.924
10.9575
10.9909
11.0264
11.0625
11.0988
11.1334
11.1662
11.1983
11.23
11.261
11.2907
11.3188
11.3454
11.3699
11.3921
11.4117
11.4292
11.4456
11.4624
11.4807
11.5004
11.5199
11.5373
11.5513
11.5619
11.5699
11.5762
11.5809
11.5847
11.5859
11.5878
1
1
1
1
1
1
1
1
1
1
1
1
1
1
1
1
1
1
1
1
1
1
1
1
1
1
1
1
1
1
1
1
1
1
1
1
1
1
1
1
1
1
1
1
1
1
1
1
1
1.0322
6.71592
10.3626
10.3759
10.4002
10.4367
10.4794
10.5277
10.578
10.6244
10.6674
10.7109
10.7534
10.7941
10.8321
10.8665
10.8968
10.9259
10.9571
10.9897
11.023
11.0562
11.0874
11.117
11.1451
11.1717
11.197
11.2212
11.2447
11.267
11.2871
11.3041
11.3184
11.3314
11.345
11.3607
11.378
11.395
11.4091
11.4188
11.4242
11.4269
11.428
11.4285
11.4293
11.429
11.4299
1
1
1
1
1
1
1
1
1
1
1
1
1
1
1
1
1
1
1
1
1
1
1
1
1
1
1
1
1
1
1
1
1
1
1
1
1
1
1
1
1
1
1
1
1
1
1
1
1
1.00006
4.61678
9.92186
10.2035
10.2638
10.3266
10.3796
10.4307
10.4807
10.5268
10.5681
10.6087
10.6492
10.6883
10.7259
10.761
10.7927
10.8222
10.8523
10.8836
10.9149
10.9465
10.9768
11.0052
11.0314
11.0555
11.0776
11.0985
11.1186
11.1374
11.1538
11.1664
11.1755
11.1825
11.1894
11.1971
11.2056
11.2136
11.2188
11.2206
11.2202
11.22
11.2212
11.2228
11.2256
11.2267
11.2286
1
1
1
1
1
1
1
1
1
1
1
1
1
1
1
1
1
1
1
1
1
1
1
1
1
1
1
1
1
1
1
1
1
1
1
1
1
1
1
1
1
1
1
1
1
1
1
1
1
1
2.40653
8.79226
10.1513
10.1991
10.2702
10.3232
10.3737
10.4222
10.4672
10.5064
10.5431
10.5791
10.6141
10.6488
10.6822
10.713
10.7413
10.7682
10.7947
10.8206
10.846
10.8708
10.894
10.9154
10.9346
10.9516
10.9666
10.9801
10.992
11.0012
11.0066
11.0087
11.0083
11.0066
11.0047
11.0037
11.0031
11.0017
10.9984
10.9927
10.9834
10.9708
10.9517
10.9286
10.9038
10.8825
1
1
1
1
1
1
1
1
1
1
1
1
1
1
1
1
1
1
1
1
1
1
1
1
1
1
1
1
1
1
1
1
1
1
1
1
1
1
1
1
1
1
1
1
1
1
1
1
1
1
1.06029
6.41966
10.2212
10.2286
10.2441
10.2748
10.311
10.3501
10.389
10.4247
10.4565
10.4862
10.5148
10.5438
10.5732
10.6021
10.629
10.6534
10.675
10.6946
10.7128
10.7305
10.7473
10.7629
10.7771
10.7894
10.7986
10.8045
10.8079
10.8086
10.8056
10.799
10.7883
10.7734
10.7551
10.7341
10.71
10.6826
10.6504
10.6123
10.5677
10.5189
10.4753
10.436
10.4156
10.4064
1
1
1
1
1
1
1
1
1
1
1
1
1
1
1
1
1
1
1
1
1
1
1
1
1
1
1
1
1
1
1
1
1
1
1
1
1
1
1
1
1
1
1
1
1
1
1
1
1
1
1.00009
3.28896
9.25825
10.0798
10.1057
10.1497
10.1881
10.2285
10.2691
10.3074
10.3416
10.3717
10.3978
10.4219
10.4463
10.4722
10.4993
10.5249
10.5464
10.5621
10.5726
10.58
10.5863
10.5921
10.5983
10.6038
10.6059
10.6032
10.5966
10.586
10.5711
10.5513
10.5254
10.4931
10.4537
10.4069
10.3534
10.2956
10.2353
10.1733
10.1077
10.0376
9.95079
9.86516
9.74486
9.83879
1
1
1
1
1
1
1
1
1
1
1
1
1
1
1
1
1
1
1
1
1
1
1
1
1
1
1
1
1
1
1
1
1
1
1
1
1
1
1
1
1
1
1
1
1
1
1
1
1
1
1
1.20914
7.2521
10.1406
10.1052
10.1235
10.1439
10.1694
10.1983
10.2286
10.2573
10.2819
10.3013
10.3172
10.3332
10.3526
10.3762
10.4009
10.4217
10.4346
10.4386
10.4376
10.4343
10.4309
10.4278
10.4244
10.4184
10.4074
10.3913
10.3696
10.3418
10.3071
10.2647
10.2138
10.1525
10.0785
9.98957
9.88668
9.76715
9.62751
9.44501
9.19794
8.82494
8.26746
7.34473
5.4792
1
1
1
1
1
1
1
1
1
1
1
1
1
1
1
1
1
1
1
1
1
1
1
1
1
1
1
1
1
1
1
1
1
1
1
1
1
1
1
1
1
1
1
1
1
1
1
1
1
1
1
1.00145
4.60188
9.7002
9.94006
9.98813
10.0209
10.0568
10.0909
10.1231
10.1524
10.1777
10.1985
10.2148
10.2278
10.2402
10.2551
10.2737
10.2925
10.3062
10.3102
10.3066
10.2976
10.2866
10.2749
10.2627
10.2483
10.2296
10.2057
10.1754
10.1372
10.0895
10.0312
9.96231
9.88045
9.78274
9.66198
9.51782
9.34007
9.12998
8.85419
8.50258
7.99141
7.34498
6.10912
4.50222
1
1
1
1
1
1
1
1
1
1
1
1
1
1
1
1
1
1
1
1
1
1
1
1
1
1
1
1
1
1
1
1
1
1
1
1
1
1
1
1
1
1
1
1
1
1
1
1
1
1
1
0.999996
1.95
8.25983
9.89298
9.91987
9.95492
9.98709
10.0178
10.0454
10.0706
10.0937
10.1143
10.1307
10.1414
10.1479
10.154
10.1645
10.1769
10.1856
10.1855
10.1773
10.1626
10.1447
10.125
10.1033
10.0786
10.0496
10.0157
9.97577
9.92694
9.86683
9.7924
9.70495
9.60109
9.48017
9.33179
9.15396
8.93395
8.66984
8.34346
7.92903
7.40001
6.64707
5.62207
4.49734
1
1
1
1
1
1
1
1
1
1
1
1
1
1
1
1
1
1
1
1
1
1
1
1
1
1
1
1
1
1
1
1
1
1
1
1
1
1
1
1
1
1
1
1
1
1
1
1
1
1
1
0.999999
1.03243
5.42969
9.74346
9.84474
9.87422
9.90538
9.93609
9.96031
9.98167
10.0014
10.0195
10.033
10.0422
10.0462
10.0484
10.0527
10.0577
10.0586
10.0522
10.0385
10.0189
9.99588
9.97015
9.94079
9.90636
9.86688
9.82175
9.77094
9.71088
9.63961
9.55206
9.44918
9.32678
9.18547
9.0164
8.81535
8.5728
8.28182
7.93422
7.5038
6.98248
6.31448
5.5506
4.69638
1
1
1
1
1
1
1
1
1
1
1
1
1
1
1
1
1
1
1
1
1
1
1
1
1
1
1
1
1
1
1
1
1
1
1
1
1
1
1
1
1
1
1
1
1
1
1
1
1
1
1
1
1
2.24309
8.47604
9.77686
9.79835
9.83368
9.8596
9.88311
9.90236
9.91996
9.93431
9.9374
9.94041
9.94269
9.94472
9.94669
9.94633
9.94033
9.92649
9.90544
9.87887
9.84927
9.81772
9.78281
9.74138
9.69304
9.63628
9.5724
9.49891
9.41564
9.31748
9.20364
9.06938
8.91364
8.73082
8.51642
8.26542
7.96942
7.62887
7.21046
6.73971
6.1784
5.58397
4.93139
1
1
1
1
1
1
1
1
1
1
1
1
1
1
1
1
1
1
1
1
1
1
1
1
1
1
1
1
1
1
1
1
1
1
1
1
1
1
1
1
1
1
1
1
1
1
1
1
1
1
1
1
0.999999
1.05013
5.52165
9.63382
9.74198
9.76988
9.78703
9.80484
9.81996
9.8395
9.85599
9.85607
9.85113
9.84726
9.84304
9.83864
9.83133
9.81941
9.80056
9.77497
9.74322
9.70757
9.66908
9.62832
9.58116
9.5264
9.46088
9.38521
9.29838
9.20175
9.09298
8.97063
8.82998
8.66768
8.47891
8.26044
8.01092
7.72117
7.40079
7.01632
6.60428
6.13569
5.65518
5.12953
1
1
1
1
1
1
1
1
1
1
1
1
1
1
1
1
1
1
1
1
1
1
1
1
1
1
1
1
1
1
1
1
1
1
1
1
1
1
1
1
1
1
1
1
1
1
1
1
1
1
1
1
1
1.00005
2.08103
8.2501
9.67104
9.68681
9.70664
9.71664
9.72678
9.74121
9.7517
9.75183
9.7489
9.74659
9.73935
9.72866
9.71306
9.69428
9.67061
9.64163
9.60609
9.56581
9.52099
9.4742
9.42236
9.36365
9.29371
9.21098
9.11463
9.00608
8.88669
8.75707
8.61335
8.4505
8.2632
8.04858
7.80585
7.52912
7.22851
6.88611
6.52875
6.13421
5.72451
5.28322
1
1
1
1
1
1
1
1
1
1
1
1
1
1
1
1
1
1
1
1
1
1
1
1
1
1
1
1
1
1
1
1
1
1
1
1
1
1
1
1
1
1
1
1
1
1
1
1
1
1
1
1
1
1
1.03597
4.94286
9.3677
9.61198
9.60945
9.62663
9.64237
9.66027
9.66621
9.66401
9.65943
9.65454
9.6439
9.62753
9.60438
9.57899
9.55077
9.5175
9.47855
9.43446
9.38372
9.32974
9.27088
9.20626
9.13268
9.04733
8.94733
8.83211
8.70413
8.56723
8.41981
8.25725
8.07552
7.8694
7.64054
7.38201
7.09887
6.79618
6.48679
6.14572
5.77936
5.41337
1
1
1
1
1
1
1
1
1
1
1
1
1
1
1
1
1
1
1
1
1
1
1
1
1
1
1
1
1
1
1
1
1
1
1
1
1
1
1
1
1
1
1
1
1
1
1
1
1
1
1
1
1
1
1.00003
1.52799
7.553
9.64156
9.58995
9.58083
9.56838
9.56954
9.56592
9.55941
9.55184
9.54305
9.53027
9.51183
9.48596
9.4577
9.42682
9.38817
9.34626
9.3
9.2455
9.18734
9.12261
9.05148
8.97374
8.88774
8.78931
8.67511
8.54493
8.40479
8.25515
8.09255
7.91679
7.71886
7.50712
7.26556
7.00534
6.73787
6.46184
6.15288
5.83172
5.52332
1
1
1
1
1
1
1
1
1
1
1
1
1
1
1
1
1
1
1
1
1
1
1
1
1
1
1
1
1
1
1
1
1
1
1
1
1
1
1
1
1
1
1
1
1
1
1
1
1
1
1
1
1
1
1
1.00837
3.90442
8.96866
9.41536
9.44329
9.46281
9.46339
9.45212
9.43999
9.43123
9.42282
9.41077
9.39373
9.36915
9.34183
9.31003
9.26623
9.22014
9.17206
9.11523
9.05526
8.98638
8.90927
8.82588
8.73648
8.63883
8.52861
8.40219
8.26391
8.11554
7.95275
7.78135
7.5896
7.39265
7.16822
6.93767
6.69603
6.44151
6.17022
5.89191
5.61697
1
1
1
1
1
1
1
1
1
1
1
1
1
1
1
1
1
1
1
1
1
1
1
1
1
1
1
1
1
1
1
1
1
1
1
1
1
1
1
1
1
1
1
1
1
1
1
1
1
1
1
1
1
1
1
1
1.22404
6.22796
9.39674
9.38562
9.3907
9.37472
9.36221
9.34695
9.33532
9.32436
9.31056
9.29323
9.26876
9.24034
9.20615
9.15772
9.10618
9.05369
8.99407
8.93143
8.85917
8.77856
8.69105
8.59668
8.49781
8.39084
8.27287
8.13888
7.99575
7.83553
7.66867
7.48279
7.29716
7.0911
6.88507
6.65942
6.42896
6.19668
5.9457
5.6888
1
1
1
1
1
1
1
1
1
1
1
1
1
1
1
1
1
1
1
1
1
1
1
1
1
1
1
1
1
1
1
1
1
1
1
1
1
1
1
1
1
1
1
1
1
1
1
1
1
1
1
1
1
1
1
1
1.00154
2.16103
7.99976
9.33153
9.25924
9.26907
9.26626
9.25585
9.24243
9.22839
9.21008
9.18859
9.16217
9.13124
9.09711
9.04716
8.99273
8.93606
8.87436
8.80979
8.73657
8.65594
8.5677
8.47225
8.36932
8.26371
8.14832
8.01956
7.88336
7.7316
7.57155
7.39524
7.22065
7.03053
6.83909
6.62998
6.42627
6.21748
5.98355
5.74747
1
1
1
1
1
1
1
1
1
1
1
1
1
1
1
1
1
1
1
1
1
1
1
1
1
1
1
1
1
1
1
1
1
1
1
1
1
1
1
1
1
1
1
1
1
1
1
1
1
1
1
1
1
1
1
1
1
1.03832
4.16091
8.89503
9.15905
9.17232
9.1866
9.18048
9.16734
9.14838
9.12385
9.09612
9.06375
9.02668
8.98989
8.94152
8.88556
8.82645
8.76401
8.69763
8.62443
8.54398
8.45805
8.36453
8.26031
8.15037
8.03539
7.91104
7.78051
7.63916
7.4875
7.32463
7.15896
6.98242
6.8018
6.61204
6.42694
6.22717
6.01278
5.80111
1
1
1
1
1
1
1
1
1
1
1
1
1
1
1
1
1
1
1
1
1
1
1
1
1
1
1
1
1
1
1
1
1
1
1
1
1
1
1
1
1
1
1
1
1
1
1
1
1
1
1
1
1
1
1
1
1
1.00007
1.25559
5.72611
9.03563
9.15642
9.12776
9.12148
9.10588
9.0805
9.05031
9.01612
8.97771
8.93352
8.89054
8.84328
8.78749
8.72741
8.66425
8.59612
8.52173
8.4402
8.35497
8.26316
8.16104
8.05222
7.93662
7.81321
7.6867
7.55335
7.41103
7.26141
7.10494
6.94062
6.77149
6.60039
6.42287
6.23404
6.04021
5.8471
1
1
1
1
1
1
1
1
1
1
1
1
1
1
1
1
1
1
1
1
1
1
1
1
1
1
1
1
1
1
1
1
1
1
1
1
1
1
1
1
1
1
1
1
1
1
1
1
1
1
1
1
1
1
1
1
1
1
1.00205
1.62221
7.28786
9.16967
9.10303
9.06611
9.02619
8.99114
8.95658
8.92233
8.88351
8.8365
8.7906
8.74298
8.6889
8.63013
8.56773
8.50182
8.42765
8.34631
8.25941
8.16975
8.06959
7.96502
7.85273
7.73342
7.61092
7.48201
7.34632
7.20624
7.05859
6.90484
6.74776
6.58933
6.41931
6.24284
6.06553
5.88579
1
1
1
1
1
1
1
1
1
1
1
1
1
1
1
1
1
1
1
1
1
1
1
1
1
1
1
1
1
1
1
1
1
1
1
1
1
1
1
1
1
1
1
1
1
1
1
1
1
1
1
1
1
1
1
1
1
1
1
1.01118
3.05814
8.32234
8.95831
8.89743
8.87149
8.84962
8.82908
8.80455
8.77384
8.73454
8.69443
8.64792
8.5956
8.53938
8.47715
8.41115
8.34019
8.25916
8.17246
8.0815
7.98785
7.88732
7.78027
7.66647
7.5484
7.42314
7.29216
7.1577
7.01647
6.87187
6.72564
6.57494
6.4144
6.24931
6.08569
5.91632
1
1
1
1
1
1
1
1
1
1
1
1
1
1
1
1
1
1
1
1
1
1
1
1
1
1
1
1
1
1
1
1
1
1
1
1
1
1
1
1
1
1
1
1
1
1
1
1
1
1
1
1
1
1
1
1
1
1
1
1.00002
1.11008
4.37779
8.60712
8.79365
8.77083
8.77047
8.75901
8.7391
8.71046
8.67364
8.63169
8.58197
8.5258
8.46621
8.40246
8.33239
8.26129
8.18475
8.09688
8.00631
7.91381
7.81705
7.71515
7.60758
7.49495
7.37442
7.24895
7.11906
6.98252
6.84581
6.70762
6.56134
6.40983
6.25492
6.10201
5.94224
1
1
1
1
1
1
1
1
1
1
1
1
1
1
1
1
1
1
1
1
1
1
1
1
1
1
1
1
1
1
1
1
1
1
1
1
1
1
1
1
1
1
1
1
1
1
1
1
1
1
1
1
1
1
1
1
1
1
1
1
1.00052
1.29606
5.21226
8.59063
8.71846
8.71521
8.70407
8.68025
8.6509
8.61374
8.56949
8.51769
8.46008
8.3978
8.33224
8.26133
8.18545
8.11064
8.02642
7.93787
7.84619
7.75224
7.65442
7.55169
7.44323
7.32705
7.20747
7.0827
6.95133
6.82215
6.68947
6.54667
6.40389
6.25991
6.11798
5.96991
1
1
1
1
1
1
1
1
1
1
1
1
1
1
1
1
1
1
1
1
1
1
1
1
1
1
1
1
1
1
1
1
1
1
1
1
1
1
1
1
1
1
1
1
1
1
1
1
1
1
1
1
1
1
1
1
1
1
1
1
1
1.00286
1.49579
5.88687
8.58377
8.69061
8.65776
8.62683
8.59281
8.55234
8.50671
8.45602
8.39947
8.33625
8.26894
8.19768
8.12154
8.04476
7.96456
7.8791
7.78954
7.69703
7.60129
7.50123
7.39548
7.28309
7.16813
7.04882
6.92343
6.80047
6.67149
6.53504
6.40466
6.27379
6.14723
6.0184
1
1
1
1
1
1
1
1
1
1
1
1
1
1
1
1
1
1
1
1
1
1
1
1
1
1
1
1
1
1
1
1
1
1
1
1
1
1
1
1
1
1
1
1
1
1
1
1
1
1
1
1
1
1
1
1
1
1
1
1
1
1
1.00734
1.72539
6.4555
8.56676
8.6103
8.57774
8.53601
8.49235
8.44317
8.39141
8.33491
8.27329
8.20674
8.13555
8.06099
7.98471
7.90546
7.8221
7.73495
7.64437
7.55038
7.45208
7.34884
7.24027
7.129
7.01436
6.89574
6.77895
6.65834
6.53567
6.42695
6.32187
6.22216
6.12932
1
1
1
1
1
1
1
1
1
1
1
1
1
1
1
1
1
1
1
1
1
1
1
1
1
1
1
1
1
1
1
1
1
1
1
1
1
1
1
1
1
1
1
1
1
1
1
1
1
1
1
1
1
1
1
1
1
1
1
1
1
1
1.00001
1.01486
1.98438
6.89377
8.53887
8.54083
8.50109
8.44715
8.39357
8.33672
8.27582
8.21331
8.14691
8.07659
8.00438
7.93063
7.85406
7.77369
7.68885
7.59927
7.50591
7.40791
7.30648
7.20064
7.09148
6.98289
6.87561
6.77444
6.67489
6.58551
6.51653
6.45461
6.41002
6.36952
1
1
1
1
1
1
1
1
1
1
1
1
1
1
1
1
1
1
1
1
1
1
1
1
1
1
1
1
1
1
1
1
1
1
1
1
1
1
1
1
1
1
1
1
1
1
1
1
1
1
1
1
1
1
1
1
1
1
1
1
1
1
1
1.00004
1.02649
2.24279
7.29213
8.50039
8.45425
8.40328
8.33832
8.27728
8.21494
8.15158
8.08509
8.01718
7.94818
7.87755
7.80387
7.72569
7.64201
7.55336
7.46108
7.36432
7.2648
7.16457
7.06544
6.97428
6.89301
6.83454
6.78314
6.75029
6.74371
6.73491
6.73176
6.70173
1
1
1
1
1
1
1
1
1
1
1
1
1
1
1
1
1
1
1
1
1
1
1
1
1
1
1
1
1
1
1
1
1
1
1
1
1
1
1
1
1
1
1
1
1
1
1
1
1
1
1
1
1
1
1
1
1
1
1
1
1
1
1
1
1.00008
1.04158
2.65597
7.53154
8.38378
8.32738
8.28318
8.2211
8.15703
8.09427
8.03128
7.96749
7.90192
7.83315
7.75982
7.68075
7.59632
7.50831
7.41739
7.32372
7.23291
7.1497
7.0814
7.03812
7.0185
7.02715
7.03715
7.06516
7.09088
7.07508
7.04405
6.98594
1
1
1
1
1
1
1
1
1
1
1
1
1
1
1
1
1
1
1
1
1
1
1
1
1
1
1
1
1
1
1
1
1
1
1
1
1
1
1
1
1
1
1
1
1
1
1
1
1
1
1
1
1
1
1
1
1
1
1
1
1
1
1
1
1
1.00015
1.07253
2.9471
7.57836
8.26868
8.21491
8.15921
8.1044
8.04728
7.98877
7.92751
7.86244
7.79276
7.718
7.63696
7.55266
7.46544
7.38151
7.30176
7.2453
7.21762
7.21825
7.2542
7.31946
7.3771
7.40257
7.43596
7.40497
7.33427
7.2656
7.18171
1
1
1
1
1
1
1
1
1
1
1
1
1
1
1
1
1
1
1
1
1
1
1
1
1
1
1
1
1
1
1
1
1
1
1
1
1
1
1
1
1
1
1
1
1
1
1
1
1
1
1
1
1
1
1
1
1
1
1
1
1
1
1
1
1
1
1.00034
1.10124
3.04231
7.5029
8.15947
8.10954
8.06077
8.00975
7.95507
7.89489
7.82929
7.75489
7.67588
7.59229
7.51377
7.43751
7.38545
7.36417
7.38526
7.45283
7.54867
7.65279
7.72121
7.73629
7.72549
7.69324
7.60006
7.50108
7.41957
7.32631
1
1
1
1
1
1
1
1
1
1
1
1
1
1
1
1
1
1
1
1
1
1
1
1
1
1
1
1
1
1
1
1
1
1
1
1
1
1
1
1
1
1
1
1
1
1
1
1
1
1
1
1
1
1
1
1
1
1
1
1
1
1
1
1
1
1
1
1.00059
1.11374
2.98105
7.37285
8.07607
8.03192
7.9838
7.92675
7.86283
7.79348
7.71463
7.63543
7.55776
7.50436
7.48612
7.51606
7.6142
7.75246
7.89696
8.00367
8.06492
8.04978
7.99137
7.93136
7.85087
7.73248
7.63531
7.5544
7.46136
1
1
1
1
1
1
1
1
1
1
1
1
1
1
1
1
1
1
1
1
1
1
1
1
1
1
1
1
1
1
1
1
1
1
1
1
1
1
1
1
1
1
1
1
1
1
1
1
1
1
1
1
1
1
1
1
1
1
1
1
1
1
1
1
1
1
1
1
1.00072
1.10883
2.8941
7.19497
7.98572
7.95052
7.89098
7.82377
7.74844
7.66947
7.60898
7.58166
7.60826
7.72343
7.89646
8.10973
8.26269
8.3343
8.36887
8.32672
8.23886
8.14825
8.06865
7.97188
7.85981
7.7796
7.70011
7.61004
1
1
1
1
1
1
1
1
1
1
1
1
1
1
1
1
1
1
1
1
1
1
1
1
1
1
1
1
1
1
1
1
1
1
1
1
1
1
1
1
1
1
1
1
1
1
1
1
1
1
1
1
1
1
1
1
1
1
1
1
1
1
1
1
1
1
1
1
1
1.00069
1.09982
2.76045
6.95037
7.88662
7.85816
7.77602
7.71014
7.66106
7.67014
7.78846
7.99392
8.26757
8.49804
8.62172
8.6569
8.62869
8.57015
8.47081
8.36336
8.27737
8.19661
8.09648
7.99806
7.93256
7.85462
7.76844
1
1
1
1
1
1
1
1
1
1
1
1
1
1
1
1
1
1
1
1
1
1
1
1
1
1
1
1
1
1
1
1
1
1
1
1
1
1
1
1
1
1
1
1
1
1
1
1
1
1
1
1
1
1
1
1
1
1
1
1
1
1
1
1
1
1
1
1
1
1
1.00061
1.08628
2.57015
6.62004
7.75127
7.70725
7.71568
7.80995
8.04591
8.39538
8.697
8.88438
8.93568
8.91621
8.86147
8.78556
8.68637
8.57397
8.48613
8.42067
8.34449
8.24273
8.15542
8.09667
8.01742
7.92997
1
1
1
1
1
1
1
1
1
1
1
1
1
1
1
1
1
1
1
1
1
1
1
1
1
1
1
1
1
1
1
1
1
1
1
1
1
1
1
1
1
1
1
1
1
1
1
1
1
1
1
1
1
1
1
1
1
1
1
1
1
1
1
1
1
1
1
1
1
1
1
1.00049
1.06871
2.33599
6.12277
7.67992
8.08441
8.37603
8.83478
9.13846
9.26354
9.25875
9.15197
9.0574
8.9764
8.88686
8.77895
8.682
8.62172
8.56879
8.48794
8.38681
8.31383
8.26
8.17749
8.08665
1
1
1
1
1
1
1
1
1
1
1
1
1
1
1
1
1
1
1
1
1
1
1
1
1
1
1
1
1
1
1
1
1
1
1
1
1
1
1
1
1
1
1
1
1
1
1
1
1
1
1
1
1
1
1
1
1
1
1
1
1
1
1
1
1
1
1
1
1
1
1
1
1.00035
1.05029
2.03156
6.08717
8.76681
9.3076
9.52528
9.55543
9.49332
9.3936
9.27004
9.17278
9.09357
9.01092
8.9141
8.83494
8.7832
8.72313
8.62782
8.52657
8.4653
8.41145
8.3213
8.22996
1
1
1
1
1
1
1
1
1
1
1
1
1
1
1
1
1
1
1
1
1
1
1
1
1
1
1
1
1
1
1
1
1
1
1
1
1
1
1
1
1
1
1
1
1
1
1
1
1
1
1
1
1
1
1
1
1
1
1
1
1
1
1
1
1
1
1
1
1
1
1
1
1
1.00023
1.03032
2.42244
8.77618
10.1758
9.91525
9.74852
9.59676
9.47137
9.35318
9.25989
9.19153
9.11677
9.03751
8.97863
8.93501
8.87239
8.77457
8.68355
8.62773
8.56548
8.4631
8.37578
1
1
1
1
1
1
1
1
1
1
1
1
1
1
1
1
1
1
1
1
1
1
1
1
1
1
1
1
1
1
1
1
1
1
1
1
1
1
1
1
1
1
1
1
1
1
1
1
1
1
1
1
1
1
1
1
1
1
1
1
1
1
1
1
1
1
1
1
1
1
1
1
1
1
1.00011
1.05511
6.66564
10.0973
9.7703
9.652
9.55493
9.48341
9.42064
9.37372
9.33049
9.27021
9.20461
9.14467
9.09128
9.01375
8.91122
8.8254
8.77288
8.70703
8.61221
8.53998
1
1
1
1
1
1
1
1
1
1
1
1
1
1
1
1
1
1
1
1
1
1
1
1
1
1
1
1
1
1
1
1
1
1
1
1
1
1
1
1
1
1
1
1
1
1
1
1
1
1
1
1
1
1
1
1
1
1
1
1
1
1
1
1
1
1
1
1
1
1
1
1
1
1
1
1.00008
3.27887
9.054
9.75866
9.73159
9.71076
9.67285
9.62808
9.57304
9.51241
9.44784
9.37692
9.30447
9.23127
9.14055
9.04206
8.9639
8.91431
8.84614
8.75628
8.68704
1
1
1
1
1
1
1
1
1
1
1
1
1
1
1
1
1
1
1
1
1
1
1
1
1
1
1
1
1
1
1
1
1
1
1
1
1
1
1
1
1
1
1
1
1
1
1
1
1
1
1
1
1
1
1
1
1
1
1
1
1
1
1
1
1
1
1
1
1
1
1
1
1
1
1
1
1.15009
7.19346
9.95497
9.915
9.85213
9.78405
9.7219
9.65659
9.58729
9.51417
9.43977
9.36804
9.29674
9.22269
9.15671
9.10468
9.05768
8.98733
8.9102
8.8477
1
1
1
1
1
1
1
1
1
1
1
1
1
1
1
1
1
1
1
1
1
1
1
1
1
1
1
1
1
1
1
1
1
1
1
1
1
1
1
1
1
1
1
1
1
1
1
1
1
1
1
1
1
1
1
1
1
1
1
1
1
1
1
1
1
1
1
1
1
1
1
1
1
1
1
1
1.00064
4.21212
9.46421
9.85085
9.81613
9.78826
9.74684
9.69956
9.65002
9.59917
9.54494
9.48854
9.42983
9.37028
9.31501
9.2575
9.19321
9.12095
9.05703
9.0011
1
1
1
1
1
1
1
1
1
1
1
1
1
1
1
1
1
1
1
1
1
1
1
1
1
1
1
1
1
1
1
1
1
1
1
1
1
1
1
1
1
1
1
1
1
1
1
1
1
1
1
1
1
1
1
1
1
1
1
1
1
1
1
1
1
1
1
1
1
1
1
1
1
1
1
1
0.999999
1.74624
8.16444
9.98034
9.8938
9.85227
9.81345
9.77227
9.72522
9.67667
9.62768
9.57755
9.52585
9.47378
9.41895
9.35725
9.29126
9.22475
9.16059
9.09392
1
1
1
1
1
1
1
1
1
1
1
1
1
1
1
1
1
1
1
1
1
1
1
1
1
1
1
1
1
1
1
1
1
1
1
1
1
1
1
1
1
1
1
1
1
1
1
1
1
1
1
1
1
1
1
1
1
1
1
1
1
1
1
1
1
1
1
1
1
1
1
1
1
1
1
1
1
1.01847
5.7547
9.88031
9.96277
9.91366
9.86531
9.81569
9.76995
9.72299
9.67516
9.62642
9.57652
9.52507
9.47319
9.41973
9.36468
9.31049
9.25403
9.19511
1
1
1
1
1
1
1
1
1
1
1
1
1
1
1
1
1
1
1
1
1
1
1
1
1
1
1
1
1
1
1
1
1
1
1
1
1
1
1
1
1
1
1
1
1
1
1
1
1
1
1
1
1
1
1
1
1
1
1
1
1
1
1
1
1
1
1
1
1
1
1
1
1
1
1
1
1
0.999998
3.02201
9.03252
9.98905
9.93259
9.90167
9.85688
9.81461
9.77149
9.72788
9.68271
9.6364
9.58707
9.53533
9.48377
9.43136
9.37922
9.32585
9.27241
1
1
1
1
1
1
1
1
1
1
1
1
1
1
1
1
1
1
1
1
1
1
1
1
1
1
1
1
1
1
1
1
1
1
1
1
1
1
1
1
1
1
1
1
1
1
1
1
1
1
1
1
1
1
1
1
1
1
1
1
1
1
1
1
1
1
1
1
1
1
1
1
1
1
1
1
1
0.999999
1.28821
7.53938
10.1325
10.0244
9.95304
9.90331
9.86128
9.81859
9.7746
9.72944
9.68318
9.63671
9.59005
9.54255
9.49409
9.44351
9.3901
9.3344
1
1
1
1
1
1
1
1
1
1
1
1
1
1
1
1
1
1
1
1
1
1
1
1
1
1
1
1
1
1
1
1
1
1
1
1
1
1
1
1
1
1
1
1
1
1
1
1
1
1
1
1
1
1
1
1
1
1
1
1
1
1
1
1
1
1
1
1
1
1
1
1
1
1
1
1
1
1
1.00269
5.32926
9.86305
10.0075
9.98347
9.95216
9.90849
9.86416
9.81877
9.77282
9.72593
9.67868
9.63049
9.58115
9.53099
9.47949
9.42761
9.37452
1
1
1
1
1
1
1
1
1
1
1
1
1
1
1
1
1
1
1
1
1
1
1
1
1
1
1
1
1
1
1
1
1
1
1
1
1
1
1
1
1
1
1
1
1
1
1
1
1
1
1
1
1
1
1
1
1
1
1
1
1
1
1
1
1
1
1
1
1
1
1
1
1
1
1
1
1
1
0.999998
3.04001
9.15212
10.1166
10.0588
10.0174
9.96749
9.92014
9.87272
9.82539
9.77757
9.72952
9.68106
9.63215
9.58306
9.53326
9.48334
9.43267
1
1
1
1
1
1
1
1
1
1
1
1
1
1
1
1
1
1
1
1
1
1
1
1
1
1
1
1
1
1
1
1
1
1
1
1
1
1
1
1
1
1
1
1
1
1
1
1
1
1
1
1
1
1
1
1
1
1
1
1
1
1
1
1
1
1
1
1
1
1
1
1
1
1
1
1
1
1
1
1.46351
7.83375
10.2107
10.1024
10.0421
9.99537
9.95066
9.90575
9.86008
9.8134
9.76646
9.71937
9.67169
9.62378
9.57514
9.52623
9.47651
1
1
1
1
1
1
1
1
1
1
1
1
1
1
1
1
1
1
1
1
1
1
1
1
1
1
1
1
1
1
1
1
1
1
1
1
1
1
1
1
1
1
1
1
1
1
1
1
1
1
1
1
1
1
1
1
1
1
1
1
1
1
1
1
1
1
1
1
1
1
1
1
1
1
1
1
1
1
1
1.00834
6.07071
10.1022
10.1356
10.0845
10.0415
9.99326
9.94578
9.89843
9.85103
9.80415
9.75758
9.71045
9.66325
9.61529
9.56704
9.51802
1
1
1
1
1
1
1
1
1
1
1
1
1
1
1
1
1
1
1
1
1
1
1
1
1
1
1
1
1
1
1
1
1
1
1
1
1
1
1
1
1
1
1
1
1
1
1
1
1
1
1
1
1
1
1
1
1
1
1
1
1
1
1
1
1
1
1
1
1
1
1
1
1
1
1
1
1
1
1
0.999997
4.14268
9.65031
10.0934
10.0537
10.0295
9.99329
9.95543
9.91545
9.87397
9.83151
9.78774
9.74266
9.697
9.65036
9.60313
9.55517
1
1
1
1
1
1
1
1
1
1
1
1
1
1
1
1
1
1
1
1
1
1
1
1
1
1
1
1
1
1
1
1
1
1
1
1
1
1
1
1
1
1
1
1
1
1
1
1
1
1
1
1
1
1
1
1
1
1
1
1
1
1
1
1
1
1
1
1
1
1
1
1
1
1
1
1
1
1
1
0.999999
2.50518
8.85329
10.2506
10.1681
10.1226
10.0739
10.0276
9.98161
9.93575
9.89012
9.84373
9.79687
9.74979
9.70214
9.65413
9.60589
1
1
1
1
1
1
1
1
1
1
1
1
1
1
1
1
1
1
1
1
1
1
1
1
1
1
1
1
1
1
1
1
1
1
1
1
1
1
1
1
1
1
1
1
1
1
1
1
1
1
1
1
1
1
1
1
1
1
1
1
1
1
1
1
1
1
1
1
1
1
1
1
1
1
1
1
1
1
1
1
1.3662
7.67883
10.31
10.1993
10.1384
10.0926
10.0489
10.0056
9.96167
9.9179
9.87314
9.82755
9.7815
9.73494
9.68787
9.64051
1
1
1
1
1
1
1
1
1
1
1
1
1
1
1
1
1
1
1
1
1
1
1
1
1
1
1
1
1
1
1
1
1
1
1
1
1
1
1
1
1
1
1
1
1
1
1
1
1
1
1
1
1
1
1
1
1
1
1
1
1
1
1
1
1
1
1
1
1
1
1
1
1
1
1
1
1
1
1
1
1.00598
6.31367
10.2235
10.2265
10.1656
10.1225
10.0764
10.0314
9.98654
9.94246
9.89812
9.85334
9.80815
9.76264
9.71651
9.67002
1
1
1
1
1
1
1
1
1
1
1
1
1
1
1
1
1
1
1
1
1
1
1
1
1
1
1
1
1
1
1
1
1
1
1
1
1
1
1
1
1
1
1
1
1
1
1
1
1
1
1
1
1
1
1
1
1
1
1
1
1
1
1
1
1
1
1
1
1
1
1
1
1
1
1
1
1
1
1
1
1
4.86694
9.95891
10.212
10.1614
10.1309
10.0921
10.0529
10.0117
9.969
9.9255
9.88134
9.83645
9.79125
9.74541
9.69921
1
1
1
1
1
1
1
1
1
1
1
1
1
1
1
1
1
1
1
1
1
1
1
1
1
1
1
1
1
1
1
1
1
1
1
1
1
1
1
1
1
1
1
1
1
1
1
1
1
1
1
1
1
1
1
1
1
1
1
1
1
1
1
1
1
1
1
1
1
1
1
1
1
1
1
1
1
1
1
1
1
3.53951
9.51656
10.2514
10.1913
10.1632
10.124
10.0848
10.0431
9.99965
9.95531
9.91044
9.86496
9.81909
9.77269
9.72627
1
1
1
1
1
1
1
1
1
1
1
1
1
1
1
1
1
1
1
1
1
1
1
1
1
1
1
1
1
1
1
1
1
1
1
1
1
1
1
1
1
1
1
1
1
1
1
1
1
1
1
1
1
1
1
1
1
1
1
1
1
1
1
1
1
1
1
1
1
1
1
1
1
1
1
1
1
1
1
1
1
2.43706
8.94942
10.2996
10.2235
10.1893
10.147
10.1061
10.0636
10.0204
9.97659
9.93224
9.88753
9.84235
9.79668
9.75123
1
1
1
1
1
1
1
1
1
1
1
1
1
1
1
1
1
1
1
1
1
1
1
1
1
1
1
1
1
1
1
1
1
1
1
1
1
1
1
1
1
1
1
1
1
1
1
1
1
1
1
1
1
1
1
1
1
1
1
1
1
1
1
1
1
1
1
1
1
1
1
1
1
1
1
1
1
1
1
1
1
1.62701
8.11833
10.3494
10.2625
10.2158
10.1694
10.1258
10.0823
10.0391
9.99573
9.95196
9.90789
9.86337
9.81834
9.77352
1
1
1
1
1
1
1
1
1
1
1
1
1
1
1
1
1
1
1
1
1
1
1
1
1
1
1
1
1
1
1
1
1
1
1
1
1
1
1
1
1
1
1
1
1
1
1
1
1
1
1
1
1
1
1
1
1
1
1
1
1
1
1
1
1
1
1
1
1
1
1
1
1
1
1
1
1
1
1
1
1
1.18218
7.25311
10.3695
10.2948
10.2362
10.1866
10.141
10.0969
10.054
10.011
9.96769
9.92426
9.88066
9.83636
9.79209
1
1
1
1
1
1
1
1
1
1
1
1
1
1
1
1
1
1
1
1
1
1
1
1
1
1
1
1
1
1
1
1
1
1
1
1
1
1
1
1
1
1
1
1
1
1
1
1
1
1
1
1
1
1
1
1
1
1
1
1
1
1
1
1
1
1
1
1
1
1
1
1
1
1
1
1
1
1
1
1
1
1.00282
6.33034
10.2653
10.2893
10.2303
10.1922
10.1511
10.1102
10.0689
10.0268
9.98402
9.94108
9.89807
9.85415
9.8102
1
1
1
1
1
1
1
1
1
1
1
1
1
1
1
1
1
1
1
1
1
1
1
1
1
1
1
1
1
1
1
1
1
1
1
1
1
1
1
1
1
1
1
1
1
1
1
1
1
1
1
1
1
1
1
1
1
1
1
1
1
1
1
1
1
1
1
1
1
1
1
1
1
1
1
1
1
1
1
1
1
1
5.4122
10.1308
10.2842
10.2294
10.1985
10.1599
10.1208
10.0803
10.039
9.99698
9.95478
9.91252
9.86913
9.82557
1
1
1
1
1
1
1
1
1
1
1
1
1
1
1
1
1
1
1
1
1
1
1
1
1
1
1
1
1
1
1
1
1
1
1
1
1
1
1
1
1
1
1
1
1
1
1
1
1
1
1
1
1
1
1
1
1
1
1
1
1
1
1
1
1
1
1
1
1
1
1
1
1
1
1
1
1
1
1
1
1
1
4.56701
9.96558
10.3069
10.2478
10.218
10.1798
10.1415
10.1016
10.061
10.0192
9.97723
9.93467
9.89119
9.84726
1
1
1
1
1
1
1
1
1
1
1
1
1
1
1
1
1
1
1
1
1
1
1
1
1
1
1
1
1
1
1
1
1
1
1
1
1
1
1
1
1
1
1
1
1
1
1
1
1
1
1
1
1
1
1
1
1
1
1
1
1
1
1
1
1
1
1
1
1
1
1
1
1
1
1
1
1
1
1
1
1
1
3.85861
9.75161
10.3348
10.2623
10.2288
10.1891
10.1505
10.1105
10.0703
10.0287
9.98712
9.94466
9.90182
9.85833
1
1
1
1
1
1
1
1
1
1
1
1
1
1
1
1
1
1
1
1
1
1
1
1
1
1
1
1
1
1
1
1
1
1
1
1
1
1
1
1
1
1
1
1
1
1
1
1
1
1
1
1
1
1
1
1
1
1
1
1
1
1
1
1
1
1
1
1
1
1
1
1
1
1
1
1
1
1
1
1
1
1
3.26955
9.52577
10.358
10.2771
10.2413
10.2005
10.1613
10.121
10.0808
10.0393
9.9978
9.95525
9.91273
9.8693
1
1
1
1
1
1
1
1
1
1
1
1
1
1
1
1
1
1
1
1
1
1
1
1
1
1
1
1
1
1
1
1
1
1
1
1
1
1
1
1
1
1
1
1
1
1
1
1
1
1
1
1
1
1
1
1
1
1
1
1
1
1
1
1
1
1
1
1
1
1
1
1
1
1
1
1
1
1
1
1
1
1
2.79344
9.32035
10.3664
10.285
10.249
10.208
10.1688
10.1287
10.0886
10.0475
10.0063
9.96399
9.92178
9.87852
1
1
1
1
1
1
1
1
1
1
1
1
1
1
1
1
1
1
1
1
1
1
1
1
1
1
1
1
1
1
1
1
1
1
1
1
1
1
1
1
1
1
1
1
1
1
1
1
1
1
1
1
1
1
1
1
1
1
1
1
1
1
1
1
1
1
1
1
1
1
1
1
1
1
1
1
1
1
1
1
1
1
2.44697
9.09887
10.3721
10.2909
10.2548
10.2141
10.1749
10.1348
10.0948
10.0541
10.0131
9.97112
9.92911
9.88614
1
1
1
1
1
1
1
1
1
1
1
1
1
1
1
1
1
1
1
1
1
1
1
1
1
1
1
1
1
1
1
1
1
1
1
1
1
1
1
1
1
1
1
1
1
1
1
1
1
1
1
1
1
1
1
1
1
1
1
1
1
1
1
1
1
1
1
1
1
1
1
1
1
1
1
1
1
1
1
1
1
1
2.20708
8.89791
10.3724
10.2939
10.2582
10.2179
10.1789
10.139
10.099
10.0587
10.0178
9.97614
9.9342
9.8916
1
1
1
1
1
1
1
1
1
1
1
1
1
1
1
1
1
1
1
1
1
1
1
1
1
1
1
1
1
1
1
1
1
1
1
1
1
1
1
1
1
1
1
1
1
1
1
1
1
1
1
1
1
1
1
1
1
1
1
1
1
1
1
1
1
1
1
1
1
1
1
1
1
1
1
1
1
1
1
1
1
1
2.04462
8.73487
10.3706
10.2952
10.2598
10.2201
10.1815
10.1418
10.1019
10.0619
10.0213
9.97998
9.93814
9.89602
1
1
1
1
1
1
1
1
1
1
1
1
1
1
1
1
1
1
1
1
1
1
1
1
1
1
1
1
1
1
1
1
1
1
1
1
1
1
1
1
1
1
1
1
1
1
1
1
1
1
1
1
1
1
1
1
1
1
1
1
1
1
1
1
1
1
1
1
1