/*--------------------------------*- C++ -*----------------------------------*\
  =========                 |
  \\      /  F ield         | OpenFOAM: The Open Source CFD Toolbox
   \\    /   O peration     | Website:  https://openfoam.org
    \\  /    A nd           | Version:  7
     \\/     M anipulation  |
\*---------------------------------------------------------------------------*/
FoamFile
{
    version     2.0;
    format      ascii;
    class       volVectorField;
    location    "8.5";
    object      U;
}
// * * * * * * * * * * * * * * * * * * * * * * * * * * * * * * * * * * * * * //

dimensions      [0 1 -1 0 0 0 0];

internalField   nonuniform List<vector> 
19968
(
(3 6.82889e-17 0)
(3 -6.91669e-17 0)
(3 -8.02536e-17 0)
(3 -9.81444e-17 0)
(3 -1.65895e-16 0)
(3 -2.91413e-17 0)
(3 -3.75327e-16 0)
(3 -4.24497e-16 0)
(3 -5.11204e-17 0)
(3 2.35083e-16 0)
(3 2.25651e-16 0)
(3 2.57527e-17 0)
(3 -1.33692e-16 0)
(3 -2.24436e-16 0)
(3 -4.00148e-16 0)
(3 -4.10284e-16 0)
(3 -1.17997e-16 0)
(3 1.34422e-16 0)
(3 -1.99505e-16 0)
(3 -5.37921e-16 0)
(3 -1.05008e-15 0)
(3 -7.69496e-16 0)
(3 -4.48595e-16 0)
(3 -3.32695e-16 0)
(3 5.69163e-16 0)
(3 1.37553e-15 0)
(3 2.85593e-16 0)
(3 -2.83948e-16 0)
(3 -1.77933e-16 0)
(3 6.78514e-16 0)
(3 7.93471e-16 0)
(3 1.38255e-15 0)
(3 2.03598e-15 0)
(3 1.56959e-15 0)
(3 1.05795e-15 0)
(3 7.3471e-16 0)
(3 -1.44485e-16 0)
(3 -7.1653e-16 0)
(3 -1.08402e-15 0)
(3 -1.30141e-15 0)
(3 -1.69875e-15 0)
(3 -1.28342e-15 0)
(3 -1.30119e-15 0)
(3 -1.1097e-15 0)
(3 -1.07353e-15 0)
(3 -9.98363e-16 0)
(3 -6.03608e-16 0)
(3 -6.11455e-16 0)
(2.8024 0.00183639 0)
(0.967497 0.00561305 0)
(0.759175 0.00331379 0)
(0.7481 0.009778 0)
(0.729038 0.0107659 0)
(0.711952 0.0102911 0)
(0.696105 0.00866789 0)
(0.681996 0.00763854 0)
(0.66831 0.00785259 0)
(0.653697 0.00885502 0)
(0.637618 0.00985909 0)
(0.620863 0.00992137 0)
(0.604938 0.00915948 0)
(0.590229 0.00881179 0)
(0.575802 0.0093409 0)
(0.560793 0.00994857 0)
(0.545474 0.00985182 0)
(0.530396 0.0094597 0)
(0.515321 0.0094495 0)
(0.499851 0.0097197 0)
(0.484034 0.00995708 0)
(0.468085 0.0100642 0)
(0.45207 0.010086 0)
(0.435941 0.0101104 0)
(0.419663 0.0102118 0)
(0.403319 0.0103778 0)
(0.387106 0.0105458 0)
(0.371172 0.0106875 0)
(0.355467 0.0108132 0)
(0.33977 0.0109327 0)
(0.323823 0.0110509 0)
(0.307435 0.0111722 0)
(0.290528 0.0112933 0)
(0.273173 0.0114079 0)
(0.255588 0.0115194 0)
(0.238052 0.011636 0)
(0.220748 0.0117604 0)
(0.203642 0.0118946 0)
(0.186485 0.0120497 0)
(0.168936 0.0122405 0)
(0.150728 0.0124773 0)
(0.131778 0.0127603 0)
(0.112186 0.0130852 0)
(0.0921594 0.0134347 0)
(0.0719082 0.013811 0)
(0.051535 0.0142266 0)
(0.0310213 0.0144992 0)
(0.0108112 0.0149326 0)
(3 1.80409e-16 0)
(3 5.49532e-16 0)
(3 6.62535e-16 0)
(3 8.85201e-16 0)
(3 8.352e-16 0)
(3 7.10445e-16 0)
(3 1.13911e-16 0)
(3 -3.68288e-18 0)
(3 -3.70482e-17 0)
(3 2.4069e-16 0)
(3 7.61888e-16 0)
(3 1.02168e-16 0)
(3 -5.20111e-16 0)
(3 -5.89377e-16 0)
(3 -7.72024e-16 0)
(3 -5.95836e-16 0)
(3 8.44071e-16 0)
(3 1.37371e-15 0)
(3 9.32727e-16 0)
(3 -2.49485e-16 0)
(3 -9.88971e-16 0)
(3 -2.31911e-15 0)
(3 -2.23506e-15 0)
(3 -1.43593e-15 0)
(3 -7.69822e-16 0)
(3 -7.13528e-16 0)
(3 -4.59699e-16 0)
(3 8.27004e-18 0)
(3 9.63597e-16 0)
(3 2.10478e-15 0)
(3 2.60033e-15 0)
(3 3.65122e-15 0)
(3 3.96482e-15 0)
(3 2.77679e-15 0)
(3 2.52995e-15 0)
(3 1.25364e-15 0)
(3 4.31318e-16 0)
(3 -1.58128e-15 0)
(3 -1.90766e-15 0)
(3 -2.30545e-15 0)
(3 -2.95932e-15 0)
(3 -2.96368e-15 0)
(3 -2.16941e-15 0)
(3 -1.74077e-15 0)
(3 -1.26328e-15 0)
(3 -5.32351e-16 0)
(3 4.71857e-16 0)
(3 5.5601e-16 0)
(2.81474 0.0111286 0)
(0.972106 0.0269623 0)
(0.754485 0.017673 0)
(0.741936 0.0269311 0)
(0.724576 0.0301965 0)
(0.708631 0.0296655 0)
(0.693338 0.0263638 0)
(0.678802 0.0236597 0)
(0.664472 0.0238634 0)
(0.649741 0.0264241 0)
(0.633932 0.0291549 0)
(0.617531 0.0295398 0)
(0.601808 0.027806 0)
(0.586856 0.026948 0)
(0.572244 0.0283611 0)
(0.55725 0.0300387 0)
(0.542024 0.0298465 0)
(0.526971 0.0288873 0)
(0.511784 0.028931 0)
(0.496213 0.0297063 0)
(0.480354 0.0303356 0)
(0.464441 0.0306176 0)
(0.448486 0.0307124 0)
(0.432382 0.0308156 0)
(0.416088 0.0311005 0)
(0.399711 0.0315632 0)
(0.383447 0.0320612 0)
(0.367435 0.0325078 0)
(0.351627 0.0329033 0)
(0.335821 0.0332612 0)
(0.319775 0.0336019 0)
(0.303312 0.0339544 0)
(0.286359 0.0343214 0)
(0.268985 0.0346879 0)
(0.251401 0.0350598 0)
(0.233875 0.0354505 0)
(0.21659 0.0358543 0)
(0.199525 0.0362663 0)
(0.182454 0.036715 0)
(0.165054 0.0372494 0)
(0.147059 0.037915 0)
(0.128373 0.0387349 0)
(0.109084 0.0397089 0)
(0.0893953 0.0407882 0)
(0.0695409 0.0419556 0)
(0.0496725 0.043242 0)
(0.0297784 0.0440712 0)
(0.0103469 0.0453051 0)
(3 -1.86561e-16 0)
(3 2.1596e-16 0)
(3 5.89319e-16 0)
(3 7.00321e-16 0)
(3 8.0961e-16 0)
(3 4.33703e-16 0)
(3 1.51507e-16 0)
(3 1.01441e-16 0)
(3 -3.78415e-16 0)
(3 -4.70892e-16 0)
(3 -2.0701e-16 0)
(3 -2.54898e-16 0)
(3 -1.31124e-15 0)
(3 -1.53599e-15 0)
(3 -1.09084e-15 0)
(3 -4.91824e-16 0)
(3 8.16579e-16 0)
(3 1.40626e-15 0)
(3 1.99208e-15 0)
(3 1.57015e-15 0)
(3 4.39947e-16 0)
(3 -3.53272e-16 0)
(3 -6.39309e-16 0)
(3 -1.03802e-15 0)
(3 -1.92259e-15 0)
(3 -2.40368e-15 0)
(3 -2.4445e-15 0)
(3 -1.16601e-15 0)
(3 -3.51374e-16 0)
(3 2.80459e-16 0)
(3 1.15865e-15 0)
(3 2.82561e-15 0)
(3 3.20708e-15 0)
(3 2.16156e-15 0)
(3 1.82037e-15 0)
(3 1.86436e-15 0)
(3 1.14541e-15 0)
(3 -1.79826e-15 0)
(3 -2.23392e-15 0)
(3 -2.09695e-15 0)
(3 -3.67017e-15 0)
(3 -4.20203e-15 0)
(3 -3.73127e-15 0)
(3 -3.59879e-15 0)
(3 -3.35131e-15 0)
(3 -8.84467e-16 0)
(3 7.50585e-16 0)
(3 1.55723e-15 0)
(2.84783 0.0189071 0)
(0.988123 0.0472414 0)
(0.757256 0.0344114 0)
(0.744351 0.0457391 0)
(0.727743 0.0500786 0)
(0.712283 0.0493055 0)
(0.697138 0.0451226 0)
(0.681842 0.0416062 0)
(0.666359 0.0418748 0)
(0.650992 0.0455078 0)
(0.635059 0.049357 0)
(0.618727 0.0499046 0)
(0.603039 0.0475056 0)
(0.587715 0.0463794 0)
(0.572816 0.0485568 0)
(0.557725 0.0510926 0)
(0.542457 0.0508425 0)
(0.527309 0.0495108 0)
(0.511886 0.0497296 0)
(0.496077 0.0509999 0)
(0.480004 0.0519494 0)
(0.463959 0.0523803 0)
(0.447942 0.0526277 0)
(0.431793 0.0529312 0)
(0.415437 0.0534642 0)
(0.398963 0.0542142 0)
(0.382552 0.0550087 0)
(0.366337 0.0557415 0)
(0.350291 0.0564042 0)
(0.334246 0.0569994 0)
(0.317986 0.0575518 0)
(0.301347 0.0581107 0)
(0.284263 0.0586858 0)
(0.266797 0.0592563 0)
(0.24915 0.059835 0)
(0.231579 0.0604498 0)
(0.214262 0.0610994 0)
(0.197191 0.0617802 0)
(0.180165 0.062536 0)
(0.16288 0.0634325 0)
(0.145061 0.0645219 0)
(0.126581 0.0658255 0)
(0.107492 0.0673413 0)
(0.0879821 0.0690016 0)
(0.0683016 0.0707736 0)
(0.048667 0.0727491 0)
(0.0290685 0.0739692 0)
(0.0100644 0.0758557 0)
(3 -1.54905e-16 0)
(3 -5.13472e-16 0)
(3 -3.3981e-16 0)
(3 -1.13028e-18 0)
(3 1.43939e-17 0)
(3 3.75179e-16 0)
(3 4.72606e-16 0)
(3 4.61608e-16 0)
(3 1.14252e-16 0)
(3 -1.38377e-16 0)
(3 -6.41359e-16 0)
(3 -1.03635e-15 0)
(3 -1.57273e-15 0)
(3 -1.56003e-15 0)
(3 -8.55019e-16 0)
(3 -8.60616e-16 0)
(3 -8.34106e-16 0)
(3 -4.11009e-16 0)
(3 -5.00481e-17 0)
(3 -1.01343e-16 0)
(3 -5.25816e-17 0)
(3 -2.24981e-17 0)
(3 -1.6416e-16 0)
(3 -4.42792e-16 0)
(3 -8.65439e-16 0)
(3 -1.07438e-15 0)
(3 -1.83826e-15 0)
(3 -4.16793e-16 0)
(3 5.21725e-16 0)
(3 9.87533e-16 0)
(3 1.94503e-15 0)
(3 1.91418e-15 0)
(3 1.30943e-15 0)
(3 1.39415e-15 0)
(3 1.58113e-15 0)
(3 1.95597e-15 0)
(3 1.11127e-15 0)
(3 -1.53132e-15 0)
(3 -2.59522e-15 0)
(3 -1.96787e-15 0)
(3 -2.10458e-15 0)
(3 -2.08294e-15 0)
(3 -1.78026e-15 0)
(3 -8.08267e-16 0)
(3 6.49455e-16 0)
(3 7.72402e-16 0)
(3 6.31404e-16 0)
(3 6.86533e-16 0)
(2.89214 0.0225507 0)
(1.01064 0.0655608 0)
(0.758711 0.0527534 0)
(0.744897 0.0650535 0)
(0.729216 0.069456 0)
(0.714559 0.0686786 0)
(0.699892 0.0647346 0)
(0.684558 0.0612454 0)
(0.668698 0.0615714 0)
(0.653194 0.0656826 0)
(0.637514 0.0700298 0)
(0.621535 0.0706873 0)
(0.606033 0.0680483 0)
(0.590524 0.0668486 0)
(0.575524 0.0695893 0)
(0.560511 0.0727735 0)
(0.54533 0.0726055 0)
(0.530155 0.0711905 0)
(0.514555 0.0717498 0)
(0.498529 0.073553 0)
(0.482205 0.0747923 0)
(0.465964 0.0753671 0)
(0.449815 0.0758569 0)
(0.433547 0.0764906 0)
(0.417038 0.0773413 0)
(0.400347 0.0783799 0)
(0.383634 0.0794636 0)
(0.367029 0.0804986 0)
(0.350535 0.0814544 0)
(0.334024 0.0822997 0)
(0.317315 0.0830508 0)
(0.300254 0.0837755 0)
(0.282776 0.0844953 0)
(0.264944 0.0851891 0)
(0.246959 0.0858827 0)
(0.229085 0.0866282 0)
(0.211527 0.087443 0)
(0.194317 0.0883387 0)
(0.1773 0.0893813 0)
(0.160199 0.0906498 0)
(0.142723 0.0921879 0)
(0.124677 0.0939968 0)
(0.10603 0.0960618 0)
(0.0868995 0.0983083 0)
(0.0675056 0.100669 0)
(0.0481157 0.103325 0)
(0.0286919 0.10491 0)
(0.00992967 0.107417 0)
(3 2.59433e-16 0)
(3 -9.57778e-17 0)
(3 -5.43789e-16 0)
(3 -9.77444e-17 0)
(3 2.07799e-16 0)
(3 6.43863e-16 0)
(3 8.05809e-16 0)
(3 4.93331e-16 0)
(3 2.64634e-16 0)
(3 2.33991e-16 0)
(3 -7.2082e-16 0)
(3 -1.13109e-15 0)
(3 -9.26019e-16 0)
(3 -5.91868e-16 0)
(3 -6.2881e-16 0)
(3 -1.2741e-16 0)
(3 -1.16076e-16 0)
(3 4.16117e-17 0)
(3 -2.98682e-16 0)
(3 -3.59467e-16 0)
(3 -4.40442e-17 0)
(3 2.53106e-16 0)
(3 5.51666e-17 0)
(3 1.02689e-16 0)
(3 9.96212e-16 0)
(3 1.27558e-15 0)
(3 1.28126e-15 0)
(3 1.21876e-15 0)
(3 2.0172e-15 0)
(3 2.12213e-15 0)
(3 2.08496e-15 0)
(3 1.76601e-15 0)
(3 1.02057e-15 0)
(3 1.03603e-15 0)
(3 1.21935e-15 0)
(3 1.20862e-15 0)
(3 1.0067e-15 0)
(3 5.9326e-16 0)
(3 -2.69376e-16 0)
(3 -9.02857e-16 0)
(3 -5.83567e-16 0)
(3 -4.93238e-16 0)
(3 5.33993e-17 0)
(3 1.13734e-15 0)
(3 1.83027e-15 0)
(3 1.97839e-15 0)
(3 6.8674e-16 0)
(3 4.27947e-16 0)
(2.94105 0.0314944 0)
(1.03843 0.0906248 0)
(0.760572 0.0747735 0)
(0.745899 0.085262 0)
(0.732087 0.0883277 0)
(0.718833 0.087483 0)
(0.705188 0.0842334 0)
(0.690412 0.0813997 0)
(0.674765 0.0820526 0)
(0.659407 0.0863167 0)
(0.644134 0.0907405 0)
(0.628584 0.0916537 0)
(0.613121 0.0893705 0)
(0.597311 0.0884088 0)
(0.582032 0.0915182 0)
(0.566986 0.0951085 0)
(0.551888 0.0951473 0)
(0.536725 0.09396 0)
(0.521056 0.0950742 0)
(0.504925 0.0975345 0)
(0.488428 0.0991106 0)
(0.472065 0.099856 0)
(0.455878 0.100689 0)
(0.439614 0.101819 0)
(0.42307 0.103118 0)
(0.40626 0.104507 0)
(0.38932 0.105929 0)
(0.372366 0.107345 0)
(0.355421 0.108695 0)
(0.338395 0.109892 0)
(0.321136 0.11093 0)
(0.303493 0.11189 0)
(0.28539 0.112803 0)
(0.266874 0.113642 0)
(0.248139 0.114435 0)
(0.229469 0.11525 0)
(0.211108 0.116119 0)
(0.193151 0.117067 0)
(0.17551 0.118183 0)
(0.157967 0.119571 0)
(0.140257 0.121286 0)
(0.122165 0.123341 0)
(0.10362 0.125736 0)
(0.0847076 0.128434 0)
(0.0656208 0.131303 0)
(0.0466772 0.13464 0)
(0.027732 0.136616 0)
(0.0095775 0.139761 0)
(3 2.20942e-16 0)
(3 3.56653e-16 0)
(3 1.13486e-16 0)
(3 -2.90755e-16 0)
(3 5.28866e-17 0)
(3 4.42084e-16 0)
(3 6.10057e-16 0)
(3 5.5209e-16 0)
(3 8.38528e-16 0)
(3 5.5341e-16 0)
(3 1.75261e-16 0)
(3 6.24092e-16 0)
(3 7.94851e-16 0)
(3 5.25326e-16 0)
(3 7.12486e-17 0)
(3 3.3931e-16 0)
(3 7.38283e-16 0)
(3 1.40271e-15 0)
(3 2.02172e-15 0)
(3 2.65122e-15 0)
(3 2.56706e-15 0)
(3 2.40386e-15 0)
(3 1.78649e-15 0)
(3 1.35292e-15 0)
(3 2.66423e-15 0)
(3 2.86372e-15 0)
(3 3.19483e-15 0)
(3 3.45027e-15 0)
(3 2.24885e-15 0)
(3 1.89022e-15 0)
(3 1.63872e-15 0)
(3 1.69832e-15 0)
(3 1.71022e-15 0)
(3 1.65526e-15 0)
(3 1.38946e-15 0)
(3 -5.61999e-17 0)
(3 6.25869e-18 0)
(3 9.41582e-16 0)
(3 1.1727e-15 0)
(3 3.72294e-18 0)
(3 1.79805e-16 0)
(3 4.05854e-16 0)
(3 5.18593e-16 0)
(3 4.34403e-16 0)
(3 3.04409e-16 0)
(3 4.41838e-16 0)
(3 9.66528e-16 0)
(3 9.50308e-16 0)
(2.99463 0.00135326 0)
(1.10122 0.113885 0)
(0.773262 0.0939642 0)
(0.757132 0.103578 0)
(0.743159 0.105217 0)
(0.729429 0.104829 0)
(0.71535 0.103156 0)
(0.700323 0.101852 0)
(0.684672 0.103176 0)
(0.669423 0.107125 0)
(0.654644 0.111017 0)
(0.639751 0.112366 0)
(0.624487 0.111103 0)
(0.608614 0.110688 0)
(0.59319 0.113811 0)
(0.578237 0.117259 0)
(0.563457 0.117327 0)
(0.548549 0.116506 0)
(0.533089 0.118304 0)
(0.517098 0.121551 0)
(0.500598 0.123528 0)
(0.484249 0.12439 0)
(0.468169 0.12554 0)
(0.452094 0.127257 0)
(0.43573 0.12913 0)
(0.419034 0.130938 0)
(0.402119 0.132749 0)
(0.38508 0.134645 0)
(0.367933 0.136547 0)
(0.350607 0.138293 0)
(0.332975 0.139833 0)
(0.314901 0.141252 0)
(0.296294 0.142592 0)
(0.277174 0.143821 0)
(0.257718 0.144962 0)
(0.23821 0.14609 0)
(0.218915 0.147235 0)
(0.199965 0.148412 0)
(0.181318 0.149706 0)
(0.162796 0.15122 0)
(0.144165 0.153006 0)
(0.125227 0.155096 0)
(0.105916 0.157524 0)
(0.086342 0.160372 0)
(0.0666922 0.163453 0)
(0.0473523 0.167263 0)
(0.028052 0.169503 0)
(0.00965711 0.173172 0)
(3 2.13423e-17 0)
(3 4.88566e-16 0)
(3 9.03478e-16 0)
(3 6.12488e-16 0)
(3 -6.79128e-17 0)
(3 -1.96308e-16 0)
(3 -4.05893e-16 0)
(3 -3.05385e-16 0)
(3 1.21549e-16 0)
(3 2.06972e-16 0)
(3 3.51402e-16 0)
(3 3.22302e-16 0)
(3 3.35692e-16 0)
(3 6.38704e-16 0)
(3 9.27852e-16 0)
(3 8.2091e-16 0)
(3 9.47492e-16 0)
(3 1.06298e-15 0)
(3 1.55895e-15 0)
(3 1.58162e-15 0)
(3 1.6655e-15 0)
(3 1.1655e-15 0)
(3 1.11848e-15 0)
(3 1.75531e-15 0)
(3 2.16435e-15 0)
(3 2.30037e-15 0)
(3 2.5227e-15 0)
(3 2.3908e-15 0)
(3 1.96491e-15 0)
(3 1.87655e-15 0)
(3 1.82045e-15 0)
(3 1.75188e-15 0)
(3 1.59193e-15 0)
(3 1.30663e-15 0)
(3 1.15142e-15 0)
(3 1.09052e-15 0)
(3 8.95852e-16 0)
(3 -2.44656e-17 0)
(3 -1.30356e-17 0)
(3 4.50794e-16 0)
(3 5.46889e-16 0)
(3 8.12792e-16 0)
(3 8.75906e-16 0)
(3 -3.9636e-16 0)
(3 -4.22618e-16 0)
(3 8.9601e-18 0)
(3 9.99414e-16 0)
(3 1.77561e-15 0)
(3.00003 0.000101376 0)
(1.21265 0.136272 0)
(0.776693 0.114666 0)
(0.756944 0.125077 0)
(0.742393 0.127065 0)
(0.7269 0.12716 0)
(0.711136 0.126314 0)
(0.694953 0.125607 0)
(0.678992 0.126703 0)
(0.664015 0.129625 0)
(0.649932 0.13291 0)
(0.635856 0.135179 0)
(0.62107 0.135595 0)
(0.605567 0.136122 0)
(0.59041 0.13901 0)
(0.575901 0.141795 0)
(0.561826 0.141677 0)
(0.547538 0.141279 0)
(0.53269 0.143884 0)
(0.517252 0.148074 0)
(0.501077 0.150597 0)
(0.484966 0.15159 0)
(0.469187 0.15303 0)
(0.453587 0.155404 0)
(0.437814 0.157999 0)
(0.421728 0.160341 0)
(0.405381 0.162589 0)
(0.388816 0.164991 0)
(0.372018 0.167481 0)
(0.354934 0.169821 0)
(0.337484 0.17191 0)
(0.319561 0.173832 0)
(0.301069 0.17564 0)
(0.281999 0.177299 0)
(0.262495 0.178826 0)
(0.242827 0.180297 0)
(0.223265 0.18174 0)
(0.203956 0.18315 0)
(0.184871 0.184594 0)
(0.16585 0.186168 0)
(0.146681 0.187916 0)
(0.127201 0.189895 0)
(0.107385 0.192159 0)
(0.0873937 0.194961 0)
(0.0674003 0.19804 0)
(0.0478513 0.202178 0)
(0.02832 0.204607 0)
(0.00973691 0.208714 0)
(3 -7.92551e-17 0)
(3 -2.60948e-16 0)
(3 -3.30018e-16 0)
(3 -2.93052e-16 0)
(3 -3.74258e-16 0)
(3 -2.36222e-16 0)
(3 -1.25019e-16 0)
(3 1.92775e-17 0)
(3 3.62722e-18 0)
(3 -2.55317e-17 0)
(3 -1.13601e-16 0)
(3 -1.82516e-16 0)
(3 -1.36816e-16 0)
(3 1.80332e-16 0)
(3 5.84322e-16 0)
(3 5.63447e-16 0)
(3 5.64916e-16 0)
(3 8.70265e-16 0)
(3 9.18268e-16 0)
(3 1.13539e-15 0)
(3 1.31841e-15 0)
(3 1.18566e-15 0)
(3 1.27863e-15 0)
(3 1.53252e-15 0)
(3 8.83553e-16 0)
(3 7.6944e-16 0)
(3 6.82037e-16 0)
(3 1.39675e-15 0)
(3 7.54216e-16 0)
(3 -1.47998e-16 0)
(3 -2.59577e-16 0)
(3 5.57418e-16 0)
(3 1.12508e-15 0)
(3 6.35699e-16 0)
(3 7.31916e-16 0)
(3 1.35064e-15 0)
(3 3.48015e-16 0)
(3 1.25918e-16 0)
(3 1.62291e-16 0)
(3 1.21837e-16 0)
(3 7.33131e-16 0)
(3 1.77999e-15 0)
(3 1.94487e-15 0)
(3 1.72538e-15 0)
(3 1.45368e-15 0)
(3 1.58818e-15 0)
(3 1.53066e-15 0)
(3 1.43854e-15 0)
(3 1.79205e-07 0)
(1.41315 0.167008 0)
(0.78961 0.14027 0)
(0.75847 0.146664 0)
(0.743813 0.150269 0)
(0.726958 0.151716 0)
(0.710089 0.151904 0)
(0.693092 0.151056 0)
(0.676926 0.150526 0)
(0.662198 0.151345 0)
(0.648678 0.15362 0)
(0.635457 0.156792 0)
(0.621367 0.159294 0)
(0.606364 0.161152 0)
(0.591486 0.16366 0)
(0.57735 0.165355 0)
(0.563935 0.164857 0)
(0.550345 0.164932 0)
(0.536365 0.168378 0)
(0.521823 0.173551 0)
(0.506285 0.176717 0)
(0.49066 0.177739 0)
(0.475383 0.179252 0)
(0.460467 0.182183 0)
(0.445508 0.18562 0)
(0.430199 0.188692 0)
(0.414523 0.191517 0)
(0.398489 0.194545 0)
(0.382064 0.197789 0)
(0.365202 0.200959 0)
(0.347864 0.203894 0)
(0.329982 0.206658 0)
(0.311467 0.209308 0)
(0.292285 0.211797 0)
(0.272552 0.214113 0)
(0.252518 0.216316 0)
(0.232454 0.218419 0)
(0.212507 0.220381 0)
(0.192659 0.222225 0)
(0.172761 0.224028 0)
(0.152627 0.225818 0)
(0.132148 0.227701 0)
(0.111364 0.229737 0)
(0.0905047 0.2324 0)
(0.0697297 0.235319 0)
(0.0495343 0.239667 0)
(0.0293309 0.242228 0)
(0.0100666 0.246685 0)
(3 -6.49128e-17 0)
(3 -1.09113e-16 0)
(3 -1.19034e-17 0)
(3 1.25653e-16 0)
(3 4.29e-16 0)
(3 6.03813e-16 0)
(3 7.1295e-16 0)
(3 9.13185e-16 0)
(3 8.03017e-16 0)
(3 5.74301e-16 0)
(3 2.33497e-16 0)
(3 5.30643e-16 0)
(3 5.38504e-16 0)
(3 1.72113e-17 0)
(3 -1.94345e-17 0)
(3 4.817e-17 0)
(3 2.91818e-16 0)
(3 3.16881e-16 0)
(3 2.55997e-16 0)
(3 5.47849e-16 0)
(3 9.00549e-16 0)
(3 7.67237e-16 0)
(3 6.80992e-17 0)
(3 -3.37642e-16 0)
(3 -8.81083e-16 0)
(3 -1.27218e-15 0)
(3 -1.35374e-15 0)
(3 -4.17978e-16 0)
(3 1.51944e-16 0)
(3 2.14845e-16 0)
(3 1.78817e-16 0)
(3 -3.10364e-16 0)
(3 -7.21658e-16 0)
(3 -8.69135e-16 0)
(3 -3.9171e-16 0)
(3 1.47124e-16 0)
(3 9.89844e-16 0)
(3 1.29408e-15 0)
(3 1.07548e-15 0)
(3 7.94807e-16 0)
(3 1.29821e-15 0)
(3 2.04607e-15 0)
(3 2.16076e-15 0)
(3 2.23331e-15 0)
(3 2.44353e-15 0)
(3 1.53114e-15 0)
(3 -1.54259e-16 0)
(3 -6.35146e-16 0)
(3 4.76917e-10 0)
(1.72755 0.188642 0)
(0.815769 0.168455 0)
(0.764585 0.171086 0)
(0.749552 0.176691 0)
(0.731404 0.179445 0)
(0.71366 0.180233 0)
(0.695915 0.178752 0)
(0.679261 0.175955 0)
(0.664047 0.174157 0)
(0.649994 0.175275 0)
(0.636597 0.179304 0)
(0.622547 0.184104 0)
(0.607404 0.187629 0)
(0.592177 0.18973 0)
(0.577766 0.190036 0)
(0.564284 0.188864 0)
(0.550781 0.189181 0)
(0.5372 0.193329 0)
(0.523253 0.199467 0)
(0.508168 0.203415 0)
(0.492883 0.204475 0)
(0.478005 0.205876 0)
(0.463775 0.209285 0)
(0.449813 0.213762 0)
(0.435528 0.217891 0)
(0.420796 0.221516 0)
(0.405635 0.22528 0)
(0.389999 0.229386 0)
(0.373823 0.233551 0)
(0.357074 0.237548 0)
(0.339709 0.2414 0)
(0.321646 0.245155 0)
(0.302835 0.248745 0)
(0.283356 0.252116 0)
(0.263426 0.255298 0)
(0.243279 0.258293 0)
(0.22303 0.261028 0)
(0.20264 0.263479 0)
(0.181958 0.265696 0)
(0.160838 0.267682 0)
(0.139252 0.269591 0)
(0.117323 0.271449 0)
(0.0953616 0.27397 0)
(0.073512 0.276616 0)
(0.0523082 0.281068 0)
(0.0310322 0.283711 0)
(0.0106458 0.288452 0)
(3 6.1619e-17 0)
(3 2.80764e-16 0)
(3 3.32971e-16 0)
(3 2.51893e-16 0)
(3 4.90203e-17 0)
(3 -1.8532e-16 0)
(3 -2.6334e-16 0)
(3 -3.8355e-16 0)
(3 -3.23842e-16 0)
(3 -5.54e-17 0)
(3 -6.83132e-16 0)
(3 -9.3412e-16 0)
(3 -9.08566e-16 0)
(3 -7.70945e-16 0)
(3 -1.13368e-15 0)
(3 -1.05273e-15 0)
(3 -1.04636e-15 0)
(3 -9.62724e-16 0)
(3 -7.00915e-16 0)
(3 -6.76785e-16 0)
(3 -8.718e-16 0)
(3 -1.11454e-15 0)
(3 -1.51757e-15 0)
(3 -2.67083e-15 0)
(3 -2.89402e-15 0)
(3 -2.28603e-15 0)
(3 -1.98182e-15 0)
(3 -1.80132e-15 0)
(3 -9.80071e-16 0)
(3 -1.14858e-15 0)
(3 -1.05556e-15 0)
(3 -1.1588e-15 0)
(3 -9.08974e-16 0)
(3 -5.22177e-16 0)
(3 -4.98205e-16 0)
(3 -6.22689e-16 0)
(3 -2.96569e-17 0)
(3 5.05218e-16 0)
(3 8.56804e-16 0)
(3 1.42799e-15 0)
(3 1.71113e-15 0)
(3 1.90895e-15 0)
(3 1.84142e-15 0)
(3 1.46954e-15 0)
(3 5.9287e-16 0)
(3 2.4439e-16 0)
(3 -5.65575e-16 0)
(3 -1.41626e-15 0)
(3 1.11203e-12 0)
(2.15516 0.193329 0)
(0.857731 0.207905 0)
(0.757213 0.195731 0)
(0.745038 0.2051 0)
(0.73063 0.209264 0)
(0.716251 0.211059 0)
(0.700663 0.209469 0)
(0.684978 0.205111 0)
(0.669746 0.201027 0)
(0.65507 0.200743 0)
(0.641311 0.205074 0)
(0.627517 0.211692 0)
(0.612528 0.216742 0)
(0.597155 0.218504 0)
(0.582419 0.217518 0)
(0.568437 0.215518 0)
(0.554461 0.215638 0)
(0.540641 0.220018 0)
(0.526754 0.226814 0)
(0.511692 0.231519 0)
(0.496252 0.232621 0)
(0.481183 0.233503 0)
(0.466916 0.236817 0)
(0.453315 0.242021 0)
(0.439531 0.247197 0)
(0.425283 0.251618 0)
(0.410669 0.256029 0)
(0.395703 0.260958 0)
(0.380296 0.266206 0)
(0.364363 0.271457 0)
(0.347832 0.276654 0)
(0.330602 0.281822 0)
(0.312581 0.286883 0)
(0.293788 0.291737 0)
(0.274366 0.296372 0)
(0.254479 0.300765 0)
(0.234182 0.304794 0)
(0.213409 0.308357 0)
(0.192035 0.311449 0)
(0.169975 0.314026 0)
(0.147301 0.31629 0)
(0.124211 0.318196 0)
(0.101072 0.320685 0)
(0.0780126 0.322982 0)
(0.0555995 0.327396 0)
(0.0330611 0.330034 0)
(0.011331 0.334991 0)
(3 -1.23679e-17 0)
(3 -2.83009e-16 0)
(3 -5.46197e-16 0)
(3 -3.87753e-16 0)
(3 -2.91655e-16 0)
(3 -3.38994e-16 0)
(3 -4.55216e-16 0)
(3 -6.19088e-16 0)
(3 -9.88496e-16 0)
(3 -1.59839e-15 0)
(3 -1.09276e-15 0)
(3 -6.97525e-16 0)
(3 -1.50286e-16 0)
(3 -5.54766e-16 0)
(3 -9.72205e-16 0)
(3 -1.17047e-15 0)
(3 -1.20809e-15 0)
(3 -1.31693e-15 0)
(3 -1.78432e-15 0)
(3 -1.85116e-15 0)
(3 -2.23766e-15 0)
(3 -2.11631e-15 0)
(3 -1.73742e-15 0)
(3 -1.54695e-15 0)
(3 -1.39959e-15 0)
(3 -1.47853e-15 0)
(3 -1.59086e-15 0)
(3 -1.29786e-15 0)
(3 -1.20733e-15 0)
(3 -1.37476e-15 0)
(3 -1.3535e-15 0)
(3 -1.24027e-15 0)
(3 -1.14242e-15 0)
(3 -7.86669e-16 0)
(3 -1.19831e-15 0)
(3 -1.50354e-15 0)
(3 -7.74985e-16 0)
(3 1.25231e-15 0)
(3 1.57777e-15 0)
(3 1.57315e-15 0)
(3 8.47493e-16 0)
(3 -4.1421e-17 0)
(3 -8.78959e-17 0)
(3 2.65022e-16 0)
(3 1.26115e-16 0)
(3 1.61845e-16 0)
(3 6.34664e-16 0)
(3 9.87598e-16 0)
(3 4.27876e-15 0)
(2.6845 0.170552 0)
(0.960816 0.253383 0)
(0.780812 0.228863 0)
(0.770208 0.224921 0)
(0.755478 0.229248 0)
(0.741669 0.233595 0)
(0.726033 0.234913 0)
(0.709756 0.232005 0)
(0.693561 0.227601 0)
(0.677486 0.226389 0)
(0.662368 0.230771 0)
(0.648126 0.238846 0)
(0.632952 0.245608 0)
(0.617116 0.24788 0)
(0.601579 0.246706 0)
(0.586443 0.244601 0)
(0.571291 0.244657 0)
(0.556452 0.249122 0)
(0.542004 0.256515 0)
(0.52658 0.262324 0)
(0.510444 0.264137 0)
(0.49441 0.264706 0)
(0.479023 0.267558 0)
(0.464589 0.27304 0)
(0.450262 0.279078 0)
(0.435472 0.284191 0)
(0.420349 0.288968 0)
(0.405034 0.294358 0)
(0.389478 0.300408 0)
(0.373549 0.306746 0)
(0.357167 0.313204 0)
(0.340264 0.319775 0)
(0.322779 0.326389 0)
(0.3047 0.332905 0)
(0.286084 0.339243 0)
(0.266967 0.345331 0)
(0.247262 0.351 0)
(0.226773 0.356083 0)
(0.205299 0.360553 0)
(0.182726 0.36434 0)
(0.159162 0.367677 0)
(0.134821 0.370359 0)
(0.110145 0.373436 0)
(0.0852722 0.375747 0)
(0.060883 0.380212 0)
(0.0362771 0.382835 0)
(0.0124388 0.388035 0)
(3 -4.54771e-17 0)
(3 -1.45766e-17 0)
(3 -8.82515e-17 0)
(3 -2.03984e-16 0)
(3 -2.00898e-16 0)
(3 -4.00378e-16 0)
(3 -3.20393e-16 0)
(3 -5.20469e-16 0)
(3 -5.0904e-16 0)
(3 -2.88849e-16 0)
(3 2.82285e-16 0)
(3 7.54042e-16 0)
(3 8.05448e-16 0)
(3 1.6042e-16 0)
(3 2.25816e-16 0)
(3 -1.80651e-16 0)
(3 -2.25456e-16 0)
(3 -1.03734e-15 0)
(3 -1.74777e-15 0)
(3 -2.15864e-15 0)
(3 -1.95972e-15 0)
(3 -1.7285e-15 0)
(3 -1.42303e-15 0)
(3 -1.14102e-15 0)
(3 -3.00573e-16 0)
(3 -4.38577e-17 0)
(3 -7.52958e-17 0)
(3 -2.06688e-16 0)
(3 -6.75694e-16 0)
(3 -9.6047e-16 0)
(3 -9.12395e-16 0)
(3 -9.31527e-16 0)
(3 -9.38284e-16 0)
(3 -7.11474e-16 0)
(3 -7.63841e-16 0)
(3 -3.76815e-16 0)
(3 -9.19457e-17 0)
(3 -2.24302e-16 0)
(3 1.30913e-16 0)
(3 6.0399e-16 0)
(3 -5.60232e-16 0)
(3 -1.49467e-15 0)
(3 -1.05562e-15 0)
(3 -7.42181e-16 0)
(3 1.76914e-16 0)
(3 6.33514e-16 0)
(3 1.18151e-15 0)
(3 2.63269e-15 0)
(3 2.8583e-15 0)
(3.02021 0.0102043 0)
(1.14768 0.277543 0)
(0.806293 0.232028 0)
(0.792786 0.246502 0)
(0.779189 0.25484 0)
(0.765273 0.260777 0)
(0.750828 0.263367 0)
(0.735709 0.261766 0)
(0.720238 0.257843 0)
(0.704365 0.255632 0)
(0.688952 0.258692 0)
(0.675001 0.266246 0)
(0.660748 0.273424 0)
(0.645589 0.276388 0)
(0.630261 0.275813 0)
(0.614904 0.274135 0)
(0.599327 0.274082 0)
(0.583899 0.278072 0)
(0.569123 0.285487 0)
(0.55383 0.292514 0)
(0.537504 0.296119 0)
(0.520815 0.297294 0)
(0.504366 0.299673 0)
(0.488781 0.305055 0)
(0.473612 0.311944 0)
(0.457988 0.318169 0)
(0.44191 0.323608 0)
(0.425642 0.329485 0)
(0.409235 0.336279 0)
(0.392543 0.343665 0)
(0.375468 0.35134 0)
(0.358003 0.359251 0)
(0.340148 0.367386 0)
(0.321877 0.375658 0)
(0.303126 0.38397 0)
(0.283785 0.392236 0)
(0.263623 0.400286 0)
(0.242338 0.407864 0)
(0.219751 0.414852 0)
(0.195835 0.420997 0)
(0.170851 0.426421 0)
(0.145058 0.43066 0)
(0.118913 0.434885 0)
(0.092313 0.437585 0)
(0.0659128 0.441975 0)
(0.0392794 0.444316 0)
(0.0133207 0.449464 0)
(3 1.68896e-17 0)
(3 -1.19462e-16 0)
(3 -2.22019e-16 0)
(3 -7.81492e-16 0)
(3 -7.57752e-16 0)
(3 -8.63969e-16 0)
(3 -6.51555e-16 0)
(3 -4.48338e-16 0)
(3 -2.46218e-17 0)
(3 2.27287e-16 0)
(3 1.45657e-16 0)
(3 1.63355e-16 0)
(3 -1.80099e-16 0)
(3 -3.38007e-16 0)
(3 -2.22981e-16 0)
(3 -2.56922e-16 0)
(3 -2.85129e-16 0)
(3 -3.14246e-16 0)
(3 -1.04262e-15 0)
(3 -1.47806e-15 0)
(3 -1.70206e-15 0)
(3 -1.15522e-15 0)
(3 -1.0066e-15 0)
(3 -8.69648e-16 0)
(3 -9.64776e-16 0)
(3 -6.31413e-16 0)
(3 2.4537e-16 0)
(3 -2.02517e-18 0)
(3 -4.25827e-16 0)
(3 -3.21369e-16 0)
(3 -5.93278e-16 0)
(3 -5.54102e-16 0)
(3 4.02163e-16 0)
(3 3.3247e-16 0)
(3 1.52927e-16 0)
(3 -1.50689e-16 0)
(3 -9.4889e-16 0)
(3 -1.43904e-15 0)
(3 -1.92529e-15 0)
(3 -2.11733e-15 0)
(3 -1.30621e-15 0)
(3 -6.72133e-16 0)
(3 -9.1163e-16 0)
(3 -1.25994e-15 0)
(3 -1.04848e-15 0)
(3 -3.93623e-16 0)
(3 2.28203e-16 0)
(3 1.38802e-16 0)
(3 6.34218e-16 0)
(3.00029 1.03255e-05 0)
(1.55921 0.309873 0)
(0.824029 0.276553 0)
(0.778811 0.277657 0)
(0.766895 0.285365 0)
(0.754538 0.289813 0)
(0.742685 0.292724 0)
(0.729877 0.293143 0)
(0.71623 0.291483 0)
(0.70201 0.290036 0)
(0.68783 0.29214 0)
(0.675026 0.298646 0)
(0.662618 0.306096 0)
(0.649359 0.310296 0)
(0.635746 0.311028 0)
(0.621951 0.310452 0)
(0.607834 0.310855 0)
(0.593617 0.314359 0)
(0.579923 0.321249 0)
(0.566238 0.329046 0)
(0.551582 0.334579 0)
(0.536131 0.337129 0)
(0.520454 0.339286 0)
(0.505252 0.343913 0)
(0.490726 0.350858 0)
(0.475962 0.35794 0)
(0.460533 0.364069 0)
(0.444656 0.370237 0)
(0.428495 0.377402 0)
(0.411945 0.385497 0)
(0.394915 0.394127 0)
(0.3775 0.403174 0)
(0.359827 0.412663 0)
(0.341942 0.422594 0)
(0.323747 0.432872 0)
(0.305049 0.443369 0)
(0.285609 0.453918 0)
(0.265059 0.464097 0)
(0.243149 0.473683 0)
(0.219604 0.482254 0)
(0.194623 0.490047 0)
(0.168009 0.496684 0)
(0.139938 0.503774 0)
(0.109908 0.509574 0)
(0.0787862 0.515865 0)
(0.0468179 0.518856 0)
(0.0156947 0.523732 0)
(3 5.80646e-18 0)
(3 -1.42696e-16 0)
(3 -8.40897e-17 0)
(3 -1.60441e-17 0)
(3 -2.46286e-16 0)
(3 -3.0529e-16 0)
(3 -3.49344e-16 0)
(3 1.13229e-16 0)
(3 4.31346e-16 0)
(3 2.97996e-16 0)
(3 5.91294e-17 0)
(3 -2.08008e-17 0)
(3 8.30589e-17 0)
(3 2.37478e-16 0)
(3 2.67321e-16 0)
(3 3.84857e-16 0)
(3 4.40329e-16 0)
(3 5.86802e-16 0)
(3 1.59932e-16 0)
(3 -3.37675e-16 0)
(3 -7.85555e-16 0)
(3 -1.61072e-15 0)
(3 -1.02045e-15 0)
(3 -5.98892e-16 0)
(3 -6.05333e-16 0)
(3 -6.46433e-16 0)
(3 -5.25346e-16 0)
(3 -4.42467e-16 0)
(3 -1.58923e-16 0)
(3 -2.38367e-16 0)
(3 -3.02491e-16 0)
(3 -8.34839e-17 0)
(3 -3.94368e-16 0)
(3 -2.53283e-16 0)
(3 -1.39466e-16 0)
(3 -3.737e-16 0)
(3 -4.96579e-16 0)
(3 -2.81938e-16 0)
(3 -1.94161e-16 0)
(3 -9.02686e-17 0)
(3 2.18922e-16 0)
(3 7.60999e-16 0)
(3 7.04106e-16 0)
(3 -3.6459e-17 0)
(3 -1.06413e-15 0)
(3 -1.17244e-15 0)
(3 -1.00453e-15 0)
(3 -2.97285e-17 0)
(3 2.72766e-16 0)
(3 1.78019e-08 0)
(2.3824 0.282551 0)
(0.919064 0.338056 0)
(0.791435 0.314514 0)
(0.779227 0.309924 0)
(0.76665 0.313399 0)
(0.755354 0.318065 0)
(0.74294 0.321293 0)
(0.729676 0.322191 0)
(0.71608 0.321858 0)
(0.702462 0.323079 0)
(0.689799 0.327936 0)
(0.677999 0.334638 0)
(0.66566 0.339518 0)
(0.652802 0.341581 0)
(0.639685 0.34247 0)
(0.626328 0.343913 0)
(0.612831 0.347412 0)
(0.599602 0.353676 0)
(0.586704 0.361632 0)
(0.573394 0.368928 0)
(0.559176 0.373809 0)
(0.544355 0.376966 0)
(0.529567 0.381294 0)
(0.515469 0.388203 0)
(0.501624 0.396377 0)
(0.48717 0.404061 0)
(0.471974 0.411312 0)
(0.456225 0.419326 0)
(0.43992 0.428482 0)
(0.423023 0.43845 0)
(0.40571 0.449018 0)
(0.388142 0.460167 0)
(0.370472 0.471986 0)
(0.352553 0.484523 0)
(0.334012 0.497663 0)
(0.314463 0.511325 0)
(0.293409 0.525165 0)
(0.270519 0.539082 0)
(0.24532 0.55269 0)
(0.217735 0.566213 0)
(0.187587 0.579001 0)
(0.155884 0.59197 0)
(0.123095 0.603602 0)
(0.089485 0.612995 0)
(0.0545883 0.617702 0)
(0.0175028 0.620731 0)
(3 8.76979e-18 0)
(3 1.86159e-16 0)
(3 1.88997e-16 0)
(3 3.72868e-16 0)
(3 3.00309e-16 0)
(3 2.00048e-16 0)
(3 2.26094e-16 0)
(3 1.65472e-16 0)
(3 3.03107e-16 0)
(3 8.56e-16 0)
(3 1.02508e-15 0)
(3 8.15419e-16 0)
(3 2.3748e-16 0)
(3 -2.60634e-17 0)
(3 3.61029e-17 0)
(3 2.37813e-16 0)
(3 2.24679e-16 0)
(3 -1.29093e-16 0)
(3 3.51401e-16 0)
(3 8.84752e-16 0)
(3 8.30384e-16 0)
(3 3.39969e-16 0)
(3 5.75304e-16 0)
(3 8.7757e-16 0)
(3 9.05775e-16 0)
(3 8.01111e-16 0)
(3 8.18115e-16 0)
(3 5.76574e-16 0)
(3 2.15268e-16 0)
(3 -3.59367e-16 0)
(3 -8.76308e-16 0)
(3 -1.24865e-15 0)
(3 -1.53476e-15 0)
(3 -1.46415e-15 0)
(3 -1.10482e-15 0)
(3 -7.03291e-16 0)
(3 -3.28511e-16 0)
(3 -2.41571e-16 0)
(3 -1.35844e-16 0)
(3 8.53849e-17 0)
(3 4.00031e-16 0)
(3 6.40543e-16 0)
(3 8.01111e-16 0)
(3 9.17722e-16 0)
(3 2.20019e-15 0)
(3 2.77772e-15 0)
(3 2.22944e-15 0)
(3 1.77414e-15 0)
(3 2.06701e-15 0)
(3 -6.36345e-09 0)
(3.02853 0.0178286 0)
(1.25085 0.37741 0)
(0.841512 0.326465 0)
(0.820591 0.329642 0)
(0.806009 0.333669 0)
(0.792323 0.339942 0)
(0.778491 0.345321 0)
(0.7642 0.348232 0)
(0.749792 0.34956 0)
(0.735428 0.350981 0)
(0.721633 0.354725 0)
(0.708796 0.360751 0)
(0.695975 0.366478 0)
(0.682701 0.370289 0)
(0.669226 0.373053 0)
(0.655718 0.376109 0)
(0.642239 0.380327 0)
(0.628924 0.386235 0)
(0.615943 0.393723 0)
(0.603136 0.401834 0)
(0.589869 0.409055 0)
(0.575823 0.414447 0)
(0.561445 0.419364 0)
(0.547537 0.426167 0)
(0.534289 0.435011 0)
(0.520956 0.444471 0)
(0.50688 0.45359 0)
(0.491928 0.462949 0)
(0.476336 0.473359 0)
(0.46011 0.48486 0)
(0.443438 0.497249 0)
(0.426595 0.510446 0)
(0.409663 0.524567 0)
(0.392664 0.539868 0)
(0.375059 0.556352 0)
(0.35644 0.574052 0)
(0.336564 0.592824 0)
(0.315359 0.612558 0)
(0.292472 0.632737 0)
(0.267604 0.652787 0)
(0.240415 0.671446 0)
(0.210607 0.687578 0)
(0.178565 0.703124 0)
(0.141223 0.721546 0)
(0.0952881 0.743328 0)
(0.0366329 0.762786 0)
(3 8.70711e-17 0)
(3 1.65319e-16 0)
(3 2.3044e-16 0)
(3 3.62612e-16 0)
(3 5.68372e-16 0)
(3 6.60955e-16 0)
(3 5.4072e-16 0)