/*--------------------------------*- C++ -*----------------------------------*\
  =========                 |
  \\      /  F ield         | OpenFOAM: The Open Source CFD Toolbox
   \\    /   O peration     | Website:  https://openfoam.org
    \\  /    A nd           | Version:  7
     \\/     M anipulation  |
\*---------------------------------------------------------------------------*/
FoamFile
{
    version     2.0;
    format      ascii;
    class       volScalarField;
    location    "30";
    object      p;
}
// * * * * * * * * * * * * * * * * * * * * * * * * * * * * * * * * * * * * * //

dimensions      [0 2 -2 0 0 0 0];

internalField   nonuniform List<scalar> 
16000
(
8.7302684e-06
-0.0001315462
-0.00044303676
-0.00084539719
-0.0012636093
-0.0016522813
-0.0019805403
-0.0022295457
-0.00238866
-0.0024521781
-0.0024171593
-0.0022821463
-0.0020465691
-0.0017106719
-0.0012758127
-0.00074499981
-0.00012354323
0.00058029004
0.0013547208
0.002184093
0.0030487792
0.0039254235
0.0047875474
0.0056065606
0.0063531326
0.0069988761
0.0075182343
0.0078904232
0.0081012597
0.008144705
0.0080239808
0.0077521691
0.0073522662
0.00685674
0.0063064738
0.0057489751
0.0052392412
0.0048335303
0.0045935741
0.0045547713
0.00015334935
8.4420576e-06
-0.00024164241
-0.00055052297
-0.00087271926
-0.0011739214
-0.0014298838
-0.0016244263
-0.0017471886
-0.0017917285
-0.0017541056
-0.0016319557
-0.0014240238
-0.0011300781
-0.0007511108
-0.00028972874
0.00024935931
0.00085884486
0.0015283951
0.0022443744
0.0029897774
0.0037445732
0.0044860573
0.0051898822
0.0058312024
0.0063861174
0.0068332894
0.0071556062
0.0073417377
0.0073874236
0.007296348
0.0070805169
0.0067601174
0.0063628957
0.0059230833
0.0054797277
0.0050740051
0.0047492896
0.0045507027
0.004515192
0.00047201081
0.00025412794
-1.7076346e-06
-0.00028075421
-0.0005609987
-0.00081793747
-0.0010337813
-0.0011964716
-0.0012978018
-0.0013322521
-0.0012961042
-0.001186826
-0.0010027763
-0.00074319909
-0.00040844066
-3.1909433e-07
0.00047742674
0.0010186807
0.0016145532
0.0022531157
0.0029193643
0.0035953405
0.0042606777
0.0048933781
0.0054709096
0.0059715505
0.0063758932
0.0066683902
0.0068388038
0.0068834012
0.0068057387
0.0066169212
0.0063352995
0.0059856517
0.0055979405
0.0052056312
0.0048433733
0.0045454279
0.0043480717
0.0042807472
0.00089362762
0.0005623688
0.00026167678
-2.4107501e-05
-0.00029470975
-0.00053385918
-0.00072999115
-0.00087589092
-0.00096648628
-0.00099808168
-0.00096786419
-0.00087354809
-0.00071326212
-0.00048566712
-0.00019025311
0.00017223861
0.00059932752
0.0010863018
0.0016257849
0.0022074313
0.0028178154
0.0034404909
0.0040564916
0.0046450212
0.0051845136
0.0056539583
0.0060343986
0.0063104765
0.0064718784
0.006514524
0.0064413441
0.0062625081
0.0059950285
0.0056617691
0.0052899762
0.0049095059
0.0045510472
0.0042445898
0.0040166931
0.0038811227
0.0013444264
0.00088475836
0.00052160409
0.00021128991
-6.6418166e-05
-0.00030247623
-0.00049120879
-0.00063035387
-0.00071825447
-0.00075334459
-0.0007339612
-0.00065820315
-0.00052398852
-0.00032930796
-7.2627648e-05
0.00024660204
0.00062737967
0.0010665819
0.001558449
0.0020941923
0.0026617886
0.0032460134
0.003828794
0.0043898836
0.0049078878
0.0053615987
0.0057315457
0.0060016203
0.0061605984
0.0062033877
0.0061318372
0.0059549784
0.0056886078
0.0053541946
0.0049771956
0.0045851108
0.0042061689
0.0038675718
0.0035848985
0.0033612986
0.001771273
0.0011781452
0.00074348342
0.0003974359
0.00010087472
-0.00014341491
-0.0003351249
-0.00047670799
-0.00056985499
-0.00061514146
-0.00061207731
-0.00055913633
-0.00045396288
-0.00029375948
-7.5807603e-05
0.00020191715
0.00054007504
0.00093728515
0.0013894987
0.0018894894
0.0024265334
0.0029863567
0.0035513883
0.0041013981
0.0046144995
0.0050685064
0.0054425629
0.0057188994
0.0058845174
0.005932583
0.0058633368
0.0056843854
0.0054103025
0.0050615113
0.0046624591
0.0042395036
0.0038200122
0.0034304661
0.0030778915
0.0027505989
0.0021289642
0.0014039874
0.0008944014
0.00050617169
0.00018290227
-7.8076075e-05
-0.00028127911
-0.00043348747
-0.00053948421
-0.00060181437
-0.00062102872
-0.00059585257
-0.00052352115
-0.00040029211
-0.00022208575
1.4783231e-05
0.00031281837
0.00067254178
0.001091737
0.0015648012
0.0020822848
0.0026307217
0.003192768
0.0037477943
0.0042728674
0.0047441405
0.005138572
0.0054358369
0.005620229
0.0056823017
0.0056199931
0.0054390548
0.0051527144
0.0047805677
0.0043466758
0.0038773438
0.0034006245
0.0029441339
0.0025078847
0.0020663277
0.0023789371
0.0015275324
0.00094345965
0.0005102859
0.00015570158
-0.00012785273
-0.00034924574
-0.0005191631
-0.00064513668
-0.00073140265
-0.0007793192
-0.00078765812
-0.00075305333
-0.00067062518
-0.00053473251
-0.00033982048
-8.1331404e-05
0.00024336325
0.00063406353
0.0010869397
0.0015939121
0.0021423373
0.0027149898
0.0032905818
0.003844703
0.0043512465
0.0047842293
0.0051198759
0.0053387716
0.0054278244
0.0053817357
0.0052037176
0.0049053286
0.0045054164
0.0040281494
0.0035007216
0.0029532909
0.0024163964
0.001884991
0.0013224573
0.0024873842
0.0015170889
0.0008613582
0.00038289815
-5.4044905e-06
-0.00031562618
-0.00056060583
-0.00075453044
-0.00090731738
-0.0010245751
-0.0011081885
-0.0011567267
-0.0011659948
-0.001129757
-0.001040587
-0.00089082177
-0.00067359193
-0.00038388985
-1.962102e-05
0.00041742544
0.00092077494
0.0014787942
0.0020744505
0.0026857257
0.0032864526
0.0038477485
0.0043399409
0.0047348526
0.0050082472
0.0051421756
0.0051269024
0.0049620853
0.0046569707
0.0042295096
0.0037043365
0.0031103681
0.0024811765
0.0018519322
0.001214019
0.00052053059
0.0024238332
0.0013435768
0.00062053345
9.796407e-05
-0.00032507055
-0.00066491619
-0.00093807507
-0.0011618721
-0.0013482651
-0.0015039204
-0.0016309648
-0.0017275062
-0.0017882808
-0.0018054627
-0.0017695972
-0.0016706436
-0.0014991119
-0.001247261
-0.00091030811
-0.00048758924
1.6429053e-05
0.00059153139
0.0012211282
0.001882614
0.0025479786
0.0031851788
0.0037601355
0.0042392349
0.0045921298
0.0047945603
0.0048308515
0.004695718
0.0043950399
0.0039453601
0.0033719061
0.0027060374
0.001985997
0.0012532491
0.0004967542
-0.00034038118
0.0021605078
0.00098036112
0.00019538679
-0.00036916699
-0.00082711266
-0.0011988883
-0.0015044085
-0.0017638167
-0.0019908031
-0.0021928089
-0.0023719443
-0.0025256174
-0.002647267
-0.0027272442
-0.0027538103
-0.0027142496
-0.0025960921
-0.0023884277
-0.0020832709
-0.0016769251
-0.0011712456
-0.00057435247
9.8055213e-05
0.00082318101
0.0015713203
0.0023070785
0.0029913551
0.0035840277
0.0040471557
0.0043483944
0.0044642277
0.0043825884
0.0041044455
0.0036439402
0.0030266419
0.0022868734
0.0014687737
0.00062179551
-0.00026670898
-0.0012638765
0.0016722124
0.00040332408
-0.00043743479
-0.0010412701
-0.0015338529
-0.0019395635
-0.0022815144
-0.0025823883
-0.0028573462
-0.0031143684
-0.0033553365
-0.0035767636
-0.0037705981
-0.0039251564
-0.0040261641
-0.004057914
-0.0040045523
-0.0038514894
-0.0035869062
-0.0032032939
-0.0026989465
-0.0020794834
-0.0013584322
-0.00055820076
0.00029021891
0.0011481454
0.00197103
0.0027112283
0.0033215914
0.0037595755
0.0039914159
0.0039958312
0.0037667114
0.0033141933
0.0026634123
0.0018518382
0.00093065692
-4.0893396e-05
-0.0010765018
-0.0022543459
0.00093654802
-0.00040886969
-0.0012986634
-0.0019387326
-0.0024654697
-0.0029070423
-0.0032895651
-0.0036380181
-0.0039688219
-0.0042903196
-0.0046040135
-0.0049053865
-0.0051847585
-0.0054282451
-0.0056188111
-0.0057374438
-0.0057644744
-0.0056810594
-0.0054708117
-0.0051215293
-0.004626967
-0.003988767
-0.0032174314
-0.0023338429
-0.0013694451
-0.00036578828
0.00062699178
0.0015528899
0.0023539195
0.0029749486
0.0033690111
0.003502431
0.0033590206
0.002942501
0.0022760965
0.0014001137
0.00037376576
-0.00073199831
-0.0019314746
-0.0033151018
-6.5663174e-05
-0.0014743769
-0.0024059613
-0.0030790059
-0.0036393299
-0.0041187075
-0.004546068
-0.0049484798
-0.0053434684
-0.0057396319
-0.0061380167
-0.0065330145
-0.0069132502
-0.0072625378
-0.0075609099
-0.0077857677
-0.0079131992
-0.0079194992
-0.0077828994
-0.0074854854
-0.0070152628
-0.0063683484
-0.0055508013
-0.0045804427
-0.0034878497
-0.0023165316
-0.0011219116
3.1129756e-05
0.0010722775
0.0019312833
0.0025445349
0.0028619481
0.0028532007
0.0025120892
0.0018574774
0.00093149059
-0.00019795713
-0.0014461756
-0.0028276722
-0.0044466479
-0.0013498395
-0.0028077138
-0.0037734459
-0.0044760569
-0.0050693303
-0.0055884319
-0.006064922
-0.0065277824
-0.0069955488
-0.0074770437
-0.0079728674
-0.0084763483
-0.0089744365
-0.0094486259
-0.009875923
-0.010229929
-0.010482107
-0.010603296
-0.010565505
-0.01034399
-0.0099196009
-0.0092813354
-0.0084288724
-0.0073750132
-0.0061475853
-0.0047904998
-0.0033635268
-0.0019403894
-0.00060486322
0.0005552213
0.0014558156
0.0020255972
0.0022148304
0.002002448
0.0013991435
0.00044679916
-0.00077782016
-0.0021742231
-0.003756708
-0.0056448812
-0.0029270744
-0.0044192965
-0.0054112417
-0.006139864
-0.0067652912
-0.007325831
-0.0078555003
-0.0083850598
-0.0089340274
-0.0095115054
-0.010117753
-0.010745165
-0.011379137
-0.011998926
-0.012578516
-0.013087588
-0.013492689
-0.013758683
-0.013850551
-0.013735594
-0.013386023
-0.012781911
-0.011914383
-0.010788824
-0.0094278255
-0.007873388
-0.0061878365
-0.004452867
-0.0027661672
-0.0012352428
3.1542404e-05
0.00093612359
0.0014027913
0.0013889527
0.00089149068
-5.1554309e-05
-0.0013553103
-0.0029015639
-0.0047039361
-0.0068990881
-0.0048036237
-0.0063150546
-0.007325122
-0.008076014
-0.0087324529
-0.0093356121
-0.009921813
-0.010523518
-0.011161278
-0.011844626
-0.012573688
-0.013340162
-0.014128126
-0.014914794
-0.015671246
-0.016363246
-0.016952258
-0.017396772
-0.017654063
-0.017682431
-0.017443996
-0.016908022
-0.01605474
-0.014879367
-0.013396227
-0.011642308
-0.009679697
-0.0075960648
-0.0055023759
-0.0035270751
-0.0018063832
-0.00047097652
0.00036972088
0.0006430131
0.00032401862
-0.00055883578
-0.0019147829
-0.0036064436
-0.0056463013
-0.008189597
-0.0069805215
-0.008496191
-0.0095163079
-0.010285461
-0.010971136
-0.011617082
-0.012261819
-0.012939515
-0.013671912
-0.014469227
-0.015331774
-0.016250904
-0.017209726
-0.018183725
-0.019141327
-0.020044516
-0.020849654
-0.02150864
-0.021970537
-0.022183794
-0.02209915
-0.021673268
-0.020873086
-0.019680747
-0.018098834
-0.016155514
-0.013908791
-0.011448973
-0.0088981674
-0.0064056232
-0.0041379909
-0.0022642332
-0.00093607067
-0.0002668058
-0.0003137697
-0.0010668245
-0.0024337857
-0.0042577244
-0.0065497352
-0.0094849404
-0.0094533981
-0.010959161
-0.011981498
-0.012764519
-0.013476629
-0.014163877
-0.014866956
-0.015621867
-0.016451826
-0.017368129
-0.018371719
-0.019454059
-0.020597743
-0.021776959
-0.022957845
-0.024098884
-0.02515149
-0.026060943
-0.026767834
-0.02721018
-0.027326339
-0.027058831
-0.026359115
-0.025193382
-0.023548796
-0.021440371
-0.018917244
-0.016067611
-0.013020782
-0.0099446923
-0.0070372318
-0.004510276
-0.0025665738
-0.0013721605
-0.0010304681
-0.0015619763
-0.002880838
-0.0048121335
-0.0073659603
-0.01073837
-0.012212569
-0.013695944
-0.014713196
-0.015505154
-0.016239375
-0.016963983
-0.017721954
-0.018551427
-0.019477567
-0.020513296
-0.021660765
-0.022912121
-0.024249994
-0.025647784
-0.027069812
-0.02847146
-0.029799504
-0.030992784
-0.031983418
-0.032698738
-0.033064113
-0.03300679
-0.032460927
-0.031374441
-0.029715319
-0.027480914
-0.024706063
-0.021470841
-0.017905915
-0.014193355
-0.010560504
-0.0072646313
-0.004567285
-0.0027002031
-0.0018293992
-0.0020225797
-0.0032124378
-0.0052107997
-0.008028552
-0.011883582
-0.015243456
-0.016694666
-0.017700413
-0.018495642
-0.019245497
-0.020000075
-0.020804968
-0.021701027
-0.022716077
-0.023865428
-0.025153169
-0.026572813
-0.028107645
-0.029730846
-0.031405434
-0.03308417
-0.034709615
-0.036214526
-0.0375228
-0.038551168
-0.039211831
-0.039416179
-0.039079812
-0.03813096
-0.036514841
-0.034206983
-0.031222308
-0.027625906
-0.023542241
-0.019160373
-0.014732051
-0.010559094
-0.0069671748
-0.0042661791
-0.0027032726
-0.0024145341
-0.0033690435
-0.0053748857
-0.0084480995
-0.012829502
-0.018527415
-0.019940672
-0.0209298
-0.021721634
-0.022477709
-0.02325022
-0.024088064
-0.02503576
-0.026124857
-0.027374067
-0.028790329
-0.030369298
-0.032095579
-0.033942701
-0.035872891
-0.037836762
-0.039773129
-0.041609131
-0.043260895
-0.044634934
-0.045630542
-0.046143472
-0.046071103
-0.045317669
-0.043806593
-0.041487342
-0.038349526
-0.034436164
-0.029856821
-0.024798067
-0.01952747
-0.014386247
-0.0097654135
-0.0060629857
-0.0036264029
-0.0026853579
-0.0032697594
-0.0052001243
-0.0085063033
-0.013454008
-0.022043006
-0.0234181
-0.024387294
-0.025167686
-0.025916615
-0.026688909
-0.027537997
-0.028513604
-0.029652521
-0.030978214
-0.032501572
-0.034221255
-0.036123843
-0.038183725
-0.040362753
-0.042609784
-0.044860295
-0.047036273
-0.049046605
-0.050788197
-0.052148056
-0.053006647
-0.053242709
-0.052739376
-0.051394265
-0.049129082
-0.045904154
-0.041734009
-0.036704402
-0.030988392
-0.02485759
-0.018682659
-0.012915601
-0.0080477898
-0.004544222
-0.0027560801
-0.0028054502
-0.0045500506
-0.0080488399
-0.013596468
-0.025767817
-0.027112105
-0.028060374
-0.028819286
-0.029542388
-0.030288358
-0.031117239
-0.032086286
-0.033239684
-0.034607401
-0.036205581
-0.038036797
-0.040090186
-0.042341358
-0.04475203
-0.0472695
-0.049826141
-0.052339126
-0.054710598
-0.056828514
-0.058568431
-0.059796478
-0.060373758
-0.060162448
-0.059035268
-0.056884983
-0.053640085
-0.04928169
-0.04386376
-0.037534565
-0.030555837
-0.023313311
-0.016309196
-0.010126514
-0.0053602177
-0.0025108293
-0.0018300391
-0.0032477168
-0.0068767985
-0.013048953
-0.029680952
-0.031011896
-0.03194106
-0.032665426
-0.033336766
-0.03401999
-0.034785077
-0.035700261
-0.036820047
-0.038183115
-0.039812356
-0.041715127
-0.043883537
-0.046294522
-0.048909602
-0.051674407
-0.054518156
-0.057353295
-0.060075513
-0.062564372
-0.064684803
-0.066289707
-0.06722394
-0.067329986
-0.066456714
-0.064468806
-0.06126217
-0.05678169
-0.051043603
-0.044161393
-0.03637259
-0.028060572
-0.019760828
-0.012137903
-0.0059210574
-0.0017842244
-0.00014982322
-0.0010656475
-0.00473642
-0.011545948
-0.033766452
-0.035114918
-0.036029885
-0.036701794
-0.037285334
-0.037855926
-0.038498644
-0.039297613
-0.040321531
-0.041620448
-0.043225582
-0.045149785
-0.047388235
-0.049918905
-0.052702631
-0.055682845
-0.058785157
-0.061917007
-0.064967601
-0.067808374
-0.070294266
-0.072265973
-0.073553572
-0.073981824
-0.073376513
-0.071577071
-0.068447673
-0.063896492
-0.057898917
-0.050526384
-0.041979565
-0.03262128
-0.022998866
-0.013839781
-0.0060014289
-0.00034712999
0.0024892262
0.0022862521
-0.0013067071
-0.0087521721
-0.038018168
-0.039432741
-0.040341223
-0.040934705
-0.04137998
-0.041770315
-0.042213635
-0.042816718
-0.043667316
-0.044829841
-0.046345284
-0.048232323
-0.050488778
-0.053092797
-0.056003489
-0.05916102
-0.062486454
-0.065881489
-0.069228405
-0.072390385
-0.075212658
-0.077524425
-0.079142054
-0.079873814
-0.07952623
-0.077914181
-0.074872861
-0.070275516
-0.064056557
-0.056241765
-0.046985848
-0.036614825
-0.025664832
-0.014900881
-0.0052909843
0.0021081091
0.0064159869
0.0071752296
0.0038158528
-0.0042477293
-0.042447097
-0.043999668
-0.044910592
-0.045385958
-0.045621444
-0.045740289
-0.045884534
-0.046192497
-0.046776695
-0.047718863
-0.049070702
-0.050856288
-0.053074856
-0.055703104
-0.058696665
-0.061990766
-0.065500429
-0.069120394
-0.072725129
-0.076168981
-0.07928732
-0.08189809
-0.083804672
-0.08480013
-0.084673217
-0.083217031
-0.080240609
-0.075585266
-0.069146751
-0.060905299
-0.05096517
-0.039603703
-0.027324659
-0.014901907
-0.0033866238
0.0059810244
0.012050123
0.014063289
0.01113684
0.0024911177
-0.047093161
-0.048885872
-0.049805001
-0.050098928
-0.050021846
-0.049746314
-0.049464161
-0.049356213
-0.049565759
-0.050194089
-0.051303381
-0.052921435
-0.055046507
-0.057651221
-0.060685197
-0.064076366
-0.067731678
-0.071537192
-0.075358581
-0.079039842
-0.082406183
-0.085263992
-0.08740376
-0.088603959
-0.088636742
-0.087275115
-0.084304647
-0.079538045
-0.072836003
-0.064136063
-0.053492003
-0.041126187
-0.027493709
-0.013349502
0.00020579664
0.011772004
0.019918505
0.023528838
0.021290274
0.012119228
-0.052045361
-0.054218194
-0.055137926
-0.05514629
-0.054607044
-0.05377171
-0.052902454
-0.052234868
-0.051948068
-0.052163199
-0.052950567
-0.054338116
-0.056319158
-0.058858394
-0.06189621
-0.065349933
-0.069116093
-0.073069846
-0.077067963
-0.080940233
-0.084502279
-0.087548045
-0.08985461
-0.091185695
-0.091297857
-0.089943691
-0.086887286
-0.081915414
-0.074857057
-0.065610886
-0.054182964
-0.040739351
-0.025676333
-0.0097065426
0.0060552381
0.02008221
0.030670036
0.03629369
0.035076259
0.025465625
-0.057478033
-0.060214038
-0.061091274
-0.060639673
-0.059418409
-0.05780097
-0.056144348
-0.054750248
-0.053835416
-0.053537376
-0.053928839
-0.055031646
-0.056828251
-0.059270135
-0.06228516
-0.06577499
-0.06962416
-0.07369496
-0.077829615
-0.081848753
-0.08555347
-0.08872475
-0.09112577
-0.092504972
-0.092600937
-0.091148513
-0.087889323
-0.082584602
-0.075033471
-0.065098387
-0.052740484
-0.038070439
-0.021420172
-0.0034420933
0.014768486
0.031597324
0.045084558
0.053256443
0.053516814
0.043607584
-0.063718866
-0.067237616
-0.067947235
-0.066740894
-0.064512883
-0.061815949
-0.059126205
-0.056817296
-0.055138393
-0.054233603
-0.054167435
-0.054946028
-0.056533005
-0.058860482
-0.061836365
-0.065346872
-0.069259218
-0.073420904
-0.077659736
-0.081783226
-0.085578476
-0.088812481
-0.091233544
-0.092573872
-0.09255382
-0.090888154
-0.087295164
-0.081509526
-0.07329934
-0.062490051
-0.048997603
-0.032875802
-0.014386384
0.0058948813
0.026924462
0.047044875
0.064067598
0.075531291
0.077939498
0.068005387
-0.071381042
-0.075893743
-0.076132619
-0.073672479
-0.069958375
-0.065787542
-0.061768962
-0.058340224
-0.055765201
-0.054175277
-0.05360974
-0.054045636
-0.055416842
-0.057628933
-0.060565437
-0.064091716
-0.068056106
-0.07228949
-0.076604396
-0.080793864
-0.084630756
-0.087867544
-0.090237093
-0.091454671
-0.091221594
-0.089230833
-0.08517515
-0.078759768
-0.069717535
-0.057831481
-0.042965408
-0.025107971
-0.0044390006
0.018570263
0.04296497
0.067105155
0.088610921
0.10448342
0.11010498
0.10076086
-0.081631661
-0.087181883
-0.08627041
-0.081716459
-0.075814775
-0.069654932
-0.063961345
-0.059200636
-0.05561371
-0.053286878
-0.052209533
-0.052311026
-0.053484306
-0.055599582
-0.058511178
-0.062060161
-0.066074414
-0.070367249
-0.074735562
-0.078957936
-0.082793198
-0.085979555
-0.088234668
-0.08925693
-0.08872833
-0.08631901
-0.081693823
-0.074524815
-0.064502952
-0.051358795
-0.034889493
-0.014997644
0.0082488531
0.034515533
0.063013675
0.092226191
0.11966018
0.14172278
0.15240473
0.14512494
-0.096760014
-0.10273833
-0.099198104
-0.091155421
-0.082062679
-0.073261634
-0.065507988
-0.059217172
-0.054540357
-0.051469566
-0.049910361
-0.049723158
-0.050745994
-0.05280616
-0.055724659
-0.059316445
-0.063388513
-0.067736973
-0.072143956
-0.076374745
-0.080175464
-0.08327147
-0.085366644
-0.086143812
-0.085266724
-0.082382918
-0.077128395
-0.069138679
-0.058055748
-0.04354486
-0.025315307
-0.0031508345
0.023041482
0.053141909
0.086633974
0.12228363
0.15778148
0.18895229
0.20809851
0.20632834
-0.12133957
-0.12518721
-0.11587298
-0.10208109
-0.08841721
-0.076198184
-0.066005646
-0.058052119
-0.052291211
-0.048550141
-0.046608298
-0.046232932
-0.047194711
-0.049272632
-0.05225295
-0.055925249
-0.060077474
-0.064490886
-0.068935437
-0.073165795
-0.076918165
-0.079907916
-0.081828082
-0.082348884
-0.081118821
-0.077764525
-0.071895938
-0.063110388
-0.050996207
-0.035141798
-0.015145387
0.0093695874
0.038726031
0.073130304
0.11252041
0.15626322
0.20263151
0.24752377
0.28130158
0.29235718
-0.16445701
-0.15843274
-0.13714825
-0.11415733
-0.094107181
-0.077631081
-0.064737759
-0.055161677
-0.048489805
-0.04429147
-0.042172789
-0.041787371
-0.042832422
-0.045039673
-0.048164772
-0.051977099
-0.056250829
-0.060757381
-0.0652592
-0.069504748
-0.073224585
-0.07612838
-0.07790282
-0.078210575
-0.076690566
-0.072947829
-0.066577738
-0.057140646
-0.044172352
-0.027180339
-0.0056360043
0.021035351
0.05346469
0.092332197
0.13829685
0.1918275
0.25266862
0.31751203
0.37626918
0.41537136
-0.24629388
-0.20631792
-0.16213022
-0.12552886
-0.097143635
-0.075878155
-0.06048754
-0.049752336
-0.042660246
-0.038436212
-0.036490352
-0.0363654
-0.037697372
-0.040185182
-0.043567284
-0.047604267
-0.05206596
-0.056721753
-0.0613332
-0.065648352
-0.069397384
-0.072289322
-0.074009694
-0.074219917
-0.072558588
-0.068605613
-0.061961716
-0.052155896
-0.038682904
-0.020981094
0.001596281
0.029825864
0.064687056
0.1074656
0.15987185
0.22417863
0.30290629
0.39553303
0.49624426
0.60321315
-0.42543864
-0.26573002
-0.17722125
-0.12463586
-0.089116491
-0.065102625
-0.049323836
-0.039185316
-0.03298371
-0.029674103
-0.028570746
-0.029186793
-0.031156867
-0.034189943
-0.038037658
-0.042473376
-0.047278215
-0.052231242
-0.057102298
-0.061646601
-0.065600644
-0.068679023
-0.070571706
-0.070940591
-0.069407882
-0.065629759
-0.059132312
-0.049452764
-0.036074681
-0.018403103
0.0042719928
0.032847962
0.068543441
0.1131429
0.16943751
0.24201807
0.33806697
0.46591673
0.64305555
0.92086312
-0.7933126
-0.32444183
-0.14899708
-0.087725041
-0.055345447
-0.035999146
-0.025091182
-0.019200635
-0.016355167
-0.015618745
-0.016493982
-0.018653796
-0.021852915
-0.025888281
-0.030575295
-0.03573369
-0.041178906
-0.046716153
-0.05213586
-0.057210047
-0.061689371
-0.065300768
-0.067745774
-0.068700808
-0.067824406
-0.064707847
-0.058941664
-0.050072318
-0.037593247
-0.020927
0.0006108678
0.027881581
0.062059295
0.10491391
0.15945188
0.23152856
0.33385203
0.49409279
0.79001695
1.3837789
1.2295218e-05
-0.00013056724
-0.00044275994
-0.00084531971
-0.0012637252
-0.001652528
-0.0019808726
-0.0022299384
-0.0023890956
-0.0024526421
-0.0024176396
-0.0022826322
-0.0020470502
-0.0017111376
-0.0012762517
-0.00074540057
-0.00012389443
0.00057999973
0.0013545029
0.0021839588
0.0030487386
0.0039254825
0.0047877077
0.0056068194
0.0063534844
0.0069993127
0.0075187428
0.0078909836
0.0081018435
0.0081452809
0.0080245218
0.0077526553
0.0073526785
0.0068570506
0.0063066549
0.0057490301
0.0052391726
0.0048333377
0.0045932571
0.0045546977
0.00015423197
8.9634786e-06
-0.00024119057
-0.00055004889
-0.00087220822
-0.0011733594
-0.0014292738
-0.0016237818
-0.001746525
-0.0017910611
-0.0017534484
-0.0016313224
-0.0014234276
-0.0011295322
-0.00075062768
-0.0002893201
0.00024968206
0.00085907049
0.0015285127
0.0022443753
0.0029896573
0.0037443303
0.0044856951
0.0051894065
0.005830621
0.0063854432
0.0068325432
0.0071548164
0.0073409343
0.0073866311
0.0072955851
0.0070798054
0.0067594884
0.0063623813
0.0059226967
0.0054794589
0.0050738477
0.0047491703
0.0045505517
0.0045153126
0.00047249855
0.00025440257
-1.389814e-06
-0.00028048786
-0.00056080271
-0.00081778026
-0.0010336492
-0.0011963601
-0.0012977078
-0.0013321737
-0.0012960407
-0.0011867768
-0.0010027415
-0.00074317913
-0.00040843611
-3.2981803e-07
0.00047740189
0.0010186435
0.0016145048
0.0022530566
0.0029192948
0.0035952622
0.0042605945
0.0048932944
0.0054708274
0.0059714681
0.0063758076
0.0066683021
0.0068387192
0.0068833255
0.0068056686
0.0066168445
0.0063352069
0.0059855487
0.0055978419
0.0052055437
0.0048432898
0.0045453085
0.0043478775
0.0042807214
0.00089411954
0.00056243371
0.00026192862
-2.387928e-05
-0.00029457318
-0.00053376984
-0.00072993315
-0.00087586073
-0.00096647894
-0.00099809303
-0.00096789147
-0.00087358886
-0.00071331389
-0.00048572769
-0.00019032085
0.00017216514
0.0005992504
0.0010862244
0.0016257115
0.0022073652
0.0028177579
0.0034404429
0.0040564542
0.0046449976
0.0051845078
0.0056539712
0.0060344249
0.0063105069
0.0064719068
0.0065145521
0.0064413754
0.0062625365
0.0059950353
0.0056617375
0.0052899091
0.0049094215
0.0045509524
0.0042444708
0.0040165421
0.0038809855
0.0013449707
0.00088461372
0.00052182352
0.00021154679
-6.6243971e-05
-0.00030232775
-0.0004910728
-0.00063023444
-0.00071815102
-0.00075325582
-0.00073388712
-0.00065814418
-0.00052394464
-0.00032927869
-7.2612595e-05
0.00024660264
0.00062736512
0.0010665521
0.0015584055
0.0020941379
0.0026617262
0.003245944
0.003828717
0.0043897989
0.004907799
0.0053615123
0.0057314662
0.0060015446
0.0061605183
0.0062032985
0.0061317452
0.0059548946
0.0056885323
0.0053541122
0.0049770927
0.0045849894
0.0042060332
0.0038674593
0.0035848909
0.0033610832
0.0017719079
0.001177812
0.00074366809
0.00039769515
0.00010103998
-0.00014326933
-0.00033498396
-0.00047658007
-0.00056974122
-0.0006150409
-0.00061199015
-0.00055906352
-0.00045390542
-0.00029371774
-7.5781217e-05
0.00020192868
0.00054007153
0.00093726567
0.0013894626
0.001889438
0.00242647
0.002986285
0.00355131
0.004101312
0.0046144042
0.0050684049
0.0054424628
0.0057188071
0.0058844305
0.0059324911
0.0058632331
0.0056842762
0.005410201
0.0050614204
0.0046623672
0.0042393913
0.0038198571
0.0034303448
0.0030779679
0.0027502947
0.0021297008
0.0014034875
0.00089455921
0.00050643178
0.00018305127
-7.7945264e-05
-0.0002811481
-0.00043336756
-0.00053937768
-0.00060172048
-0.00062094732
-0.0005957841
-0.0005234666
-0.00040025258
-0.00022206173
1.4792358e-05
0.00031281365
0.00067252361
0.0010917047
0.0015647537
0.0020822233
0.0026306498
0.0031926908
0.0037477145
0.0042727833
0.0047440489
0.0051384744
0.0054357411
0.0056201431
0.0056822235
0.0056199102
0.0054389576
0.005152608
0.0047804667
0.0043465873
0.0038772448
0.0034004617
0.0029440078
0.0025080513
0.0020659498
0.0023797761
0.0015268842
0.00094359998
0.00051055421
0.0001558427
-0.00012772819
-0.0003491159
-0.00051904161
-0.00064502685
-0.00073130448
-0.00077923305
-0.00078758424
-0.00075299216
-0.00067057788
-0.00053470055
-0.00033980468
-8.133124e-05
0.00024334922
0.00063403628
0.0010868987
0.0015938561
0.0021422664
0.002714908
0.0032904956
0.0038446165
0.0043511579
0.0047841337
0.005119773
0.0053386696
0.0054277327
0.0053816529
0.0052036307
0.0049052265
0.0045053061
0.0040280503
0.0035006217
0.0029531193
0.0024162741
0.0018852555
0.0013219861
0.0024883233
0.0015163078
0.00086148704
0.00038317833
-5.2668893e-06
-0.00031550431
-0.00056047454
-0.00075440515
-0.00090720174
-0.0010244695
-0.0011080943
-0.0011566447
-0.0011659252
-0.0011297003
-0.0010405445
-0.00089079524
-0.00067358271
-0.00038389762
-1.964398e-05
0.00041738913
0.00092072544
0.0014787291
0.0020743695
0.002685633
0.0032863558
0.0038476531
0.0043398457
0.0047347515
0.0050081383
0.0051420666
0.0051268035
0.0049619953
0.0046568759
0.0042294025
0.0037042322
0.0031102607
0.0024809884
0.0018518139
0.0012143887
0.00051996344
0.0024248677
0.0013426771
0.00062065501
9.825788e-05
-0.00032493389
-0.00066479483
-0.00093794115
-0.0011617427
-0.0013481439
-0.0015038074
-0.0016308618
-0.0017274149
-0.0017882022
-0.0018053971
-0.001769545
-0.0016706059
-0.0014990909
-0.0012472586
-0.00091032439
-0.00048762162
1.6384137e-05
0.00059147256
0.001221054
0.0018825233
0.0025478753
0.0031850714
0.0037600314
0.0042391333
0.004592024
0.0047944473
0.0048307386
0.0046956145
0.004394943
0.0039452597
0.0033718069
0.0027059265
0.0019857869
0.0012531305
0.00049723635
-0.00034104778
0.0021616315
0.00097935695
0.00019550472
-0.00036885833
-0.00082697458
-0.001198765
-0.0015042698
-0.0017636816
-0.0019906755
-0.0021926883
-0.0023718318
-0.0025255152
-0.0026471771
-0.0027271678
-0.0027537479
-0.0027142011
-0.0025960587
-0.0023884118
-0.002083275
-0.0016769491
-0.0011712852
-0.00057440829
9.7986249e-05
0.00082309747
0.0015712202
0.0023069651
0.0029912378
0.003583915
0.0040470477
0.0043482842
0.0044641122
0.0043824737
0.0041043379
0.003643839
0.0030265505
0.0022867657
0.0014685415
0.00062167352
-0.0002661054
-0.0012646537
0.0016734174
0.00040222975
-0.00043731728
-0.0010409458
-0.0015337114
-0.0019394364
-0.002281369
-0.0025822454
-0.0028572103
-0.0031142389
-0.0033552141
-0.0035766498
-0.0037704949
-0.0039250663
-0.0040260887
-0.0040578537
-0.004004507
-0.0038514598
-0.0035868949
-0.0032033043
-0.0026989809
-0.0020795362
-0.0013584995
-0.00055828045
0.00029012537
0.0011480358
0.0019709072
0.0027111021
0.0033214712
0.0037594618
0.0039913024
0.0039957147
0.0037665955
0.0033140853
0.002663324
0.0018517356
0.00093040367
-4.1018488e-05
-0.0010757625
-0.0022552508
0.00093782463
-0.00041003965
-0.0012985437
-0.0019383921
-0.0024653229
-0.0029069101
-0.0032894119
-0.0036378659
-0.0039686758
-0.0042901795
-0.0046038802
-0.004905261
-0.005184642
-0.0054281397
-0.0056187196
-0.0057373683
-0.0057644156
-0.0056810168
-0.0054707857
-0.0051215229
-0.0046269854
-0.0039888082
-0.003217494
-0.0023339218
-0.0013695363
-0.00036589257
0.00062687243
0.0015527587
0.0023537865
0.0029748231
0.003368894
0.0035023165
0.0033589039
0.0029423884
0.0022760082
0.0014000134
0.00037348863
-0.00073212537
-0.0019305788
-0.0033161553
-6.4325778e-05
-0.0014756075
-0.0024058378
-0.0030786495
-0.0036391759
-0.0041185684
-0.0045459063
-0.0049483178
-0.0053433112
-0.0057394796
-0.0061378708
-0.0065328764
-0.0069131207
-0.0072624179
-0.0075608016
-0.0077856741
-0.0079131231
-0.0079194416
-0.0077828596
-0.0074854637
-0.007015262
-0.0063683714
-0.0055508506
-0.0045805159
-0.0034879406
-0.0023166351
-0.0011220272
3.1000972e-05
0.0010721395
0.0019311462
0.0025444077
0.0028618308
0.0028530862
0.002511978
0.0018573921
0.00093139112
-0.00019826427
-0.0014463054
-0.0028265938
-0.0044478744
-0.0013484533
-0.002808989
-0.0037733174
-0.0044756859
-0.0050691678
-0.0055882843
-0.0060647508
-0.0065276104
-0.0069953803
-0.0074768787
-0.0079727077
-0.0084761961
-0.0089742931
-0.009448492
-0.0098757995
-0.010229818
-0.010482011
-0.01060322
-0.010565449
-0.010343954
-0.0099195847
-0.0092813407
-0.0084289034
-0.0073750724
-0.0061476701
-0.0047906034
-0.0033636432
-0.0019405165
-0.00060500031
0.00055507944
0.0014556789
0.0020254726
0.0022147147
0.0020023407
0.0013990665
0.00044670326
-0.00077816317
-0.0021743579
-0.0037554177
-0.0056463097
-0.0029256528
-0.0044205995
-0.0054111072
-0.0061394804
-0.0067651198
-0.0073256737
-0.0078553184
-0.0083848768