/*--------------------------------*- C++ -*----------------------------------*\
  =========                 |
  \\      /  F ield         | OpenFOAM: The Open Source CFD Toolbox
   \\    /   O peration     | Website:  https://openfoam.org
    \\  /    A nd           | Version:  7
     \\/     M anipulation  |
\*---------------------------------------------------------------------------*/
FoamFile
{
    version     2.0;
    format      ascii;
    class       surfaceScalarField;
    location    "30";
    object      phi_0;
}
// * * * * * * * * * * * * * * * * * * * * * * * * * * * * * * * * * * * * * //

dimensions      [0 3 -1 0 0 0 0];

internalField   nonuniform List<scalar> 
45600
(
2.7497895e-07
-2.824295e-07
-8.3744614e-11
4.0324018e-07
-1.2823417e-07
-2.6430117e-11
1.3251055e-07
2.7073819e-07
-7.4734631e-12
-5.6233455e-07
6.9484844e-07
-2.0918574e-12
-1.6393239e-06
1.0769875e-06
3.1284406e-12
-3.0276277e-06
1.3882983e-06
6.6600214e-12
-4.6524662e-06
1.6248304e-06
8.9730451e-12
-6.4450959e-06
1.7926196e-06
1.0603683e-11
-8.3454204e-06
1.9003127e-06
1.175916e-11
-1.0301438e-05
1.9560043e-06
1.2527275e-11
-1.2267397e-05
1.9659439e-06
1.2967713e-11
-1.4201575e-05
1.9341646e-06
1.3118469e-11
-1.6064231e-05
1.8626432e-06
1.2990957e-11
-1.7816018e-05
1.7517739e-06
1.257424e-11
-1.9417044e-05
1.6010117e-06
1.1852172e-11
-2.0826649e-05
1.4095896e-06
1.0819679e-11
-2.2003899e-05
1.1772376e-06
9.4816287e-12
-2.290876e-05
9.0485472e-07
7.8377337e-12
-2.3503856e-05
5.9509467e-07
5.8831112e-12
-2.3756686e-05
2.5282861e-07
3.6208391e-12
-2.3642125e-05
-1.145665e-07
1.0970771e-12
-2.3144997e-05
-4.9713402e-07
-1.5925813e-12
-2.2262569e-05
-8.8242811e-07
-4.3264369e-12
-2.1006613e-05
-1.2559407e-06
-6.9877908e-12
-1.9404854e-05
-1.6017338e-06
-9.4982914e-12
-1.750154e-05
-1.9032939e-06
-1.1784892e-11
-1.5356955e-05
-2.1445834e-06
-1.3729477e-11
-1.3045752e-05
-2.3112135e-06
-1.5128135e-11
-1.0654108e-05
-2.3916388e-06
-1.5763014e-11
-8.2758222e-06
-2.3782462e-06
-1.5548755e-11
-6.007558e-06
-2.2682089e-06
-1.4605722e-11
-3.9435096e-06
-2.0640248e-06
-1.312822e-11
-2.169773e-06
-1.77377e-06
-1.1131659e-11
-7.5855745e-07
-1.4112658e-06
-8.3876342e-12
2.3817648e-07
-9.9672664e-07
-4.8901303e-12
7.9653408e-07
-5.5827756e-07
-1.4858373e-12
9.2931243e-07
-1.3270682e-07
1.8533436e-12
7.0564138e-07
2.2361664e-07
5.1987228e-12
2.9049827e-07
4.1497949e-07
8.5569806e-12
2.9039294e-07
1.8579426e-12
1.3279492e-07
-4.1519992e-07
-2.3828853e-11
-3.0177411e-07
3.0635176e-07
-1.51225e-11
-1.6154672e-06
1.5844467e-06
-1.310452e-11
-3.874753e-06
2.9541502e-06
-1.3749332e-11
-7.0073708e-06
4.2096221e-06
-1.4821306e-11
-1.0879767e-05
5.2607127e-06
-1.6299842e-11
-1.5335171e-05
6.0802525e-06
-1.7692265e-11
-2.0216001e-05
6.6734687e-06
-1.8693521e-11
-2.5374052e-05
7.0583841e-06
-1.9244106e-11
-3.0673259e-05
7.2552305e-06
-1.9357522e-11
-3.5988521e-05
7.2812236e-06
-1.9059473e-11
-4.1202805e-05
7.1484635e-06
-1.8368464e-11
-4.6203945e-05
6.8637974e-06
-1.7290518e-11
-5.0882069e-05
6.4299137e-06
-1.5832163e-11
-5.5128197e-05
5.8471555e-06
-1.4011857e-11
-5.883428e-05
5.1156853e-06
-1.1851772e-11
-6.1894762e-05
4.237725e-06
-9.3603305e-12
-6.4209569e-05
3.2196604e-06
-6.5438341e-12
-6.5688319e-05
2.0738447e-06
-3.4091304e-12
-6.6255427e-05
8.1994274e-07
-2.7152397e-14
-6.5855937e-05
-5.1404676e-07
3.4852827e-12
-6.4460759e-05
-1.8923113e-06
7.0452545e-12
-6.2072432e-05
-3.2707746e-06
1.0505398e-11
-5.8729054e-05
-4.5993519e-06
1.3799078e-11
-5.4507051e-05
-5.8237627e-06
1.686216e-11
-4.952188e-05
-6.8884655e-06
1.9554223e-11
-4.3926363e-05
-7.7400867e-06
2.164103e-11
-3.7906411e-05
-8.3311729e-06
2.2903869e-11
-3.1674118e-05
-8.6239881e-06
2.3299102e-11
-2.5458403e-05
-8.5940403e-06
2.2985834e-11
-1.9493632e-05
-8.2330176e-06
2.2125091e-11
-1.4006723e-05
-7.5508921e-06
2.0634601e-11
-9.2032581e-06
-6.5771721e-06
1.8242659e-11
-5.2528667e-06
-5.3616774e-06
1.4920059e-11
-2.2739935e-06
-3.9757239e-06
1.1212715e-11
-3.1734389e-07
-2.5150354e-06
7.7938798e-12
6.5699319e-07
-1.1069758e-06
4.5647846e-12
8.0369157e-07
7.7149602e-08
3.4614336e-12
4.1794069e-07
8.0093053e-07
4.3810136e-12
7.0825164e-07
-3.2540638e-12
-2.7362406e-07
-1.4156174e-07
-1.3167985e-11
-1.6275395e-06
1.6602771e-06
-7.9648206e-12
-4.2894568e-06
4.2463755e-06
-9.2175843e-12
-8.2747184e-06
6.9394217e-06
-7.724606e-12
-1.3474445e-05
9.4093562e-06
-5.6842454e-12
-1.9708735e-05
1.1495009e-05
-4.5595984e-12
-2.6765752e-05
1.3137274e-05
-3.8327826e-12
-3.4426607e-05
1.4334326e-05
-3.2339593e-12
-4.2478612e-05
1.5110391e-05
-2.7263385e-12
-5.0720422e-05
1.5497043e-05
-2.27168e-12
-5.8962257e-05
1.5523061e-05
-1.8412659e-12
-6.7023644e-05
1.5209851e-05
-1.4242923e-12
-7.473048e-05
1.457063e-05
-1.0088346e-12
-8.1912663e-05
1.3612093e-05
-5.7882016e-13
-8.8403087e-05
1.2337579e-05
-1.3179578e-13
-9.4038409e-05
1.0751011e-05
3.1101409e-13
-9.8661722e-05
8.8610421e-06
7.207924e-13
-0.00010212702
6.6849538e-06
1.0800423e-12
-0.00010430515
4.2519676e-06
1.403227e-12
-0.00010509093
1.6057149e-06
1.712692e-12
-0.00010441057
-1.194406e-06
2.0164247e-12
-0.00010222938
-4.0734849e-06
2.2705102e-12
-9.8558443e-05
-6.9417025e-06
2.4115482e-12
-9.3459932e-05
-9.69787e-06
2.4256784e-12
-8.7050338e-05
-1.2233384e-05
2.3819049e-12
-7.9500961e-05
-1.4437865e-05
2.3893514e-12
-7.1035251e-05
-1.6205786e-05
2.4824825e-12
-6.1922684e-05
-1.7443698e-05
2.5543061e-12
-5.2469097e-05
-1.8077547e-05
2.4540719e-12
-4.3003642e-05
-1.8059525e-05
2.1964279e-12
-3.3862825e-05
-1.7373909e-05
2.0348229e-12
-2.5372259e-05
-1.6041495e-05
2.2262607e-12
-1.7826899e-05
-1.4122471e-05
2.6860175e-12
-1.1470373e-05
-1.1718098e-05
2.986808e-12
-6.4738121e-06
-8.9722695e-06
2.8588413e-12
-2.9140428e-06
-6.0749422e-06
2.5377871e-12
-7.5129572e-07
-3.2698952e-06
2.4192407e-12
1.9429388e-07
-8.6845755e-07
3.4606513e-12
2.655406e-07
7.298284e-07
5.633368e-12
9.7378309e-07
6.9629392e-13
-7.4586781e-07
6.043203e-07
-1.3281055e-11
-3.1796723e-06
4.0940853e-06
-1.8825265e-12
-7.3461456e-06
8.4128576e-06
-7.3037477e-12
-1.3163094e-05
1.2756378e-05
-6.618967e-12
-2.0455848e-05
1.6702115e-05
-3.9607954e-12
-2.8992654e-05
2.0031818e-05
-2.5913347e-12
-3.8513882e-05
2.2658506e-05
-1.6821975e-12
-4.8752669e-05
2.4573114e-05
-8.754825e-13
-5.9446963e-05
2.5804683e-05
-2.1302487e-13
-7.0344803e-05
2.6394881e-05
3.2909667e-13
-8.1205086e-05
2.6383344e-05
7.9104003e-13
-9.1795927e-05
2.5800693e-05
1.1824541e-12
-0.00010189235
2.4667049e-05
1.5014864e-12
-0.00011127456
2.2994298e-05
1.7565699e-12
-0.0001197277
2.0790717e-05
1.9645901e-12
-0.00012704353
1.8066829e-05
2.1308019e-12
-0.00013302407
1.4841589e-05
2.2368879e-12
-0.00013748732
1.114821e-05
2.2449355e-12
-0.00014027441
7.0390617e-06
2.1310172e-12
-0.00014125795
2.5892456e-06
1.9167367e-12
-0.00014035068
-2.1016918e-06
1.667762e-12
-0.0001375143
-6.9098697e-06
1.3939689e-12
-0.00013276693
-1.1689048e-05
1.0862758e-12
-0.00012618921
-1.6275567e-05
6.8683906e-13
-0.0001179278
-2.0494799e-05
1.6925868e-13
-0.00010819584
-2.416985e-05
-3.7479999e-13
-9.7269829e-05
-2.7131833e-05
-7.628472e-13
-8.5482382e-05
-2.9231142e-05
-8.8144382e-13
-7.3210909e-05
-3.0348966e-05
-8.2599322e-13
-6.086221e-05
-3.040817e-05
-8.1695227e-13
-4.8853405e-05
-2.938273e-05
-9.0972354e-13
-3.7589901e-05
-2.7305089e-05
-8.2344973e-13
-2.7441354e-05
-2.4271084e-05
-1.9603241e-13
-1.871672e-05
-2.0442674e-05
9.1637983e-13
-1.1639429e-05
-1.6049413e-05
1.947613e-12
-6.3235166e-06
-1.1390777e-05
2.4483564e-12
-2.7515346e-06
-6.8419658e-06
2.7470584e-12
-7.5720929e-07
-2.8629079e-06
3.4537103e-12
-9.5395808e-09
-1.7828633e-08
4.3779438e-12
9.6427601e-07
3.7067818e-12
-1.2279781e-06
1.8323142e-06
-1.4695294e-11
-4.7881325e-06
7.654237e-06
4.1949927e-12
-1.052157e-05
1.4146302e-05
-6.3640134e-12
-1.8214357e-05
2.0449174e-05
-7.450169e-12
-2.7603953e-05
2.6091716e-05
-5.0520898e-12
-3.83963e-05
3.0824171e-05
-4.3062914e-12
-5.0283043e-05
3.4545254e-05
-3.9441391e-12
-6.2954756e-05
3.7244831e-05
-3.463755e-12
-7.6108995e-05
3.8958925e-05
-3.0003311e-12
-8.9453718e-05
3.9739604e-05
-2.5746105e-12
-0.0001027074
3.963703e-05
-2.1485825e-12
-0.00011559745
3.8690741e-05
-1.710429e-12
-0.00012785825
3.6927853e-05
-1.2725974e-12
-0.00013923009
3.4366143e-05
-8.4892669e-13
-0.00014945963
3.1020256e-05
-4.3656671e-13
-0.00015830235
2.6909546e-05
-1.7466662e-14
-0.00016552711
2.2066347e-05
4.2191754e-13
-0.00017092261
1.6543718e-05
8.641184e-13
-0.00017430545
1.0421913e-05
1.2624585e-12
-0.00017552921
3.8130092e-06
1.5761361e-12
-0.00017449399
-3.1369236e-06
1.8114191e-12
-0.00017115576
-1.024812e-05
2.0125294e-12
-0.00016553469
-1.7310127e-05
2.2339866e-12
-0.0001577218
-2.4088446e-05
2.4569291e-12
-0.00014788309
-3.0333479e-05
2.5770227e-12
-0.00013626049
-3.5792437e-05
2.5063038e-12
-0.00012316888
-4.0223481e-05
2.3076512e-12
-0.00010898867
-4.3411403e-05
2.1934699e-12
-9.4153775e-05
-4.5183874e-05
2.3234978e-12
-7.9134816e-05
-4.542707e-05
2.5871548e-12
-6.4417999e-05
-4.4099471e-05
2.6682027e-12
-5.0480306e-05
-4.1242787e-05
2.4300711e-12
-3.7762129e-05
-3.698937e-05
2.1882206e-12
-2.6638865e-05
-3.1566045e-05
2.390096e-12
-1.7393205e-05
-2.529505e-05
2.9856393e-12
-1.0189889e-05
-1.8593967e-05
3.5203089e-12
-5.054691e-06
-1.1977105e-05
3.9355735e-12
-1.8598445e-06
-6.0578299e-06
3.2635498e-12
-3.2225458e-07
-1.5554601e-06
2.2181364e-13
6.4203642e-07
5.8150793e-12
-1.6931737e-06
3.5255058e-06
-1.7140512e-11
-6.3714217e-06
1.2332477e-05
9.665002e-12
-1.3671466e-05
2.1446353e-05
-5.3556305e-12
-2.3234069e-05
3.0011785e-05
-7.5190082e-12
-3.4695243e-05
3.7552895e-05
-4.7931356e-12
-4.7689809e-05
4.381874e-05
-4.2222243e-12
-6.1857496e-05
4.8712945e-05
-4.0876817e-12
-7.6848023e-05
5.2235363e-05
-3.7101113e-12
-9.2323809e-05
5.4434716e-05
-3.2995436e-12
-0.00010796019
5.5375993e-05
-2.9162615e-12
-0.00012344388
5.5120712e-05
-2.5276845e-12
-0.00013847059
5.3717456e-05
-2.1115312e-12
-0.00015274311
5.1200376e-05
-1.6664701e-12
-0.00016597041
4.759345e-05
-1.2106301e-12
-0.00017786859
4.291845e-05
-7.652622e-13
-0.0001881639
3.7204849e-05
-3.3452369e-13
-0.00019659774
3.0500177e-05
1.0164412e-13
-0.00020293368
2.2879659e-05
5.6489647e-13
-0.00020696598
1.4454219e-05
1.0456199e-12
-0.00020852913
5.3761727e-06
1.4917064e-12
-0.00020750795
-4.1580927e-06
1.8401851e-12
-0.00020384752
-1.3908561e-05
2.0800464e-12
-0.00019756233
-2.3595346e-05
2.2705911e-12
-0.00018874384
-3.2906948e-05
2.4977028e-12
-0.00017756577
-4.1511536e-05
2.7640281e-12
-0.00016428614
-4.9072033e-05
2.9451102e-12
-0.00014924539
-5.5264205e-05
2.9025038e-12
-0.0001328598
-5.9797022e-05
2.6753525e-12
-0.00011560962
-6.243413e-05
2.5189911e-12
-9.8021738e-05
-6.3014985e-05
2.6631895e-12
-8.0647194e-05
-6.1473956e-05
3.0081195e-12
-6.4034112e-05
-5.7855768e-05
3.1678806e-12
-4.8697379e-05
-5.2326079e-05
2.9435258e-12
-3.5086888e-05
-4.5176633e-05
2.6349005e-12
-2.3556713e-05
-3.682533e-05
2.6633503e-12
-1.4337889e-05
-2.7812775e-05
3.2566311e-12
-7.5174544e-06
-1.879745e-05
4.4985489e-12
-3.0267039e-06
-1.0548574e-05
3.5184062e-12
-6.4249962e-07
-3.9397021e-06
-2.2160729e-12
-4.729735e-10
8.2121449e-12
-2.1329392e-06
5.658465e-06
-1.9885636e-11
-7.8910806e-06
1.8090603e-05
1.4496062e-11
-1.6717409e-05
3.0272686e-05
-4.5769528e-12
-2.8105739e-05
4.1400123e-05
-7.5432873e-12
-4.1585077e-05
5.1032238e-05
-4.3213988e-12
-5.6714111e-05
5.8947777e-05
-3.7938362e-12
-7.3078241e-05
6.5077077e-05
-3.7997075e-12
-9.0287034e-05
6.944416e-05
-3.4777576e-12
-0.00010797125
7.2118938e-05
-3.0895423e-12
-0.00012577918
7.3183925e-05
-2.723208e-12
-0.00014337263
7.271417e-05
-2.3607711e-12
-0.00016042329
7.0768116e-05
-1.9857415e-12
-0.00017661005
6.7387133e-05
-1.5821199e-12
-0.00019161798
6.260139e-05
-1.1462071e-12
-0.00020513934
5.643982e-05
-6.968983e-13
-0.00021687666
4.8942172e-05
-2.6469454e-13
-0.00022654796
4.0171477e-05
1.370085e-13
-0.00023389388
3.022557e-05
5.2704059e-13
-0.00023868632
1.9246647e-05
9.3859425e-13
-0.00024073824
7.4280951e-06
1.3756471e-12
-0.00023991418
-4.9821333e-06
1.7834443e-12
-0.00023614083
-1.7681892e-05
2.0852306e-12
-0.00022941729
-3.0318894e-05
2.2383207e-12
-0.000219824
-4.2500271e-05
2.3135388e-12
-0.00020752979
-5.3805779e-05
2.4393769e-12
-0.00019279598
-6.3805836e-05
2.6569561e-12
-0.00017597658
-7.2083559e-05
2.8330687e-12
-0.00015751351
-7.8260048e-05
2.7764661e-12
-0.00013792602
-8.2021643e-05
2.4915952e-12
-0.00011779367
-8.314742e-05
2.2681458e-12
-9.7732937e-05
-8.1534745e-05
2.4035156e-12
-7.83681e-05
-7.7220559e-05
2.8184513e-12
-6.0297802e-05
-7.0396275e-05
3.0863339e-12
-4.4059459e-05
-6.1414944e-05
2.9287194e-12
-3.0094418e-05
-5.0790452e-05
2.5680612e-12
-1.8717292e-05
-3.9189977e-05
2.8724341e-12
-1.0093054e-05
-2.7421661e-05
4.7210892e-12
-4.2252922e-06
-1.6416292e-05
3.6577483e-12
-9.5847632e-07
-7.2065137e-06
-4.8307603e-12
-9.5897561e-07
1.0202879e-11
-2.5450541e-06
8.2035418e-06
-2.2652585e-11
-9.3288448e-06
2.4874374e-05
1.8799066e-11
-1.9615358e-05
4.0559202e-05
-4.0700313e-12
-3.2756836e-05
5.4541609e-05
-7.7815621e-12
-4.8175862e-05
6.6451269e-05
-4.0928728e-12
-6.5354052e-05
7.6125971e-05
-3.6117687e-12
-8.3822085e-05
8.3545113e-05
-3.7655128e-12
-0.00010315055
8.8772629e-05
-3.5235658e-12
-0.00012294153
9.1909922e-05
-3.1853495e-12
-0.00014282085
9.3063246e-05
-2.8473705e-12
-0.00016243121
9.2324546e-05
-2.4985517e-12
-0.00018142673
8.9763636e-05
-2.142869e-12
-0.00019946909
8.5429488e-05
-1.7739817e-12
-0.00021622587
7.9358172e-05
-1.3718843e-12
-0.00023137112
7.1585071e-05
-9.2698875e-13
-0.00024458812
6.2159188e-05
-4.581595e-13
-0.00025557439
5.115775e-05
-4.7431442e-15
-0.00026404846
3.8699648e-05
4.0669879e-13
-0.00026975846
2.495664e-05
7.902915e-13
-0.00027249189
1.0161507e-05
1.189468e-12
-0.00027208648
-5.3875458e-06
1.624204e-12
-0.00026844153
-2.1326833e-05
2.0580524e-12
-0.00026152955
-3.7230848e-05
2.3714858e-12
-0.0002514072
-5.262262e-05
2.4981524e-12
-0.00023822481
-6.6988201e-05
2.5088121e-12
-0.0002222335
-7.9797191e-05
2.5718682e-12
-0.00020378852
-9.0528547e-05
2.7748413e-12
-0.0001833475
-9.8701013e-05
2.9846757e-12
-0.00016146228
-0.00010390681
2.9592419e-12
-0.00013876316
-0.00010584655
2.6616495e-12
-0.00011593529
-0.0001043627
2.4005768e-12
-9.3687533e-05
-9.9468383e-05
2.5226106e-12
-7.2715412e-05
-9.1368362e-05
2.9598943e-12
-5.3660688e-05
-8.0469579e-05
3.1995662e-12
-3.7071033e-05
-6.7380087e-05
2.8739107e-12
-2.3363945e-05
-5.2897133e-05
2.8977571e-12
-1.2799332e-05
-3.7986315e-05
4.9770107e-12
-5.464879e-06
-2.3750725e-05
3.5491979e-12
-1.2772474e-06
-1.1394113e-05
-7.6723472e-12
-2.2362409e-06
1.2720017e-11
-2.9284801e-06
1.1132047e-05
-2.5351672e-11
-1.0673666e-05
3.2619536e-05
2.2653868e-11
-2.2336162e-05
5.2221699e-05
-3.7367185e-12
-3.7135953e-05
6.9341406e-05
-8.1260077e-12
-5.4394075e-05
8.3709394e-05
-3.9907748e-12
-7.3517576e-05
9.5249477e-05
-3.5345032e-12
-9.398423e-05
0.00010401177
-3.8076517e-12
-0.00011532787
0.00011011627
-3.6337914e-12
-0.00013712507
0.00011370712
-3.3537849e-12
-0.00015898341
0.00011492159
-3.061821e-12
-0.00018053163
0.00011387278
-2.7323572e-12
-0.00020141198
0.00011064399
-2.3779943e-12
-0.00022127485
0.00010529236
-2.016727e-12
-0.00023977599
9.785931e-05
-1.6430135e-12
-0.00025657617
8.8385253e-05
-1.2331143e-12
-0.00027134325
7.6926266e-05
-7.6934873e-13
-0.00028375637
6.3570876e-05
-2.6738715e-13
-0.0002935122
4.8455497e-05
2.2552896e-13
-0.00030033298
3.1777429e-05
6.658931e-13
-0.00030397613
1.3804638e-05
1.0533075e-12
-0.00030424535
-5.1183417e-06
1.4357485e-12
-0.00030100277
-2.4569432e-05
1.8883752e-12
-0.00029418232
-4.4051285e-05
2.3487199e-12
-0.00028380305
-6.3001857e-05
2.6895724e-12
-0.00026998201
-8.0809227e-05
2.808966e-12
-0.00025294532
-9.6833918e-05
2.7648705e-12
-0.00023303586
-0.00011043806
2.7608044e-12
-0.0002107159
-0.000121021
2.9337074e-12
-0.00018656256
-0.00012806009
3.160157e-12
-0.0001612547
-0.00013115433
3.160407e-12
-0.00013554987
-0.00013006753
2.86755e-12
-0.00011025142
-0.0001247669
2.6088637e-12
-8.6167372e-05
-0.00011545248
2.7494827e-12
-6.4063712e-05
-0.00010257321
3.1047692e-12
-4.4616622e-05
-8.682711e-05
3.0270205e-12
-2.8368499e-05
-6.9145254e-05
3.114853e-12
-1.5693153e-05
-5.0661707e-05
5.4555558e-12
-6.7752296e-06
-3.2668669e-05
3.4302352e-12
-1.6070344e-06
-1.6562285e-05
-1.0721473e-11
-3.8432846e-06
1.5311982e-11
-3.2816974e-06
1.4413771e-05
-2.7928367e-11
-1.1915862e-05
4.1253674e-05
2.6094057e-11
-2.4855493e-05
6.5161334e-05
-3.525738e-12
-4.1199889e-05
8.5685807e-05
-8.5212181e-12
-6.0176266e-05
0.00010268577
-3.9634375e-12
-8.1122188e-05
0.0001161954
-3.5195417e-12
-0.00010346622
0.00012635581
-3.8840072e-12
-0.00012670878
0.00013335884
-3.751118e-12
-0.00015040453
0.00013740287
-3.5141327e-12
-0.000174147
0.00013866406
-3.2754151e-12
-0.00019755578
0.00013728157
-2.9874278e-12
-0.00022026651
0.00013335472
-2.6464807e-12
-0.00024192369
0.00012694956
-2.2769277e-12
-0.00026217647
0.00011811209
-1.8998106e-12
-0.00028067695
0.00010688573
-1.5139874e-12
-0.00029708107
9.3330386e-05
-1.093019e-12
-0.00031105172
7.7541521e-05
-6.0911187e-13
-0.0003222639
5.9667685e-05
-6.9341003e-14
-0.00033041196
3.9925496e-05
4.7211506e-13
-0.00033521872
1.8611413e-05
9.3908505e-13
-0.00033644688
-3.89019e-06
1.3026631e-12
-0.0003339115
-2.7104842e-05
1.7062368e-12
-0.00032749576
-5.0467056e-05
2.1523549e-12
-0.00031716668
-7.3330926e-05
2.6284127e-12
-0.00030299209
-9.4983772e-05
2.996275e-12
-0.00028515662
-0.00011466937
3.1134657e-12
-0.000263975
-0.00013161971
3.0197825e-12
-0.00023990048
-0.00014509558
2.9451706e-12
-0.00021352573
-0.00015443488
3.0685839e-12
-0.00018557368
-0.00015910634
3.2773865e-12
-0.00015687646
-0.00015876468
3.2744975e-12
-0.00012834153
-0.00015330183
3.002352e-12
-0.00010090602
-0.00014288806
2.8117163e-12
-7.5482461e-05
-0.00012799682
2.9122203e-12
-5.2901124e-05
-0.00010940842
2.8767293e-12
-3.3855081e-05
-8.8191256e-05
3.2169034e-12
-1.8854766e-05
-6.5662029e-05
6.0940851e-12
-8.198264e-06
-4.3325198e-05
3.4396964e-12
-1.9611674e-06
-2.2799377e-05
-1.3983475e-11
-5.8044642e-06
1.7996933e-11
-3.6023002e-06
1.80161e-05
-3.0336895e-11
-1.3044862e-05
5.0696206e-05
2.9123614e-11
-2.7149268e-05
7.9265742e-05
-3.4203272e-12
-4.4907133e-05
0.00010344368
-8.9519652e-12
-6.5461453e-05
0.00012324009
-4.0045998e-12
-8.8087163e-05
0.00013882111
-3.5742093e-12
-0.00011216871
0.00015043737
-4.02285e-12
-0.00013717731
0.00015836744
-3.917435e-12
-0.00016264975
0.00016287531
-3.7009642e-12
-0.00018816978
0.00016418409
-3.5001277e-12
-0.00021335247
0.00016246426
-3.262579e-12
-0.00023783184
0.00015783409
-2.9638596e-12
-0.0002612517
0.00015036942
-2.6069888e-12
-0.00028325961
0.00014012001
-2.2133613e-12
-0.00030350359
0.00012712972
-1.8101833e-12
-0.00032163141
0.00011145821
-1.4045919e-12
-0.00033729219
9.3202291e-05
-9.6860945e-13
-0.00035014013
7.2515612e-05
-4.6193572e-13
-0.00035984054
4.9625905e-05
1.1916994e-13
-0.00036607817
2.484906e-05
6.9764615e-13
-0.0003685687
-1.3996404e-06
1.1479381e-12
-0.00036707109
-2.8602465e-05
1.6189264e-12
-0.00036140613
-5.6132043e-05
2.0001255e-12
-0.00035147437
-8.3262724e-05
2.4230269e-12
-0.00033727762
-0.00010918051
2.9033353e-12
-0.0003189407
-0.00013300625
3.2878699e-12
-0.00029673154
-0.00015382883
3.4020983e-12
-0.00027107709
-0.00017075005
3.2681682e-12
-0.0002425715
-0.00018294053
3.1321539e-12
-0.00021197318
-0.0001897047
3.1961339e-12
-0.0001801875
-0.00019055033
3.3518421e-12
-0.00014823321
-0.00018525606
3.3265734e-12
-0.00011719267
-0.00017392859
3.1197288e-12
-8.8148911e-05
-0.00015704063
2.9355959e-12
-6.2115367e-05
-0.00013544199
2.6518499e-12
-3.9966471e-05
-0.00011034014
3.122711e-12
-2.2377589e-05
-8.3250892e-05
6.7332608e-12
-9.7826808e-06
-5.5920112e-05
3.537992e-12
-2.3546966e-06
-3.0227356e-05
-1.7505382e-11
-8.1591835e-06
2.0982394e-11
-3.8870468e-06
2.1903179e-05
-3.2530532e-11
-1.4048649e-05
6.0857774e-05
3.1738322e-11
-2.919203e-05
9.4409126e-05
-3.4080398e-12
-4.8215224e-05
0.00012246689
-9.4072218e-12
-7.0187784e-05
0.00014521266
-4.1035319e-12
-9.4329984e-05
0.00016296332
-3.6835454e-12
-0.00011998812
0.0001760955
-4.2166771e-12
-0.00014660896
0.00018498829
-4.1452848e-12
-0.00017371574
0.0001899821
-3.9422485e-12
-0.00020088669
0.00019135505
-3.7564307e-12
-0.0002277369
0.00018931448
-3.550034e-12
-0.00025390361
0.0001840008
-3.3005235e-12
-0.00027903498
0.0001755008
-2.9907302e-12
-0.00030278209
0.00016386712
-2.6133963e-12
-0.00032479372
0.00014914136
-2.187423e-12
-0.00034471378
0.00013137829
-1.7482852e-12
-0.00036218099
0.0001106695
-1.3137965e-12
-0.00037683087
8.7165479e-05
-8.5811524e-13
-0.00038830016
6.1095175e-05
-3.2921799e-13
-0.00039623402
3.2782915e-05
3.0304427e-13
-0.00040029612
2.6624813e-06
9.9804037e-13
-0.00040018361
-2.8714952e-05
1.5292433e-12
-0.00039564379
-6.0671862e-05
1.95397e-12
-0.00038649712
-9.240943e-05
2.3113596e-12
-0.00037266242
-0.00012301525
2.7128771e-12
-0.00035418477
-0.00015148389
3.1808306e-12
-0.0003312636
-0.00017674997
3.5602399e-12
-0.00030427764
-0.00019773598
3.6576345e-12
-0.00027380282
-0.00021341536
3.4859703e-12
-0.00024061818
-0.0002228894
3.2967438e-12
-0.0002056951
-0.00022547344
3.29059e-12
-0.00017016629
-0.00022078483
3.3776938e-12
-0.00013527308
-0.00020882176
3.3609494e-12
-0.00010229325
-0.00019002046
3.1332005e-12
-7.2455899e-05
-0.00016527939
2.5608936e-12
-4.6853278e-05
-0.00013594278
2.9779577e-12
-2.636135e-05
-0.00010374282
7.3447292e-12
-1.1580431e-05
-7.0701022e-05
3.6279953e-12
-2.803311e-06
-3.9004455e-05
-2.144042e-11
-1.0962524e-05
2.4428611e-11
-4.1321126e-06
2.6035326e-05
-3.4465721e-11
-1.4914085e-05
7.1639709e-05
3.3931724e-11
-3.0957106e-05
0.00011045215
-3.4704336e-12
-5.1080613e-05
0.0001425904
-9.8757484e-12
-7.4292213e-05
0.00016842426
-4.2573793e-12
-9.9766045e-05
0.00018843715
-3.8352776e-12
-0.00012681659
0.00020314605
-4.4412895e-12
-0.00015487119
0.00021304289
-4.4138272e-12
-0.0001834438
0.00021855472
-4.2379401e-12
-0.00021211134
0.0002200226
-4.0643722e-12
-0.00024049326
0.00021769641
-3.8653909e-12
-0.00026823473
0.00021174228
-3.6393135e-12
-0.0002949933
0.00020225937
-3.3779461e-12
-0.00032042882
0.00018930264
-3.0552569e-12
-0.00034419617
0.00017290871
-2.6538086e-12
-0.00036594049
0.00015312262
-2.1893295e-12
-0.00038529479
0.00013002381
-1.70556e-12
-0.00040187974
0.00010375044
-1.234307e-12
-0.00041530618
7.4521593e-05
-7.5417136e-13
-0.00042518052
4.2657234e-05
-1.8452837e-13
-0.00043111372
8.5956735e-06
5.3410906e-13
-0.00043273597
-2.7092686e-05
1.1959307e-12
-0.0004297139
-6.36939e-05
1.8160732e-12
-0.00042177592
-0.0001003474
2.2868165e-12
-0.00040874149
-0.00013604972
2.6457193e-12
-0.00039055518
-0.00016967024
3.024527e-12
-0.00036732332
-0.00019998184
3.4612939e-12
-0.00033934961
-0.00022570965
3.8039871e-12
-0.00030716518
-0.00024559976
3.8577971e-12
-0.00027154667
-0.00025850792
3.6393077e-12
-0.00023351589
-0.00026350427
3.3943773e-12
-0.00019431489
-0.00025998586
3.3228585e-12
-0.00015535283
-0.0002477838
3.3829826e-12
-0.00011812519
-0.00022724807
3.2645301e-12
-8.4111777e-05
-0.0001992928
2.5597478e-12
-5.4665455e-05
-0.00016538912
2.9111336e-12
-3.090733e-05
-0.00012750096
8.0373549e-12
-1.3644691e-05
-8.7963659e-05
3.6850489e-12
-3.3229884e-06
-4.9326125e-05
-2.5981942e-11
-1.4285542e-05
2.8440132e-11
-4.3334501e-06
3.0368813e-05
-3.6106974e-11
-1.5627781e-05
8.2934004e-05
3.5689318e-11
-3.2417885e-05
0.00012724226
-3.583053e-12
-5.3460267e-05
0.00016363279
-1.0336596e-11
-7.77124e-05
0.0001926764
-4.4650298e-12
-0.00010431092
0.00021503568
-4.0330107e-12
-0.00013254481
0.00023137995
-4.6874049e-12
-0.00016182681
0.00024232489
-4.6972066e-12
-0.00019166574
0.00024839364
-4.5614116e-12
-0.00022164109
0.00024999795
-4.4189786e-12
-0.00025138079
0.00024743612
-4.2303374e-12
-0.00028054245
0.00024090395
-4.0036437e-12
-0.000308798
0.00023051493
-3.7563028e-12
-0.00033582156
0.00021632619
-3.4795683e-12
-0.00036127995
0.00019836709
-3.1411828e-12
-0.00038482572
0.00017666839
-2.7134313e-12
-0.00040609231
0.00015129041
-2.2067678e-12
-0.00042469153
0.00012234967
-1.6723678e-12
-0.00044021359
9.004366e-05
-1.1544887e-12
-0.00045223039
5.4674028e-05
-6.3062861e-13
-0.00046030279
1.6668046e-05
-2.2754773e-14
-0.00046399334
-2.3402151e-05
6.6572995e-13
-0.00046288425
-6.4802977e-05
1.4300283e-12
-0.00045660316
-0.00010662845
2.1236311e-12
-0.00044485585
-0.00014779702
2.63512e-12
-0.00042746591
-0.0001870602
3.0013415e-12
-0.00040442003
-0.00022302776
3.3539204e-12
-0.00037591544
-0.00025421425
3.7350646e-12
-0.00034240441
-0.00027911076
4.0007949e-12
-0.00030462845
-0.00029628384
3.9741183e-12
-0.00026363323
-0.00030449949
3.6883239e-12
-0.00022075503
-0.00030286411
3.3998308e-12
-0.00017757156
-0.00029096729
3.3235167e-12
-0.00013581494
-0.00026900467
3.2245371e-12
-9.7251875e-05
-0.00023785585
2.4753413e-12
-6.3544802e-05
-0.0001990962
2.8847753e-12
-3.6114674e-05
-0.00015493111
8.9077964e-12
-1.6028553e-05
-0.00010804979
3.7646624e-12
-3.9298344e-06
-6.142481e-05
-3.1274841e-11
-1.8215407e-05
3.3112742e-11
-4.4872207e-06
3.4856071e-05
-3.7423155e-11
-1.6177311e-05
9.462406e-05
3.6984317e-11
-3.3549874e-05
0.00014461482
-3.7277401e-12
-5.5314516e-05
0.00018539744
-1.0760176e-11
-8.0390312e-05
0.0002177522
-4.7117396e-12
-0.00010788473
0.0002425301
-4.2799204e-12
-0.00013706715
0.00026056238
-4.9637275e-12
-0.00016734016
0.0002725979
-4.9901817e-12
-0.00019821106
0.00027926455
-4.8854431e-12
-0.00022926546
0.00028105235
-4.78584e-12
-0.00026014351
0.00027831417
-4.6310691e-12
-0.00029051948
0.00027127993
-4.4135767e-12
-0.00032008463
0.00026008009
-4.1570466e-12
-0.00034853296
0.00024477454
-3.8819435e-12
-0.00037554971
0.00022538384
-3.5833007e-12
-0.00040080196
0.00020192063
-3.2252065e-12
-0.00042393137
0.00017441982
-2.7692095e-12
-0.00044454907
0.00014296737
-2.2184263e-12
-0.00046223298
0.00010772758
-1.6261237e-12
-0.00047652838
6.8969444e-05
-1.0456116e-12
-0.00048695264
2.7092298e-05
-4.7084241e-13
-0.00049300541
-1.7349399e-05
1.5403503e-13
-0.00049418542
-6.3622987e-05
8.9828255e-13
-0.00049001561
-0.00011079826
1.7167376e-12
-0.00048007752
-0.00015773508
2.4606651e-12
-0.00046405544
-0.00020308226
3.0065243e-12
-0.00044178955
-0.00024529367
3.375141e-12
-0.00041333557
-0.00028266826
3.6860636e-12
-0.0003790258
-0.00031342055
3.9759966e-12
-0.00033952318
-0.00033578644
4.1140612e-12
-0.00029585737
-0.00034816528
3.9621881e-12
-0.00024942967
-0.00034929181
3.6131636e-12
-0.00020197488
-0.00033842211
3.3555306e-12
-0.00015547277
-0.00031550679
3.1141612e-12
-0.00011201154
-0.00028131708
2.2339137e-12
-7.3617456e-05
-0.00023749027
2.7812724e-12
-4.207698e-05
-0.00018647159
9.948319e-12
-1.8783994e-05
-0.00013134278
3.9092313e-12
-4.6400095e-06
-7.556876e-05
-3.7419708e-11
-2.2855454e-05
3.8566137e-11
-4.5902813e-06
3.944639e-05
-3.8381692e-11
-1.6552678e-05
0.00010658642
3.7788785e-11
-3.4333325e-05
0.00016239548
-3.9019951e-12
-5.661085e-05
0.00020767498
-1.1125004e-11
-8.2277133e-05
0.00024341849
-4.9725124e-12
-0.00011041812
0.00027067109
-4.5622123e-12
-0.00014028883
0.0002904331
-5.2757697e-12
-0.00017128541
0.00030359448
-5.3068879e-12
-0.00020291676
0.00031089592
-5.2101775e-12
-0.00023477755
0.00031291314
-5.137133e-12
-0.00026652343
0.00031006005
-5.0234911e-12
-0.00029784929
0.00030260579
-4.8416302e-12
-0.00032847043
0.00029070123
-4.5933021e-12
-0.00035810653
0.00027441065
-4.2993554e-12
-0.00038646805
0.00025374537
-3.9865334e-12
-0.00041324465
0.00022869723
-3.6567193e-12
-0.00043809547
0.00019927063
-3.2720675e-12
-0.00046064132
0.00016551322
-2.7840683e-12
-0.00048045911
0.00012754538
-2.1857925e-12
-0.00049707924
8.5589595e-05
-1.5284356e-12
-0.00050998697
4.0000044e-05
-8.7800624e-13
-0.00051862916
-8.707207e-06
-2.4579813e-13
-0.00052242813
-5.9824039e-05
4.2863493e-13
-0.00052080443
-0.00011242198
1.2159898e-12
-0.0005132107
-0.0001653288
2.0734405e-12
-0.00049917802
-0.00021711492
2.8486216e-12
-0.00047837529
-0.00026609638
3.4077149e-12
-0.00045068041
-0.00031036316
3.7558577e-12
-0.00041625875
-0.00034784224
3.9908287e-12
-0.00037564072
-0.00037640448
4.1348876e-12
-0.00032978519
-0.00039402079
4.0832095e-12
-0.00028011178
-0.0003989652
3.7981244e-12
-0.00022848363
-0.00039005027
3.4695932e-12
-0.00017712609
-0.00036686434
3.0444488e-12
-0.0001284776
-0.00032996557
1.8958976e-12
-8.4985548e-05
-0.00028098232
2.5518479e-12
-4.8878616e-05
-0.00022257853
1.1107737e-11
-2.1960813e-05
-0.00015826059
4.1013756e-12
-5.4696754e-06
-9.2059855e-05
-4.4527562e-11
-2.8325174e-05
4.4937155e-11
-4.6407174e-06
4.4087146e-05
-3.8954703e-11
-1.6747979e-05
0.00011869365
3.809348e-11
-3.4756293e-05
0.0001804038
-4.1108516e-12
-5.732843e-05
0.00023024713
-1.1429822e-11
-8.3339218e-05
0.00026942928
-5.2327767e-12
-0.00011185966
0.00029919153
-4.8568307e-12
-0.00014213468
0.00032070813
-5.6099592e-12
-0.00017355693
0.00033501675
-5.6549081e-12
-0.00020563933
0.00034297832
-5.5559773e-12
-0.00023798798
0.0003452618
-5.481013e-12
-0.00027027687
0.00034234895
-5.3820604e-12
-0.00030222505
0.00033455397
-5.2345589e-12
-0.00033357637
0.00032205255
-5.0207199e-12
-0.0003640819
0.00030491618
-4.7326022e-12
-0.00039348442
0.0002831479
-4.3900184e-12
-0.00042150483
0.00025671764
-4.0271055e-12
-0.00044783014
0.00022559595
-3.6533159e-12
-0.00047210304
0.00018978611
-3.2309244e-12
-0.00049391336
0.00014935568
-2.7032071e-12
-0.0005127919
0.00010446814
-2.0517946e-12
-0.00052820789
5.5416055e-05
-1.3247921e-12
-0.0005395712
2.6561245e-06
-5.9434223e-13
-0.00054624164
-5.3153597e-05
9.7937228e-14
-0.00054754723
-0.0001111164
8.2853401e-13
-0.00054281483
-0.00017006122
1.6558194e-12
-0.00053141564
-0.00022851411
2.5327603e-12
-0.00051282787
-0.00028468413
3.3054263e-12
-0.0004867172
-0.00033647382
3.8373067e-12
-0.00045303231
-0.00038152714
4.1178396e-12
-0.0004121081
-0.00041732871
4.2123469e-12
-0.00036476263
-0.00044136628
4.1325605e-12
-0.0003123667
-0.00045136112
3.8714696e-12
-0.00025686071
-0.00044555625
3.5458462e-12
-0.00020069373
-0.00042303133
2.9932224e-12
-0.00014667108
-0.00038398823
1.5136411e-12
-9.7717372e-05
-0.00032993604
2.2248189e-12
-5.6590311e-05
-0.0002637056
1.2379853e-11
-2.5605316e-05
-0.00018924558
4.3066768e-12