/*--------------------------------*- C++ -*----------------------------------*\
  =========                 |
  \\      /  F ield         | OpenFOAM: The Open Source CFD Toolbox
   \\    /   O peration     | Website:  https://openfoam.org
    \\  /    A nd           | Version:  7
     \\/     M anipulation  |
\*---------------------------------------------------------------------------*/
FoamFile
{
    version     2.0;
    format      ascii;
    class       volVectorField;
    location    "30";
    object      U;
}
// * * * * * * * * * * * * * * * * * * * * * * * * * * * * * * * * * * * * * //

dimensions      [0 1 -1 0 0 0 0];

internalField   nonuniform List<vector> 
16000
(
(6.6012502e-05 -6.7364485e-05 -4.2561724e-07)
(0.00016270747 -5.6372764e-05 5.673451e-06)
(0.00014190292 4.5608407e-07 1.9173089e-05)
(-5.0626032e-05 6.1887867e-05 3.6595604e-05)
(-0.00040997489 0.00011562983 5.4704211e-05)
(-0.00090902642 0.00015774331 7.1532669e-05)
(-0.0015177108 0.00018850455 8.5744867e-05)
(-0.0022068848 0.00020960892 9.6525629e-05)
(-0.0029505995 0.00022287652 0.00010341462)
(-0.0037264624 0.00022981073 0.00010616494)
(-0.0045150477 0.00023147675 0.00010464933)
(-0.0052990102 0.00022850378 9.880473e-05)
(-0.0060621898 0.00022114732 8.8606479e-05)
(-0.0067888602 0.00020938272 7.4065141e-05)
(-0.0074632117 0.00019301292 5.5239491e-05)
(-0.0080691128 0.00017177966 3.2259749e-05)
(-0.0085901658 0.00014547125 5.3557935e-06)
(-0.0090100462 0.0001140223 -2.5114497e-05)
(-0.0093130981 7.7602046e-05 -5.8641205e-05)
(-0.0094851431 3.6687318e-05 -9.4546576e-05)
(-0.0095144421 -7.8875629e-06 -0.0001319809)
(-0.009392724 -5.4925345e-05 -0.00016993303)
(-0.0091162196 -0.00010284329 -0.0002072566)
(-0.0086865989 -0.00014974718 -0.00024271385)
(-0.0081116879 -0.00019350947 -0.000275035)
(-0.0074058897 -0.00023188591 -0.0003029911)
(-0.0065902139 -0.00026266368 -0.0003254757)
(-0.0056918497 -0.00028383028 -0.00034158889)
(-0.0047432609 -0.00029374729 -0.00035071652)
(-0.0037808214 -0.00029130595 -0.0003525971)
(-0.0028430647 -0.00027604117 -0.00034737019)
(-0.0019686479 -0.00024819042 -0.00033560226)
(-0.0011941381 -0.00020870627 -0.00031828885)
(-0.00055166706 -0.00015926752 -0.0002968353)
(-6.6516774e-05 -0.00010240114 -0.00027301145)
(0.00024491037 -4.1741458e-05 -0.00024887457)
(0.00037894361 1.7852098e-05 -0.00022680549)
(0.00034980371 6.705256e-05 -0.00020923957)
(0.00020621123 8.9822692e-05 -0.00019884916)
(5.747645e-05 5.7393904e-05 -0.00018440221)
(5.7985571e-05 -0.00016707515 -6.6576044e-06)
(4.0852855e-05 -3.9986904e-05 -4.0477991e-07)
(-0.00029499554 0.00024855168 1.1228674e-05)
(-0.0010110386 0.00056211706 2.5594694e-05)
(-0.0020992385 0.0008474934 4.0579709e-05)
(-0.0035140949 0.0010831192 5.4587925e-05)
(-0.0051946903 0.0012643005 6.6492038e-05)
(-0.0070766316 0.0013940673 7.5539722e-05)
(-0.0090981502 0.00147796 8.1249154e-05)
(-0.011202304 0.001521526 8.3320688e-05)
(-0.01333703 0.0015292096 8.1571025e-05)
(-0.015454172 0.0015039743 7.589019e-05)
(-0.017508143 0.0014473563 6.6219801e-05)
(-0.019454708 0.0013597771 5.2549075e-05)
(-0.021250146 0.0012410006 3.4924151e-05)
(-0.022850963 0.0010906567 1.3466252e-05)
(-0.024214213 0.0009087734 -1.1605613e-05)
(-0.025298419 0.00069627534 -3.995152e-05)
(-0.026065042 0.00045541538 -7.1090879e-05)
(-0.026480383 0.00019010802 -0.00010438953)
(-0.026517798 -9.3865263e-05 -0.00013905662)
(-0.026159968 -0.00038877686 -0.00017416055)
(-0.02540115 -0.00068509127 -0.0002086454)
(-0.024249153 -0.00097175667 -0.00024137881)
(-0.022726739 -0.0012366885 -0.0002712052)
(-0.02087234 -0.0014674235 -0.00029701304)
(-0.018739901 -0.0016519057 -0.00031781006)
(-0.016397703 -0.0017793552 -0.00033280053)
(-0.013926114 -0.0018411487 -0.00034145749)
(-0.011414313 -0.00183163 -0.00034358267)
(-0.0089561035 -0.0017487651 -0.00033934728)
(-0.0066450102 -0.0015945807 -0.00032930982)
(-0.0045688916 -0.0013753972 -0.00031440944)
(-0.0028042105 -0.0011019813 -0.00029593667)
(-0.0014100156 -0.00078992582 -0.00027548326)
(-0.00042165194 -0.00046057071 -0.00025486481)
(0.00015574171 -0.00014253454 -0.00023599658)
(0.00035672147 0.00012231609 -0.00022089441)
(0.00027529574 0.00027109876 -0.00021165708)
(9.0147432e-05 0.00020506958 -0.00019546547)
(1.9110814e-06 -0.00014897859 -2.0443926e-05)
(-0.00025606395 0.0002970022 -1.1826291e-05)
(-0.0010504674 0.0010236106 7.2033689e-08)
(-0.0023878403 0.0017975293 1.3052141e-05)
(-0.0042394537 0.0025098964 2.6088405e-05)
(-0.0065455688 0.0031100517 3.8039947e-05)
(-0.0092251268 0.0035809211 4.807978e-05)
(-0.012189998 0.0039234292 5.5647249e-05)
(-0.015352985 0.0041461817 6.0360688e-05)
(-0.018631048 0.0042595874 6.196339e-05)
(-0.021946068 0.004272811 6.028244e-05)
(-0.025224242 0.004192471 5.5200065e-05)
(-0.028394906 0.0040224655 4.6639948e-05)
(-0.031389372 0.0037645206 3.4566935e-05)
(-0.0341402 0.0034191676 1.8997134e-05)
(-0.03658112 0.0029869368 1.5090985e-08)
(-0.038647726 0.0024696024 -2.2205317e-05)
(-0.040278918 0.0018713558 -4.7379632e-05)
(-0.041419028 0.001199807 -7.5094372e-05)
(-0.042020478 0.00046673147 -0.00010479471)
(-0.042046744 -0.00031149673 -0.00013578277)
(-0.041475447 -0.0011138093 -0.00016722332)
(-0.040301291 -0.0019148763 -0.00019816912)
(-0.038538531 -0.0026858629 -0.00022759704)
(-0.036222732 -0.0033956755 -0.000254459)
(-0.033411568 -0.0040125995 -0.00027774462)
(-0.030184419 -0.0045062387 -0.00029655118)
(-0.026640633 -0.0048496322 -0.00031015563)
(-0.022896365 -0.005021392 -0.00031808193)
(-0.019080004 -0.0050076932 -0.00032015644)
(-0.015326324 -0.0048039495 -0.00031654436)
(-0.011769581 -0.0044160523 -0.00030776199)
(-0.0085358477 -0.0038611464 -0.00029466294)
(-0.0057348789 -0.0031681062 -0.00027840001)
(-0.0034516868 -0.0023781349 -0.00026036703)
(-0.0017379691 -0.0015462015 -0.00024212035)
(-0.00060369928 -0.00074417313 -0.00022527124)
(-8.0638109e-06 -6.6330225e-05 -0.00021141247)
(0.0001554077 0.00036040921 -0.00020223138)
(7.356482e-05 0.00035436537 -0.00018531317)
(-6.4687727e-05 5.0417325e-05 -3.8695826e-05)
(-0.00060838997 0.0010457474 -2.6158198e-05)
(-0.0019305504 0.0023817231 -1.217687e-05)
(-0.0039464501 0.0037565065 1.1159716e-06)
(-0.0065890257 0.0050153029 1.3704254e-05)
(-0.0097792087 0.0060800532 2.4828582e-05)
(-0.013417133 0.006920512 3.3951728e-05)
(-0.017395533 0.0075341036 4.073841e-05)
(-0.021607739 0.0079313869 4.495268e-05)
(-0.025950697 0.0081270312 4.6422668e-05)
(-0.030325849 0.0081347593 4.5017574e-05)
(-0.034638795 0.0079649924 4.0631092e-05)
(-0.038798359 0.0076243654 3.3176186e-05)
(-0.042715677 0.0071164994 2.2590577e-05)
(-0.046303742 0.0064435467 8.8505572e-06)
(-0.049477658 0.0056081391 -8.0093897e-06)
(-0.052155713 0.0046154448 -2.7873905e-05)
(-0.054261273 0.0034751074 -5.0523864e-05)
(-0.055725399 0.0022028858 -7.5616195e-05)
(-0.056490001 0.000821851 -0.00010266969)
(-0.056511302 -0.00063696586 -0.00013105985)
(-0.055763408 -0.0021345895 -0.00016002172)
(-0.054241632 -0.0036248082 -0.00018867316)
(-0.05196528 -0.0050556172 -0.00021604695)
(-0.048979627 -0.0063713919 -0.00024114003)
(-0.045356778 -0.0075157142 -0.00026297511)
(-0.04119517 -0.0084347158 -0.00028067031)
(-0.036617522 -0.0090807337 -0.00029351124)
(-0.03176713 -0.0094160163 -0.00030101826)
(-0.026802499 -0.009416203 -0.00030300177)
(-0.021890395 -0.0090733122 -0.00029959813)
(-0.017197559 -0.0083980382 -0.00029128011)
(-0.012881394 -0.0074212766 -0.00027883869)
(-0.0090800698 -0.0061950017 -0.00026333736)
(-0.0059024823 -0.0047929321 -0.00024604384)
(-0.0034184786 -0.0033118403 -0.00022834715)
(-0.0016495183 -0.0018745502 -0.00021167441)
(-0.00055981223 -0.00063469894 -0.00019742002)
(-5.0129469e-05 0.00021502172 -0.00018681942)
(3.8092458e-05 0.00041383347 -0.000168011)
(-0.00013086705 0.00044555838 -5.8212059e-05)
(-0.00097095511 0.0022426768 -4.1148188e-05)
(-0.0028462197 0.0043591683 -2.4265759e-05)
(-0.0055648205 0.0064571961 -9.8334115e-06)
(-0.0090094466 0.0083534582 3.085166e-06)
(-0.013075462 0.0099514353 1.4065209e-05)
(-0.017642274 0.011211732 2.2843758e-05)
(-0.02258467 0.012129568 2.9316007e-05)
(-0.027779616 0.012717509 3.3404779e-05)
(-0.033108091 0.012994132 3.5037219e-05)
(-0.038455468 0.012977352 3.4136008e-05)
(-0.043711096 0.012681202 3.0612729e-05)
(-0.048767482 0.012115116 2.4370538e-05)
(-0.053519589 0.011284975 1.5315968e-05)
(-0.057864653 0.010195249 3.3776801e-06)
(-0.061702744 0.0088517335 -1.1469876e-05)
(-0.064938178 0.0072644353 -2.9180111e-05)
(-0.067481741 0.0054502893 -4.9607769e-05)
(-0.069253647 0.0034354335 -7.248499e-05)
(-0.070187017 0.001256842 -9.7403028e-05)
(-0.070231669 -0.0010368502 -0.00012380267)
(-0.069357964 -0.0033854691 -0.00015097575)
(-0.067560416 -0.0057183842 -0.00017808165)
(-0.064860755 -0.0079566734 -0.00020417866)
(-0.061310157 -0.010016294 -0.00022827179)
(-0.05699032 -0.011812186 -0.00024937467)
(-0.052013113 -0.013263134 -0.00026658167)
(-0.046518534 -0.01429713 -0.00027914337)
(-0.040670837 -0.014856867 -0.0002865376)
(-0.034652755 -0.014904979 -0.00028852759)
(-0.028657877 -0.014428606 -0.00028519959)
(-0.022881378 -0.013442976 -0.00027697379)
(-0.017509466 -0.011993825 -0.00026458465)
(-0.012708066 -0.010158696 -0.00024903039)
(-0.0086114851 -0.0080474739 -0.00023149508)
(-0.0053117556 -0.0058029543 -0.00021325814)
(-0.0028485022 -0.0036024911 -0.0001956326)
(-0.0012000263 -0.0016605549 -0.00017988445)
(-0.00028881777 -0.00023377313 -0.00016673929)
(-2.4767398e-06 0.00035046992 -0.0001455061)
(-0.00019286559 0.0010313015 -7.6692227e-05)
(-0.0013239888 0.0038925201 -5.4789702e-05)
(-0.0037518608 0.0069679806 -3.4584919e-05)
(-0.0071733032 0.0099107978 -1.849142e-05)
(-0.011414809 0.012527376 -4.6956907e-06)
(-0.016341481 0.014714482 6.6670753e-06)
(-0.021809612 0.016430481 1.5583927e-05)
(-0.027675865 0.017671997 2.216949e-05)
(-0.033802377 0.018455227 2.6502237e-05)
(-0.040056821 0.018803192 2.8608892e-05)
(-0.046311804 0.018738058 2.8466685e-05)
(-0.052444022 0.018277389 2.6004648e-05)
(-0.058333311 0.017433419 2.1113216e-05)
(-0.063862012 0.016214479 1.3662261e-05)
(-0.068914936 0.014627809 3.5253214e-06)
(-0.073380142 0.012683097 -9.3917635e-06)
(-0.077150552 0.010396202 -2.5119688e-05)
(-0.080126391 0.007792634 -4.3594205e-05)
(-0.082218331 0.0049104456 -6.4627008e-05)
(-0.083351155 0.0018022832 -8.7882034e-05)
(-0.083467757 -0.0014636068 -0.00011286054)
(-0.082533197 -0.0048035752 -0.00013889865)
(-0.080538593 -0.0081200373 -0.00016517903)
(-0.077504535 -0.011304318 -0.0001907607)
(-0.073483717 -0.014240811 -0.00021462567)
(-0.068562487 -0.016812375 -0.00023574212)
(-0.062860956 -0.018906773 -0.00025314013)
(-0.056531355 -0.020423851 -0.00026599318)
(-0.049754385 -0.021283032 -0.00027369646)
(-0.042733388 -0.021430581 -0.00027593196)
(-0.035686347 -0.020846095 -0.00027271093)
(-0.028835893 -0.019547666 -0.00026438748)
(-0.022397676 -0.0175954 -0.00025163962)
(-0.016567742 -0.01509317 -0.00023541702)
(-0.011509873 -0.012188841 -0.00021685643)
(-0.0073439141 -0.0090736488 -0.0001971836)
(-0.0041345341 -0.0059816685 -0.00017767138)
(-0.0018815865 -0.0031890482 -0.00015955374)
(-0.00053618989 -0.0010143267 -0.00014315952)
(-4.1247585e-05 0.00015895132 -0.00011906696)
(-0.00025011677 0.0017985664 -9.2178897e-05)
(-0.0016597734 0.0059841283 -6.5290114e-05)
(-0.004624457 0.010198598 -4.1603735e-05)
(-0.008732169 0.014106997 -2.3548918e-05)
(-0.013751601 0.01752231 -8.5105475e-06)
(-0.019515072 0.02034709 3.6284032e-06)
(-0.025854132 0.022545896 1.3079703e-05)
(-0.03260699 0.024121975 2.0159419e-05)
(-0.039621855 0.025098081 2.5089812e-05)
(-0.046754976 0.025503151 2.7989183e-05)
(-0.053868758 0.025364202 2.8883164e-05)
(-0.060830199 0.024702513 2.7712481e-05)
(-0.067509587 0.023533152 2.4348552e-05)
(-0.073779708 0.02186696 1.8617318e-05)
(-0.079515814 0.019714107 1.0329011e-05)
(-0.084596432 0.017088476 -6.8780439e-07)
(-0.088905055 0.014012222 -1.4549582e-05)
(-0.092332629 0.010520003 -3.128059e-05)
(-0.09478075 0.0066624815 -5.0777714e-05)
(-0.096165397 0.0025088118 -7.2780346e-05)
(-0.09642105 -0.0018521378 -9.6849028e-05)
(-0.095504957 -0.0063119869 -0.00012235748)
(-0.093401361 -0.010744582 -0.00014849904)
(-0.090125414 -0.015009408 -0.00017431416)
(-0.085726449 -0.018956645 -0.00019873606)
(-0.080290295 -0.022433795 -0.00022065557)
(-0.073940237 -0.025293724 -0.00023900108)
(-0.066836191 -0.027403756 -0.0002528274)
(-0.059171706 -0.028655366 -0.000261404)
(-0.051168473 -0.028973802 -0.00026429128)
(-0.043068234 -0.028326892 -0.0002613931)
(-0.035122189 -0.02673225 -0.00025297703)
(-0.02757832 -0.024262232 -0.00023965866)
(-0.020667318 -0.021046311 -0.00022234964)
(-0.014588334 -0.017270901 -0.00020216891)
(-0.0094958254 -0.01317721 -0.00018033927)
(-0.0054864982 -0.0090579142 -0.0001581648)
(-0.0025879497 -0.0052522169 -0.00013693353)
(-0.00078446283 -0.0021405406 -0.00011664967)
(-7.68715e-05 -0.0001605394 -8.9443235e-05)
(-0.00030295606 0.0027365251 -0.00010300245)
(-0.0019754984 0.0084980912 -7.1032944e-05)
(-0.0054521402 0.014028559 -4.3885108e-05)
(-0.01021797 0.019021369 -2.3740468e-05)
(-0.015985174 0.023311071 -7.245216e-06)
(-0.022552787 0.02681817 5.9437424e-06)
(-0.029727167 0.029522404 1.6240968e-05)
(-0.037328184 0.03143975 2.4144295e-05)
(-0.045190955 0.032603377 3.0003803e-05)
(-0.053161854 0.033050347 3.4016445e-05)
(-0.061095202 0.032813667 3.6245401e-05)
(-0.068850806 0.0319188 3.6633543e-05)
(-0.07629208 0.030383762 3.5024314e-05)
(-0.083284924 0.028221841 3.1190769e-05)
(-0.089697481 0.025446003 2.4870536e-05)
(-0.095400816 0.022074157 1.5805236e-05)
(-0.10027049 0.018134558 3.7828522e-06)
(-0.10418895 0.013670794 -1.1318895e-05)
(-0.10704864 0.008745926 -2.9490693e-05)
(-0.10875565 0.0034454515 -5.0554382e-05)
(-0.10923397 -0.0021211522 -7.4134142e-05)
(-0.10842991 -0.0078205048 -9.9641946e-05)
(-0.10631676 -0.013497136 -0.00012627669)
(-0.10289937 -0.018977273 -0.00015304831)
(-0.098218355 -0.024074587 -0.00017882138)
(-0.092353501 -0.028597933 -0.0002023815)
(-0.08542599 -0.032360945 -0.00022252007)
(-0.077598856 -0.03519316 -0.00023813137)
(-0.069075117 -0.03695214 -0.00024831259)
(-0.06009307 -0.037535839 -0.00025245482)
(-0.05091844 -0.036894239 -0.00025031136)
(-0.041833348 -0.035039182 -0.00024203136)
(-0.033122481 -0.032051348 -0.00022815244)
(-0.025057284 -0.028083633 -0.00020955169)
(-0.017879627 -0.023360681 -0.00018735348)
(-0.011786469 -0.018174997 -0.00016282194)
(-0.0069140729 -0.012880386 -0.00013735838)
(-0.0033238422 -0.0078822543 -0.00011238769)
(-0.0010368606 -0.0036261494 -8.7680152e-05)
(-0.00011093279 -0.0006070221 -5.7239034e-05)
(-0.00035169296 0.0038338168 -0.0001076993)
(-0.0022696845 0.011410347 -7.054411e-05)
(-0.0062274757 0.018427279 -4.0066169e-05)
(-0.011614742 0.024619929 -1.7815732e-05)
(-0.018090306 0.029857528 2.4817162e-07)
(-0.025421005 0.034089842 1.4677453e-05)
(-0.033388692 0.037320675 2.6071636e-05)
(-0.041795641 0.039585208 3.5091525e-05)
(-0.050464931 0.040931402 4.2198119e-05)
(-0.059234545 0.041407199 4.7652199e-05)
(-0.067952621 0.041053146 5.1541459e-05)
(-0.076473977 0.039899629 5.3799334e-05)
(-0.084657526 0.037967806 5.4230698e-05)
(-0.092364636 0.03527324 5.254552e-05)
(-0.09945851 0.031831265 4.8398408e-05)
(-0.10580454 0.027663165 4.1432954e-05)
(-0.1112716 0.022802451 3.1329643e-05)
(-0.11573414 0.01730062 1.7855523e-05)
(-0.11907507 0.01123198 9.1313952e-07)
(-0.12118932 0.0046971953 -1.9414292e-05)
(-0.121988 -0.0021747001 -4.282559e-05)
(-0.12140304 -0.0092260481 -6.8779611e-05)
(-0.1193924 -0.016272169 -9.6484187e-05)
(-0.11594541 -0.023105265 -0.00012491532)
(-0.11108814 -0.02950056 -0.00015285601)
(-0.10488833 -0.035224915 -0.00017896283)
(-0.097459252 -0.040047875 -0.0002018555)
(-0.088961985 -0.043754874 -0.00022022335)
(-0.079605213 -0.046162071 -0.0002329392)
(-0.06964184 -0.047131931 -0.00023916842)
(-0.059361815 -0.046588342 -0.00023845828)
(-0.04908092 -0.04452985 -0.00023079257)
(-0.039125742 -0.041039461 -0.00021660109)
(-0.029815737 -0.036289725 -0.00019671889)
(-0.021444127 -0.030542365 -0.00017229229)
(-0.014259491 -0.024142636 -0.00014466578)
(-0.0084461155 -0.017509194 -0.00011539918)
(-0.0041057579 -0.011119096 -8.6133629e-05)
(-0.0013000816 -0.0054896894 -5.6474597e-05)
(-0.00014466071 -0.0011817413 -2.2521516e-05)
(-0.00039639225 0.0050786696 -0.00010495024)
(-0.0025408033 0.014693472 -6.2471023e-05)
(-0.006944209 0.023357954 -2.8864848e-05)
(-0.012909239 0.030860778 -4.5633012e-06)
(-0.020045645 0.037117313 1.5116382e-05)
(-0.028090292 0.042116866 3.0923512e-05)
(-0.03680213 0.045895743 4.3628284e-05)
(-0.045967171 0.048514772 5.4037553e-05)
(-0.055397803 0.050041316 6.2707185e-05)
(-0.064925164 0.050537261 6.9947158e-05)
(-0.074393017 0.050052554 7.5856432e-05)
(-0.083653231 0.048623447 8.0347003e-05)
(-0.092562383 0.046274498 8.3174023e-05)
(-0.10097948 0.043023283 8.3973484e-05)
(-0.10876478 0.038886796 8.2305631e-05)
(-0.11577969 0.033888602 7.7703476e-05)
(-0.12188755 0.028065999 6.9725646e-05)
(-0.1269553 0.021476593 5.8012083e-05)
(-0.13085602 0.014203876 4.234029e-05)
(-0.13347217 0.0063614896 2.2679322e-05)
(-0.13469967 -0.0019040786 -7.6309743e-07)
(-0.13445274 -0.010412637 -2.751172e-05)
(-0.13266952 -0.018951349 -5.6794933e-05)
(-0.12931847 -0.027278368 -8.7561333e-05)
(-0.12440501 -0.035129001 -0.00011850823)
(-0.11797818 -0.042224859 -0.00014814535)
(-0.11013677 -0.048286132 -0.0001748876)
(-0.10103389 -0.053046855 -0.00019717135)
(-0.090879037 -0.056272693 -0.00021358497)
(-0.079936728 -0.057780282 -0.00022300018)
(-0.068520588 -0.057456657 -0.00022468814)
(-0.056982386 -0.055276899 -0.00021840308)
(-0.045695927 -0.051317876 -0.00020441821)
(-0.035036648 -0.045766063 -0.00018350279)
(-0.025358969 -0.038918024 -0.00015683053)
(-0.01697369 -0.031173305 -0.00012585963)
(-0.010123117 -0.023020487 -9.2367066e-05)
(-0.0049572995 -0.015016285 -5.8287898e-05)
(-0.0015839127 -0.0077601673 -2.3116059e-05)
(-0.00018000579 -0.001891998 1.4749545e-05)
(-0.00043687302 0.0064585626 -9.3552798e-05)
(-0.0027868503 0.018316884 -4.5574839e-05)
(-0.0075958945 0.028778296 -9.0905003e-06)
(-0.01408863 0.037694874 1.716338e-05)
(-0.021830791 0.045038172 3.8467145e-05)
(-0.030532246 0.050846231 5.5759379e-05)
(-0.039931289 0.055195648 6.9969265e-05)
(-0.049799472 0.058179072 8.2034844e-05)
(-0.059940088 0.059887876 9.2592527e-05)
(-0.070179063 0.060401103 0.00010198831)
(-0.080357558 0.059780151 0.00011032038)
(-0.090326438 0.05806824 0.0001174682)
(-0.099942004 0.055293652 0.00012312661)
(-0.10906297 0.051475638 0.00012684679)
(-0.11754863 0.046631923 0.00012808275)
(-0.12525808 0.040786865 0.00012624304)
(-0.13205041 0.033979528 0.00012074769)
(-0.1377858 0.026271117 0.00011108929)
(-0.14232744 0.017751397 9.6896417e-05)
(-0.14554442 0.0085438196 7.7997075e-05)
(-0.14731562 -0.0011908489 5.4477459e-05)
(-0.14753451 -0.01125262 2.6715366e-05)
(-0.14611534 -0.021402729 -4.5591038e-06)
(-0.14300043 -0.031366194 -3.8285546e-05)
(-0.13816818 -0.040837641 -7.3082336e-05)
(-0.13164189 -0.049490552 -0.00010730334)
(-0.12349833 -0.056990393 -0.00013913007)
(-0.11387523 -0.06301177 -0.00016669634)
(-0.10297649 -0.067259297 -0.00018823729)
(-0.091073479 -0.069491224 -0.00020224834)
(-0.078501353 -0.069544131 -0.00020763581)
(-0.065648943 -0.067356299 -0.00020383866)
(-0.052941971 -0.06298689 -0.00019090194)
(-0.040820032 -0.056627988 -0.00016948324)
(-0.029709655 -0.048607131 -0.00014077192)
(-0.019996213 -0.03937938 -0.0001063637)
(-0.011992163 -0.029509491 -6.8309657e-05)
(-0.0059060182 -0.019644347 -2.8917884e-05)
(-0.0018995926 -0.010479294 1.2391032e-05)
(-0.00021911098 -0.0027504897 5.4730092e-05)
(-0.00047276033 0.0079598444 -7.241623e-05)
(-0.0030053047 0.022246642 -1.873381e-05)
(-0.008175476 0.034640675 2.0343071e-05)
(-0.015139627 0.045066343 4.8423625e-05)
(-0.023425055 0.053560111 7.1338704e-05)
(-0.032718063 0.060216844 9.02093e-05)
(-0.042738947 0.065160454 0.00010611357)
(-0.053246883 0.068521165 0.00012010776)
(-0.064037832 0.070418815 0.00013289666)
(-0.074934182 0.070952855 0.00014485133)
(-0.085776245 0.070198298 0.00015605932)
(-0.096415753 0.068206556 0.00016635845)
(-0.10671073 0.065010037 0.00017537426)
(-0.11652165 0.060629307 0.00018256332)
(-0.12570885 0.055081745 0.00018726169)
(-0.134131 0.048390721 0.00018873878)
(-0.14164451 0.040594603 0.0001862572)
(-0.14810392 0.031755094 0.00017913835)
(-0.15336309 0.021964575 0.00016683258)
(-0.15727756 0.011352268 0.00014899066)
(-0.15970792 8.9028251e-05 0.0001255332)
(-0.16052481 -0.011609423 9.6721386e-05)
(-0.15961518 -0.02348167 6.3184458e-05)
(-0.15689032 -0.035221753 2.5964679e-05)
(-0.15229548 -0.046483974 -1.3496379e-05)
(-0.14582075 -0.056891634 -5.3399563e-05)
(-0.13751241 -0.066050478 -9.1672957e-05)
(-0.12748396 -0.073567377 -0.00012610071)
(-0.11592506 -0.07907421 -0.00015448983)
(-0.10310681 -0.082256184 -0.00017486133)
(-0.089381189 -0.082882775 -0.00018564461)
(-0.075173013 -0.080838388 -0.00018584991)
(-0.060963139 -0.076148965 -0.00017519318)
(-0.047263056 -0.06900033 -0.00015414601)
(-0.034583071 -0.059744582 -0.00012387759)
(-0.023397389 -0.048892476 -8.6129624e-05)
(-0.014103441 -0.037091875 -4.3280479e-05)
(-0.0069814287 -0.025092611 1.9049275e-06)
(-0.0022590033 -0.013702945 5.0052659e-05)
(-0.00026414531 -0.0037760397 9.7610318e-05)
(-0.00050355042 0.0095674311 -4.0570837e-05)
(-0.0031932733 0.026445161 1.9044403e-05)
(-0.0086753987 0.040892059 6.0400164e-05)
(-0.016048483 0.052912535 9.0165692e-05)
(-0.024807346 0.062615358 0.0001146696)
(-0.034618392 0.070159156 0.00013520819)
(-0.04518676 0.075721335 0.00015299947)
(-0.05626146 0.079474935 0.0001692066)
(-0.067632922 0.081572478 0.00018459297)
(-0.079121655 0.082137025 0.00019954649)
(-0.090568805 0.08125945 0.00021413706)
(-0.10182878 0.079000709 0.00022815459)
(-0.11276327 0.075397834 0.00024114885)
(-0.12323661 0.0704724 0.00025247406)
(-0.1331123 0.064240318 0.00026133792)
(-0.14225069 0.056722039 0.0002668561)
(-0.1505075 0.047952485 0.00026811372)
(-0.15773337 0.037990318 0.00026423433)
(-0.16377418 0.026926298 0.00025445575)
(-0.16847268 0.014890611 0.00023821052)
(-0.17167123 0.0020590508 0.0002152082)
(-0.17321651 -0.011342229 0.00018552501)
(-0.17296584 -0.025033735 0.00014964943)
(-0.17079561 -0.038682212 0.00010855267)
(-0.16661234 -0.051903574 6.3697242e-05)
(-0.16036542 -0.064270319 1.7015834e-05)
(-0.1520615 -0.075324536 -2.9159633e-05)
(-0.14177932 -0.08459745 -7.2224386e-05)
(-0.12968341 -0.091635979 -0.00010948154)
(-0.11603429 -0.096035887 -0.00013836679)
(-0.10119269 -0.097479832 -0.00015669547)
(-0.085615045 -0.095777036 -0.00016290111)
(-0.069838018 -0.090899771 -0.0001562308)
(-0.054451391 -0.08301088 -0.00013685789)
(-0.040061158 -0.072476709 -0.0001058629)
(-0.027246471 -0.059861682 -6.5119235e-05)
(-0.016507699 -0.045903591 -1.7378009e-05)
(-0.0082137687 -0.031469851 3.4049388e-05)
(-0.0026743186 -0.017501837 8.9815195e-05)
(-0.00031729514 -0.0049938553 0.0001435337)
(-0.0005286801 0.011264635 2.8136137e-06)
(-0.0033477358 0.030871071 6.8604289e-05)
(-0.0090880455 0.047474004 0.0001119023)
(-0.016801573 0.061164085 0.00014320129)
(-0.025956869 0.072128328 0.00016926758)
(-0.036204153 0.080594834 0.00019156456)
(-0.047236258 0.086799781 0.00021144126)
(-0.0587942 0.090963685 0.00023015808)
(-0.070664605 0.093275686 0.00024852976)
(-0.082667663 0.093885592 0.00026695608)
(-0.094646931 0.092902452 0.00028548575)
(-0.1064612 0.090398252 0.00030385793)
(-0.11797774 0.086415314 0.00032154351)
(-0.12906681 0.080976048 0.00033778967)
(-0.13959739 0.074093868 0.00035166771)
(-0.14943392 0.065784378 0.00036212655)
(-0.15843394 0.056076218 0.00036805401)
(-0.1664466 0.045021256 0.00036834746)
(-0.17331213 0.032703996 0.0003619944)
(-0.17886243 0.019250185 0.00034816161)
(-0.18292308 0.0048345497 0.00032629128)
(-0.18531729 -0.010312541 0.00029620279)
(-0.1858719 -0.025899767 0.00025817795)
(-0.18442609 -0.04157203 0.00021304555)
(-0.18084305 -0.056910806 0.00016222768)
(-0.17502457 -0.071439296 0.00010774806)
(-0.1669282 -0.084633919 5.2184623e-05)
(-0.1565862 -0.09594371 -1.4449007e-06)
(-0.14412454 -0.10481875 -4.9870162e-05)
(-0.12977941 -0.11074788 -8.9823941e-05)
(-0.11390794 -0.11330446 -0.0001183475)
(-0.09698932 -0.11219664 -0.00013311114)
(-0.079612793 -0.10731668 -0.00013270435)
(-0.062450256 -0.098781266 -0.00011683877)
(-0.046214656 -0.086954946 -8.6392313e-05)
(-0.031607727 -0.072449874 -4.3322831e-05)
(-0.019254142 -0.056099236 9.214451e-06)
(-0.009633135 -0.038903908 6.7266999e-05)
(-0.0031578289 -0.021961644 0.00013149456)
(-0.00038078509 -0.0064355914 0.00019252213)
(-0.00054759887 0.013033154 5.8404607e-05)
(-0.0034658551 0.035479336 0.000130621)
(-0.0094063896 0.054322915 0.00017550612)
(-0.017386383 0.06974522 0.00020818006)
(-0.026854416 0.082015815 0.00023577902)
(-0.037448126 0.09143667 0.00025992363)
(-0.04885074 0.098307059 0.00028208541)
(-0.060797281 0.10289904 0.00030361379)
(-0.073072129 0.10544199 0.00032537044)
(-0.085496536 0.10611553 0.00034776564)
(-0.097917886 0.10504927 0.00037082733)
(-0.11020094 0.10232792 0.00039424522)
(-0.12222034 0.097999962 0.00041741232)
(-0.13385443 0.092088726 0.00043946786)
(-0.14498006 0.084604318 0.00045934238)
(-0.15546849 0.075555766 0.00047580805)
(-0.16518205 0.064962726 0.00048753763)
(-0.17397166 0.052866552 0.00049317478)
(-0.18167521 0.03934075 0.00049141754)
(-0.18811706 0.02450089 0.000481115)
(-0.19310902 0.0085140179 0.00046137641)
(-0.19645319 -0.0083925423 0.00043169014)
(-0.19794721 -0.025923327 0.0003920413)
(-0.19739257 -0.043708816 0.00034302524)
(-0.19460641 -0.061302466 0.00028593617)
(-0.18943722 -0.07818251 0.00022281635)
(-0.18178445 -0.093760615 0.00015644581)
(-0.17162141 -0.10739964 9.0253627e-05)
(-0.15902003 -0.11844258 2.8136361e-05)
(-0.14417476 -0.12625396 -2.5820947e-05)
(-0.12742184 -0.1302732 -6.7709174e-05)
(-0.10924875 -0.13007703 -9.4210926e-05)
(-0.090288508 -0.12544451 -0.00010301268)
(-0.071294686 -0.11641489 -9.3134621e-05)
(-0.053096417 -0.10332678 -6.5074652e-05)
(-0.036536419 -0.086827827 -2.0779126e-05)
(-0.022388429 -0.067848886 3.6185659e-05)
(-0.011268757 -0.047540409 0.00010112979)
(-0.0037218424 -0.02718271 0.0001747006)
(-0.00045691181 -0.0081393792 0.00024439807)
(-0.00055984453 0.014853247 0.00012668241)
(-0.0035453356 0.040221736 0.00020557898)
(-0.0096248017 0.061370719 0.00025168253)
(-0.017792791 0.078574454 0.00028556615)
(-0.027484109 0.092187559 0.00031466072)
(-0.038327134 0.10258886 0.00034073267)
(-0.049997897 0.11014408 0.00036536788)
(-0.062227163 0.11518027 0.00038999852)
(-0.074798362 0.11797039 0.00041553198)
(-0.087534969 0.11872685 0.00044239148)
(-0.10028941 0.11760238 0.00047058915)
(-0.11293383 0.11469624 0.00049977123)
(-0.12535199 0.11006435 0.00052925852)
(-0.13743236 0.10373132 0.00055808615)
(-0.14906219 0.095703541 0.00058504406)
(-0.16012254 0.085982119 0.0006087221)
(-0.17048399 0.074575381 0.00062756433)
(-0.18000316 0.061510767 0.0006399365)
(-0.18851996 0.046846246 0.00064420993)
(-0.19585588 0.030681472 0.00063886363)
(-0.20181364 0.013168876 0.000622605)
(-0.20617866 -0.0054753251 0.00059450729)
(-0.20872301 -0.024960487 0.00055415771)
(-0.20921255 -0.044912106 0.00050180673)
(-0.20741808 -0.064864789 0.00043850517)
(-0.20313131 -0.084259582 0.00036620638)
(-0.19618597 -0.10244822 0.00028780908)
(-0.18648421 -0.11870736 0.0002071131)
(-0.17402705 -0.13226594 0.00012866214)
(-0.15894662 -0.14234843 5.7456468e-05)
(-0.14153579 -0.148235 -1.4638144e-06)
(-0.12226907 -0.14933657 -4.3537586e-05)
(-0.10180725 -0.14527861 -6.5243323e-05)
(-0.080978692 -0.13598174 -6.4600008e-05)
(-0.060733884 -0.12172365 -4.1463163e-05)
(-0.0420743 -0.10316585 2.3999211e-06)
(-0.025950468 -0.081333202 6.3046597e-05)
(-0.013148235 -0.057540513 0.00013495975)
(-0.0043785953 -0.033279391 0.00021875202)
(-0.00054808319 -0.010149839 0.00029869785)
(-0.00056512248 0.01670412 0.00020791785)
(-0.0035848201 0.045047772 0.00029375402)
(-0.0097399766 0.068546039 0.00034070005)
(-0.018014585 0.087565824 0.00037561939)
(-0.027835498 0.10254733 0.00040615641)
(-0.038824704 0.1139478 0.00043421062)
(-0.050653036 0.12220177 0.00046147518)
(-0.063048382 0.1276942 0.0004894614)
(-0.075794233 0.13074469 0.00051912476)
(-0.088717193 0.13160145 0.00055090843)
(-0.10167574 0.13044293 0.00058481839)
(-0.11455065 0.12738518 0.00062046846)
(-0.1272364 0.12249305 0.00065711812)
(-0.1396336 0.11579335 0.00069370754)
(-0.15164246 0.10728882 0.00072889163)
(-0.16315694 0.096971849 0.000761078)
(-0.1740597 0.084837692 0.00078847417)
(-0.18421756 0.070897059 0.0008091496)
(-0.1934777 0.055188364 0.00082111702)
(-0.20166464 0.037789987 0.00082243698)
(-0.20857834 0.018832889 0.00081134757)
(-0.21399406 -0.0014862639 0.00078641916)
(-0.21766438 -0.022891627 0.00074673217)
(-0.21932453 -0.045014984 0.00069206426)
(-0.21870188 -0.067384088 0.00062308164)
(-0.21553089 -0.089414432 0.00054150474)
(-0.20957465 -0.11040745 0.00045022111)
(-0.20065351 -0.12955887 0.00035330842)
(-0.18868074 -0.1459818 0.00025592776)
(-0.17370321 -0.1587489 0.00016405338)
(-0.15594308 -0.16695702 8.4021137e-05)
(-0.13583336 -0.1698145 2.1908989e-05)
(-0.11403764 -0.1667457 -1.7193477e-05)
(-0.091443272 -0.15750006 -2.9905186e-05)
(-0.069120455 -0.14224558 -1.506942e-05)
(-0.048244322 -0.12162254 2.5994146e-05)
(-0.029971793 -0.096736528 8.9069595e-05)
(-0.015296615 -0.06907754 0.00016774502)
(-0.0051401249 -0.040378973 0.00026257638)
(-0.00065685458 -0.012518065 0.00035456998)
(-0.00056338767 0.018564518 0.0003021557)
(-0.0035843162 0.049906055 0.00039520208)
(-0.0097519542 0.075775985 0.00044261549)
(-0.018051154 0.096630749 0.00047838416)
(-0.027905923 0.11299465 0.00051028097)
(-0.038934078 0.12540347 0.00054032525)
(-0.050802727 0.13436209 0.00057031239)
(-0.063237864 0.14031576 0.0006018331)
(-0.076023757 0.14363363 0.00063589814)
(-0.088990833 0.1446027 0.0006729826)
(-0.10200446 0.14342999 0.00071310119)
(-0.11495514 0.14025082 0.00075585155)
(-0.1277495 0.13514094 0.00080044804)
(-0.14030227 0.12813074 0.00084575055)
(-0.15252909 0.11921999 0.00089029046)
(-0.16434002 0.10839226 0.00093229956)
(-0.17563376 0.095628792 0.00096974819)