/*--------------------------------*- C++ -*----------------------------------*\
  =========                 |
  \\      /  F ield         | OpenFOAM: The Open Source CFD Toolbox
   \\    /   O peration     | Website:  https://openfoam.org
    \\  /    A nd           | Version:  7
     \\/     M anipulation  |
\*---------------------------------------------------------------------------*/
FoamFile
{
    version     2.0;
    format      ascii;
    class       volScalarField;
    location    "28";
    object      p;
}
// * * * * * * * * * * * * * * * * * * * * * * * * * * * * * * * * * * * * * //

dimensions      [0 2 -2 0 0 0 0];

internalField   nonuniform List<scalar> 
16000
(
8.7920915e-06
-0.00013146581
-0.000442952
-0.00084531069
-0.0012635209
-0.0016521909
-0.0019804475
-0.0022294507
-0.0023885634
-0.0024520803
-0.0024170606
-0.0022820472
-0.0020464703
-0.0017105736
-0.0012757142
-0.00074490111
-0.00012344588
0.00058038397
0.0013548111
0.0021841823
0.0030488705
0.0039255165
0.0047876379
0.0056066439
0.0063532097
0.0069989556
0.0075183255
0.0078905252
0.0081013576
0.0081447841
0.0080240463
0.0077522478
0.0073523794
0.0068568716
0.0063065777
0.0057490281
0.0052392835
0.0048336361
0.0045937702
0.0045550129
0.00015342939
8.5247542e-06
-0.0002415581
-0.00055043669
-0.00087263088
-0.0011738312
-0.0014297918
-0.0016243324
-0.001747093
-0.0017916318
-0.0017540079
-0.0016318571
-0.0014239251
-0.0011299806
-0.000751015
-0.00028963317
0.00024945613
0.00085894208
0.0015284894
0.0022444631
0.002989862
0.0037446592
0.0044861494
0.0051899784
0.0058312936
0.006386196
0.0068333606
0.0071556877
0.0073418423
0.0073875399
0.0072964457
0.0070805803
0.0067601734
0.0063629925
0.0059232298
0.0054798668
0.0050740619
0.0047492713
0.0045507092
0.0045153436
0.00047209457
0.00025421169
-1.6232029e-06
-0.00028066819
-0.00056091062
-0.00081784751
-0.0010336898
-0.0011963786
-0.0012977074
-0.0013321569
-0.0012960085
-0.0011867294
-0.0010026785
-0.00074310128
-0.00040834462
-2.2538219e-07
0.0004775199
0.0010187757
0.00161465
0.0022532108
0.0029194534
0.0035954236
0.004260761
0.0048934696
0.0054710097
0.0059716485
0.0063759761
0.0066684595
0.0068388805
0.0068835065
0.0068058647
0.0066170301
0.0063353639
0.0059856975
0.0055980292
0.0052057886
0.0048435409
0.0045455212
0.0043480909
0.004280839
0.00089371209
0.00056245364
0.00026176216
-2.4021214e-05
-0.00029462201
-0.00053376982
-0.00072990045
-0.00087579904
-0.00096639325
-0.00099798789
-0.00096777044
-0.00087345445
-0.00071316756
-0.00048557084
-0.0001901562
0.00017233367
0.00059941947
0.0010863925
0.0016258782
0.0022075287
0.0028179135
0.003440583
0.0040565748
0.0046451018
0.0051846038
0.0056540633
0.0060345065
0.0063105668
0.0064719458
0.0065145929
0.0064414474
0.0062626453
0.005995153
0.0056618365
0.0052900053
0.0049095714
0.004551188
0.0042447418
0.0040167776
0.0038811974
0.0013445115
0.00088484414
0.00052169063
0.00021137701
-6.6330398e-05
-0.00030238753
-0.00049111927
-0.0006302637
-0.00071816343
-0.00075325252
-0.00073386878
-0.00065811144
-0.00052389739
-0.00032921566
-7.2532673e-05
0.00024669877
0.00062747498
0.0010666735
0.0015585384
0.0020942845
0.0026618875
0.0032461161
0.0038288913
0.0043899686
0.0049079659
0.0053616867
0.0057316549
0.0060017388
0.0061606977
0.0062034542
0.0061318974
0.005955078
0.0056887551
0.0053543376
0.0049772771
0.0045851478
0.0042062412
0.0038677039
0.0035850188
0.0033613875
0.0017713591
0.0011782318
0.00074357089
0.00039752392
0.00010096297
-0.00014332642
-0.00033503624
-0.00047661944
-0.00056976642
-0.00061505209
-0.00061198668
-0.00055904535
-0.00045387295
-0.00029367045
-7.5717126e-05
0.00020201149
0.00054017281
0.00093738256
0.0013895918
0.0018895787
0.0024266249
0.0029864572
0.0035514965
0.0041015025
0.0046145879
0.005068582
0.0054426467
0.0057190106
0.0058846464
0.0059326933
0.0058634046
0.0056844367
0.0054103927
0.0050616563
0.0046626041
0.004239591
0.0038200688
0.0034305607
0.0030780104
0.0027507038
0.0021290518
0.0014040752
0.00089448975
0.00050626039
0.00018299096
-7.7987559e-05
-0.00028119078
-0.00043339967
-0.00053939732
-0.00060172788
-0.00062094115
-0.00059576308
-0.00052343077
-0.00040020271
-0.0002219975
1.4872997e-05
0.00031291312
0.00067264203
0.0010918385
0.0015648978
0.002082375
0.0026308122
0.0031928691
0.0037479078
0.0042729799
0.0047442339
0.0051386451
0.0054359144
0.0056203389
0.0056824391
0.0056201157
0.0054391296
0.0051527656
0.0047806552
0.0043468148
0.0038774779
0.0034007119
0.0029442135
0.002507986
0.0020664391
0.0023790261
0.0015276219
0.00094354924
0.00051037533
0.00015579055
-0.00012776437
-0.00034915779
-0.0005190755
-0.00064505002
-0.00073131741
-0.00077923449
-0.00078757178
-0.00075296401
-0.00067053392
-0.00053464179
-0.00033973125
-8.124112e-05
0.00024345918
0.00063416713
0.0010870467
0.0015940138
0.0021424292
0.0027150785
0.0032906815
0.00384482
0.004351367
0.0047843288
0.0051199476
0.0053388419
0.0054279293
0.0053818753
0.0052038467
0.0049054099
0.004505475
0.0040282425
0.0035008535
0.0029534104
0.0024164896
0.0018850824
0.0013225618
0.0024874742
0.0015171799
0.00086144924
0.00038298869
-5.3148842e-06
-0.00031553783
-0.00056051849
-0.00075444341
-0.00090723045
-0.0010244891
-0.001108104
-0.0011566427
-0.0011659085
-0.0011296665
-0.0010404931
-0.00089072769
-0.00067349997
-0.00038379813
-1.9523872e-05
0.00041753216
0.00092088759
0.0014789017
0.0020745445
0.0026858116
0.0032865484
0.0038478659
0.0043400676
0.004734959
0.0050083204
0.0051422419
0.0051270027
0.0049622224
0.0046570987
0.0042295945
0.0037044067
0.0031104686
0.0024812982
0.0018520441
0.0012141177
0.00052063028
0.002423924
0.0013436686
0.00062062546
9.8055684e-05
-0.00032497984
-0.00066482703
-0.00093798772
-0.0011617858
-0.0013481786
-0.0015038333
-0.0016308782
-0.0017274211
-0.001788196
-0.0018053752
-0.0017695042
-0.0016705455
-0.0014990128
-0.001247165
-0.00091021464
-0.00048749175
1.6537397e-05
0.00059164863
0.0012212415
0.0018827105
0.0025480614
0.0031852686
0.00376025
0.0042393642
0.0045922413
0.0047946365
0.0048309182
0.0046958168
0.004395172
0.0039454819
0.003371994
0.0027061201
0.0019861
0.0012533633
0.00049686307
-0.00034027911
0.0021605993
0.00098045345
0.00019547917
-0.00036907495
-0.00082702107
-0.0011987977
-0.0015043198
-0.00176373
-0.0019907172
-0.002192722
-0.0023718558
-0.0025255285
-0.0026471793
-0.002727157
-0.0027537205
-0.0027141534
-0.0025959892
-0.0023883226
-0.0020831701
-0.00167683
-0.0011711492
-0.00057424479
9.8175007e-05
0.00082329921
0.0015714199
0.0023071592
0.0029914392
0.0035841376
0.0040472842
0.0043485077
0.0044643071
0.0043826591
0.0041045452
0.0036440654
0.0030267564
0.0022869662
0.0014688652
0.00062189927
-0.00026659931
-0.00126377
0.0016723045
0.00040341702
-0.0004373421
-0.0010411781
-0.0015337612
-0.0019394719
-0.0022814236
-0.0025822992
-0.002857259
-0.0031142815
-0.0033552478
-0.0035766721
-0.0037705051
-0.0039250642
-0.0040260732
-0.0040578213
-0.0040044531
-0.0038513818
-0.0035867952
-0.0032031882
-0.0026988501
-0.0020793892
-0.0013583272
-0.00055808083
0.00029034034
0.0011482481
0.0019711105
0.0027113092
0.0033216976
0.003759701
0.0039915281
0.0039959137
0.0037667884
0.0033142941
0.0026635296
0.0018519478
0.00093075401
-4.0796285e-05
-0.0010763981
-0.0022542389
0.00093663982
-0.00040877651
-0.0012985702
-0.0019386403
-0.0024653781
-0.0029069507
-0.0032894729
-0.0036379259
-0.0039687309
-0.0042902302
-0.0046039241
-0.0049052946
-0.0051846626
-0.0054281466
-0.0056187132
-0.0057373483
-0.0057643787
-0.0056809577
-0.0054707007
-0.0051214134
-0.0046268567
-0.0039886689
-0.0032173392
-0.0023337413
-0.0013693266
-0.00036566537
0.00062709705
0.001552972
0.0023540004
0.0029750527
0.0033691327
0.0035025407
0.003359107
0.0029425851
0.0022761972
0.0014002247
0.00037387236
-0.00073189824
-0.0019313744
-0.0033149975
-6.5572201e-05
-0.0014742845
-0.002405868
-0.0030789128
-0.0036392375
-0.0041186156
-0.0045459753
-0.0049483856
-0.0053433733
-0.0057395373
-0.0061379233
-0.0065329212
-0.0069131542
-0.0072624369
-0.0075608052
-0.0077856633
-0.0079130987
-0.0079194008
-0.0077827964
-0.0074853725
-0.0070151433
-0.006368234
-0.0055507008
-0.0045803511
-0.0034877505
-0.0023164148
-0.0011217883
3.1237105e-05
0.0010723627
0.0019313669
0.0025446384
0.002862065
0.0028533078
0.0025121802
0.0018575674
0.00093159113
-0.00019785022
-0.0014460706
-0.0028275702
-0.0044465452
-0.0013497491
-0.0028076228
-0.0037733535
-0.0044759633
-0.0050692364
-0.0055883384
-0.0060648284
-0.0065276873
-0.0069954512
-0.007476944
-0.0079727675
-0.0084762496
-0.0089743383
-0.0094485253
-0.0098758171
-0.010229818
-0.010481996
-0.01060319
-0.010565404
-0.010343887
-0.009919487
-0.0092812133
-0.008428754
-0.0073749092
-0.0061474921
-0.0047904006
-0.0033634107
-0.0019402664
-0.00060475422
0.00055531093
0.0014559037
0.0020257005
0.0022149429
0.0020025535
0.0013992387
0.00044689368
-0.00077771936
-0.0021741183
-0.0037566035
-0.0056447777
-0.0029269841
-0.0044192063
-0.0054111507
-0.0061397711
-0.0067651963
-0.0073257351
-0.0078554041
-0.0083849629
-0.0089339285
-0.0095114031
-0.010117648
-0.010745059
-0.011379032
-0.011998823
-0.012578411
-0.013087478
-0.013492574
-0.013758566
-0.01385044
-0.01373549
-0.013385918
-0.012781796
-0.011914259
-0.010788701
-0.0094277168
-0.0078732908
-0.006187735
-0.0044527506
-0.0027660448
-0.0012351324
3.163699e-05
0.00093621661
0.0014028943
0.0013890615
0.00089159529
-5.1455767e-05
-0.0013552122
-0.0029014621
-0.0047038316
-0.0068989831
-0.0048035336
-0.0063149642
-0.0073250315
-0.0080759221
-0.0087323583
-0.0093355145
-0.0099217134
-0.010523417
-0.011161177
-0.011844522
-0.012573581
-0.013340051
-0.014128013
-0.014914682
-0.015671137
-0.016363138
-0.016952144
-0.017396652
-0.017653941
-0.017682314
-0.017443887
-0.016907914
-0.016054623
-0.01487924
-0.0133961
-0.011642194
-0.009679594
-0.0075959594
-0.0055022589
-0.003526954
-0.0018062718
-0.00047087723
0.0003698181
0.00064311607
0.00032412525
-0.00055873117
-0.0019146814
-0.0036063422
-0.0056461977
-0.0081894913
-0.0069804321
-0.0084960999
-0.0095162165
-0.010285369
-0.010971042
-0.011616984
-0.012261717
-0.012939411
-0.013671806
-0.01446912
-0.015331665
-0.016250792
-0.017209609
-0.018183606
-0.01914121
-0.020044403
-0.020849542
-0.021508523
-0.021970413
-0.022183667
-0.022099028
-0.021673154
-0.020872973
-0.019680626
-0.018098703
-0.016155383
-0.013908671
-0.011448864
-0.0088980577
-0.0064055059
-0.0041378716
-0.0022641213
-0.0009359676
-0.00026670513
-0.00031366608
-0.0010667185
-0.0024336802
-0.0042576201
-0.0065496305
-0.0094848338
-0.0094533091
-0.01095907
-0.011981405
-0.012764425
-0.013476534
-0.014163779
-0.014866854
-0.01562176
-0.016451716
-0.017368017
-0.018371607
-0.019453945
-0.020597626
-0.021776838
-0.022957721
-0.024098762
-0.025151373
-0.026060827
-0.026767714
-0.027210052
-0.027326207
-0.027058702
-0.026358994
-0.025193263
-0.023548671
-0.021440237
-0.01891711
-0.016067487
-0.013020667
-0.0099445794
-0.0070371151
-0.0045101587
-0.0025664617
-0.0013720546
-0.0010303643
-0.0015618711
-0.0028807311
-0.0048120263
-0.007365853
-0.010738262
-0.012212478
-0.013695853
-0.014713102
-0.015505058
-0.016239278
-0.016963883
-0.017721851
-0.01855132
-0.019477455
-0.02051318
-0.021660648
-0.022912003
-0.024249876
-0.025647664
-0.027069687
-0.028471332
-0.029799377
-0.030992661
-0.031983298
-0.032698613
-0.033063981
-0.033006653
-0.032460793
-0.031374313
-0.029715194
-0.027480785
-0.024705928
-0.021470707
-0.017905789
-0.014193238
-0.01056039
-0.0072645158
-0.0045671696
-0.002700091
-0.0018292909
-0.002022473
-0.0032123303
-0.0052106907
-0.0080284421
-0.011883472
-0.015243363
-0.016694574
-0.017700319
-0.018495545
-0.019245397
-0.019999973
-0.020804864
-0.02170092
-0.022715966
-0.023865312
-0.025153049
-0.026572691
-0.028107524
-0.029730726
-0.031405311
-0.033084043
-0.034709483
-0.036214394
-0.037522673
-0.038551043
-0.039211703
-0.039416043
-0.039079671
-0.038130821
-0.036514709
-0.034206854
-0.031222177
-0.027625772
-0.023542108
-0.019160248
-0.014731932
-0.010558979
-0.0069670603
-0.0042660649
-0.0027031602
-0.0024144237
-0.0033689338
-0.0053747753
-0.0084479879
-0.012829389
-0.018527318
-0.019940576
-0.020929704
-0.021721536
-0.022477607
-0.023250116
-0.024087957
-0.025035651
-0.026124746
-0.027373953
-0.02879021
-0.030369175
-0.032095454
-0.033942577
-0.035872768
-0.037836637
-0.039772999
-0.041608997
-0.04326076
-0.044634802
-0.045630412
-0.046143339
-0.046070964
-0.045317526
-0.043806452
-0.041487207
-0.038349395
-0.034436034
-0.029856691
-0.024797938
-0.019527347
-0.014386129
-0.0097652987
-0.0060628718
-0.0036262892
-0.0026852449
-0.0032696471
-0.005200012
-0.0085061902
-0.013453894
-0.022042906
-0.023417999
-0.024387194
-0.025167586
-0.025916513
-0.026688804
-0.02753789
-0.028513493
-0.029652409
-0.030978101
-0.032501455
-0.034221134
-0.036123718
-0.038183597
-0.040362626
-0.042609659
-0.044860168
-0.047036141
-0.049046468
-0.050788058
-0.052147919
-0.053006513
-0.053242573
-0.052739236
-0.051394123
-0.049128943
-0.045904019
-0.041733879
-0.036704274
-0.030988266
-0.024857466
-0.018682539
-0.012915484
-0.0080476752
-0.0045441081
-0.0027559663
-0.0028053364
-0.0045499367
-0.0080487256
-0.013596353
-0.025767715
-0.027112
-0.028060269
-0.028819183
-0.029542284
-0.030288253
-0.031117131
-0.032086176
-0.033239572
-0.034607286
-0.036205465
-0.038036679
-0.040090064
-0.042341232
-0.044751901
-0.047269372
-0.049826014
-0.052338997
-0.054710464
-0.056828376
-0.058568291
-0.059796339
-0.060373623
-0.060162312
-0.059035131
-0.056884844
-0.05363995
-0.04928156
-0.043863635
-0.037534443
-0.030555716
-0.023313192
-0.016309079
-0.010126399
-0.0053601033
-0.0025107153
-0.001829925
-0.0032476023
-0.0068766837
-0.013048838
-0.029680846
-0.031011789
-0.031940952
-0.032665319
-0.03333666
-0.034019885
-0.034784971
-0.035700152
-0.036819936
-0.038183
-0.03981224
-0.041715011
-0.043883418
-0.046294399
-0.048909474
-0.051674277
-0.054518026
-0.057353165
-0.060075383
-0.062564237
-0.064684664
-0.066289567
-0.067223802
-0.067329851
-0.06645658
-0.064468673
-0.061262038
-0.056781561
-0.051043478
-0.044161272
-0.036372472
-0.028060455
-0.019760711
-0.012137787
-0.0059209429
-0.0017841106
-0.00014970951
-0.0010655336
-0.0047363058
-0.011545834
-0.033766341
-0.035114809
-0.036029776
-0.036701684
-0.037285225
-0.037855819
-0.038498538
-0.039297506
-0.040321422
-0.041620336
-0.043225467
-0.045149668
-0.047388118
-0.049918785
-0.052702507
-0.055682716
-0.058785025
-0.061916874
-0.06496747
-0.067808242
-0.070294131
-0.072265835
-0.073553435
-0.073981689
-0.073376381
-0.071576943
-0.068447546
-0.063896367
-0.057898795
-0.050526266
-0.041979449
-0.032621166
-0.022998752
-0.013839668
-0.0060013157
-0.00034701706
0.0024893388
0.0022863646
-0.0013065946
-0.0087520596
-0.038018053
-0.039432629
-0.040341112
-0.040934595
-0.04137987
-0.041770206
-0.042213528
-0.042816612
-0.043667209
-0.044829732
-0.046345172
-0.048232207
-0.050488659
-0.053092678
-0.056003367
-0.059160895
-0.062486324
-0.065881356
-0.069228272
-0.072390252
-0.075212526
-0.077524292
-0.07914192
-0.079873681
-0.0795261
-0.077914055
-0.074872739
-0.070275396
-0.064056439
-0.05624165
-0.046985735
-0.036614713
-0.025664721
-0.01490077
-0.0052908735
0.0021082198
0.0064160976
0.0071753399
0.0038159628
-0.0042476197
-0.042446979
-0.043999552
-0.044910479
-0.045385847
-0.045621334
-0.04574018
-0.045884426
-0.04619239
-0.046776588
-0.047718755
-0.049070592
-0.050856174
-0.053074737
-0.055702983
-0.058696543
-0.061990642
-0.065500302
-0.069120263
-0.072724995
-0.076168848
-0.079287188
-0.08189796
-0.083804542
-0.084800001
-0.084673089
-0.083216907
-0.080240489
-0.075585149
-0.069146638
-0.060905188
-0.05096506
-0.039603594
-0.027324551
-0.014901799
-0.0033865161
0.0059811322
0.012050231
0.014063396
0.011136947
0.0024912237
-0.047093043
-0.048885754
-0.049804886
-0.050098816
-0.050021737
-0.049746206
-0.049464054
-0.049356106
-0.049565652
-0.050193982
-0.051303272
-0.052921323
-0.055046391
-0.0576511
-0.060685073
-0.064076241
-0.067731552
-0.071537064
-0.07535845
-0.079039709
-0.082406051
-0.085263862
-0.087403633
-0.088603834
-0.088636618
-0.087274994
-0.08430453
-0.079537931
-0.072835892
-0.064135956
-0.053491897
-0.041126083
-0.027493605
-0.013349398
0.00020590071
0.011772108
0.019918609
0.023528941
0.021290377
0.01211933
-0.052045243
-0.054218077
-0.05513781
-0.055146177
-0.054606934
-0.053771603
-0.052902349
-0.052234763
-0.051947962
-0.052163091
-0.052950458
-0.054338005
-0.056319044
-0.058858275
-0.061896087
-0.065349807
-0.069115966
-0.073069719
-0.077067834
-0.080940104
-0.084502149
-0.087547917
-0.089854484
-0.091185571
-0.091297737
-0.089943574
-0.086887171
-0.081915303
-0.074856949
-0.065610782
-0.054182861
-0.040739251
-0.025676233
-0.0097064428
0.0060553379
0.02008231
0.030670136
0.036293789
0.035076357
0.025465722
-0.057477916
-0.060213923
-0.061091159
-0.06063956
-0.059418299
-0.057800863
-0.056144243
-0.054750144
-0.053835312
-0.05353727
-0.05392873
-0.055031534
-0.056828137
-0.059270017
-0.062285038
-0.065774864
-0.069624032
-0.073694832
-0.077829488
-0.081848626
-0.085553343
-0.088724624
-0.091125645
-0.09250485
-0.092600818
-0.091148398
-0.087889211
-0.082584493
-0.075033366
-0.065098285
-0.052740385
-0.038070342
-0.021420076
-0.003441998
0.014768581
0.031597419
0.045084653
0.053256538
0.053516907
0.043607676
-0.063718749
-0.067237502
-0.067947122
-0.066740783
-0.064512774
-0.061815843
-0.059126102
-0.056817193
-0.055138291
-0.054233498
-0.054167327
-0.054945916
-0.05653289
-0.058860365
-0.061836245
-0.065346749
-0.069259092
-0.073420777
-0.07765961
-0.0817831
-0.085578352
-0.088812357
-0.091233422
-0.092573752
-0.092553703
-0.09088804
-0.087295054
-0.08150942
-0.073299237
-0.062489952
-0.048997506
-0.032875707
-0.014386291
0.0058949724
0.026924553
0.047044965
0.064067689
0.075531381
0.077939587
0.068005475
-0.071380927
-0.075893631
-0.076132509
-0.073672371
-0.069958269
-0.065787438
-0.06176886
-0.058340123
-0.0557651
-0.054175175
-0.053609634
-0.054045527
-0.055416728
-0.057628816
-0.060565318
-0.064091595
-0.068055983
-0.072289366
-0.076604271
-0.08079374
-0.084630634
-0.087867423
-0.090236973
-0.091454553
-0.091221479
-0.089230721
-0.085175042
-0.078759663
-0.069717433
-0.057831383
-0.042965314
-0.025107879
-0.0044389119
0.01857035
0.042965056
0.067105241
0.088611007
0.1044835
0.11010507
0.10076095
-0.08163155
-0.087181773
-0.086270303
-0.081716355
-0.075814673
-0.069654831
-0.063961246
-0.059200537
-0.05561361
-0.053286777
-0.05220943
-0.05231092
-0.053484195
-0.055599467
-0.05851106
-0.062060042
-0.066074293
-0.070367128
-0.074735441
-0.078957815
-0.082793077
-0.085979436
-0.088234552
-0.089256815
-0.088728217
-0.0863189
-0.081693716
-0.074524712
-0.064502852
-0.051358699
-0.034889401
-0.014997555
0.0082489389
0.034515617
0.063013758
0.092226273
0.11966026
0.14172286
0.15240481
0.14512502
-0.096759908
-0.10273822
-0.099198
-0.09115532
-0.08206258
-0.073261538
-0.065507893
-0.059217077
-0.054540261
-0.051469467
-0.04991026
-0.049723054
-0.050745886
-0.052806048
-0.055724544
-0.059316328
-0.063388395
-0.067736855
-0.072143838
-0.076374627
-0.080175347
-0.083271355
-0.08536653
-0.0861437
-0.085266614
-0.08238281
-0.07712829
-0.069138577
-0.058055651
-0.043544766
-0.025315217
-0.0031507478
0.023041565
0.05314199
0.086634053
0.1222837
0.15778155
0.18895237
0.20809859
0.20632842
-0.12133947
-0.12518711
-0.11587288
-0.10208099
-0.088417115
-0.076198092
-0.066005556
-0.058052029
-0.052291119
-0.048550046
-0.0466082
-0.04623283
-0.047194606
-0.049272524
-0.052252839
-0.055925136
-0.060077359
-0.064490771
-0.068935321
-0.073165681
-0.076918052
-0.079907803
-0.081827972
-0.082348775
-0.081118714
-0.07776442
-0.071895836
-0.063110289
-0.050996111
-0.035141705
-0.015145298
0.0093696726
0.038726113
0.073130383
0.11252048
0.1562633
0.20263158
0.24752385
0.28130166
0.29235726
-0.16445691
-0.15843265
-0.13714815
-0.11415723
-0.094107091
-0.077630993
-0.064737672
-0.05516159
-0.048489716
-0.04429138
-0.042172694
-0.041787273
-0.04283232
-0.045039568
-0.048164664
-0.051976989
-0.056250718
-0.060757269
-0.065259088
-0.069504637
-0.073224475
-0.076128271
-0.077902712
-0.078210469
-0.076690461
-0.072947726
-0.066577637
-0.057140549
-0.044172257
-0.027180248
-0.0056359165
0.021035435
0.053464772
0.092332276
0.13829693
0.19182757
0.25266869
0.3175121
0.37626925
0.41537143
-0.24629378
-0.20631783
-0.16213013
-0.12552877
-0.097143548
-0.07587807
-0.060487456
-0.049752251
-0.04266016
-0.038436124
-0.03649026
-0.036365304
-0.037697272
-0.040185079
-0.043567179
-0.047604159
-0.052065852
-0.056721644
-0.061333091
-0.065648243
-0.069397276
-0.072289215
-0.074009588
-0.074219812
-0.072558485
-0.068605512
-0.061961617
-0.0521558
-0.038682811
-0.020981004
0.0015963683
0.029825949
0.064687137
0.10746568
0.15987192
0.22417871
0.30290637
0.3955331
0.49624433
0.60321322
-0.42543855
-0.26572993
-0.17722115
-0.12463577
-0.089116405
-0.065102542
-0.049323754
-0.039185233
-0.032983626
-0.029674017
-0.028570656
-0.0291867
-0.03115677
-0.034189843
-0.038037554
-0.042473271
-0.047278108
-0.052231135
-0.057102191
-0.061646495
-0.065600538
-0.068678918
-0.070571601
-0.070940488
-0.069407781
-0.065629659
-0.059132214
-0.049452668
-0.036074587
-0.018403013
0.0042720803
0.032848046
0.068543523
0.11314298
0.16943758
0.24201815
0.33806704
0.4659168
0.64305562
0.92086319
-0.79331251
-0.32444173
-0.14899699
-0.087724952
-0.055345361
-0.035999063
-0.025091101
-0.019200554
-0.016355084
-0.01561866
-0.016493893
-0.018653705
-0.02185282
-0.025888183
-0.030575194
-0.035733586
-0.041178801
-0.046716047
-0.052135754
-0.057209941
-0.061689265
-0.065300662
-0.067745669
-0.068700704
-0.067824304
-0.064707746
-0.058941565
-0.050072221
-0.037593153
-0.020926909
0.00061095584
0.027881666
0.062059377
0.10491399
0.15945196
0.23152863
0.3338521
0.49409286
0.79001702
1.383779
1.2381139e-05
-0.00013048108
-0.00044267286
-0.00084523121
-0.001263635
-0.0016524357
-0.0019807782
-0.0022298419
-0.0023889975
-0.0024525429
-0.0024175396
-0.0022825317
-0.0020469499
-0.0017110377
-0.0012761522
-0.00074530162
-0.00012379691
0.00058009484
0.0013545955
0.0021840501
0.0030488297
0.0039255732
0.0047877964
0.0056069046
0.0063535671
0.006999397
0.0075188328
0.0078910782
0.0081019365
0.0081453663
0.0080246027
0.0077527436
0.0073527826
0.0068571621
0.0063067529
0.0057491052
0.0052392429
0.0048334382
0.0045934013
0.0045548682
0.00015431791
9.0494896e-06
-0.00024110367
-0.00054996042
-0.00087211795
-0.0011732673
-0.00142918
-0.0016236861
-0.0017464278
-0.0017909628
-0.0017533494
-0.0016312228
-0.001423328
-0.0011294332
-0.00075052975
-0.00028922278
0.00024977919
0.00085916686
0.0015286068
0.0022444661
0.0029897455
0.0037444185
0.0044857854
0.0051894979
0.00583071
0.006385527
0.0068326247
0.0071549034
0.007341032
0.0073867341
0.0072956802
0.0070798857
0.0067595662
0.0063624782
0.0059228166
0.0054795756
0.0050739241
0.0047492076
0.0045505984
0.00451544
0.00047258472
0.00025448892
-1.3027173e-06
-0.00028039942
-0.00056071257
-0.00081768845
-0.0010335559
-0.0011962654
-0.0012976118
-0.0013320768
-0.0012959433
-0.0011866788
-0.001002643
-0.00074308074
-0.00040833869
-2.3372303e-07
0.00047749729
0.001018739
0.0016146004
0.0022531506
0.0029193854
0.0035953497
0.0042606819
0.0048933851
0.0054709217
0.0059715614
0.0063758946
0.0066683838
0.0068388051
0.006883425
0.0068057778
0.0066169461
0.0063352881
0.0059856211
0.0055979345
0.0052056703
0.0048434227
0.0045454033
0.0043479298
0.0042808163
0.00089420617
0.00056252084
0.00026201641
-2.3790579e-05
-0.00029448324
-0.00053367854
-0.00072984067
-0.00087576725
-0.00096638451
-0.00099799787
-0.00096779599
-0.00087349323
-0.00071321778
-0.00048563082
-0.00019022377
0.0001722613
0.00059934501
0.0010863182
0.001625806
0.002207461
0.0028178534
0.0034405352
0.0040565423
0.0046450845
0.0051845991
0.0056540691
0.0060345242
0.0063105987
0.0064719889
0.0065146356
0.0064414753
0.0062626526
0.0059951459
0.0056618206
0.0052899723
0.004909502
0.0045510725
0.0042445984
0.004016631
0.0038810691
0.0013450579
0.0008847017
0.00052191224
0.00021163609
-6.6154051e-05
-0.00030223706
-0.0004909814
-0.00063014251
-0.00071805853
-0.00075316269
-0.0007337936
-0.00065805071
-0.00052385119
-0.00032918452
-7.2517089e-05
0.00024669906
0.00062746103
0.0010666465
0.0015584989
0.0020942324
0.0026618232
0.0032460424
0.0038288127
0.004389889
0.0049078861
0.005361604
0.0057315676
0.0060016507
0.0061606158
0.0062033812
0.0061318251
0.0059549935
0.0056886549
0.0053542337
0.004977183
0.0045850552
0.0042061167
0.003867577
0.0035850012
0.0033611746
0.0017719961
0.0011779009
0.00074375774
0.00039778524
0.00010113023
-0.00014317898
-0.00033489351
-0.00047648967
-0.00056965084
-0.00061495019
-0.00061189879
-0.00055897175
-0.00045381371
-0.00029362597
-7.5688335e-05
0.00020202372
0.0005401685
0.00093736287
0.0013895583
0.0018895321
0.0024265651
0.002986384
0.0035514122
0.0041014123
0.0046144972
0.005068492
0.0054425537
0.0057189109
0.0058845431
0.0059325955
0.0058633172
0.0056843518
0.0054102955
0.0050615435
0.0046624917
0.004239485
0.0038199323
0.003430442
0.0030780789
0.0027503965
0.0021297904
0.0014035777
0.00089464984
0.00050652262
0.00018314194
-7.785501e-05
-0.00028105828
-0.00043327825
-0.00053928897
-0.00060163206
-0.00062085842
-0.00059569414
-0.00052337578
-0.00040016151
-0.00022197034
1.4885225e-05
0.00031290946
0.00067262252
0.0010918047
0.0015648521
0.0020823191
0.0026307457
0.0031927913
0.0037478205
0.0042728887
0.0047441454
0.0051385612
0.0054358297
0.0056202471
0.0056823416
0.0056200221
0.0054390459
0.0051526832
0.00478056
0.0043467089
0.0038773648
0.0034005548
0.0029440965
0.0025081531
0.0020660571
0.002379867
0.0015269758
0.00094369177
0.00051064579
0.00015593374
-0.00012763799
-0.00034902654
-0.00051895296
-0.00064493898
-0.0007312174
-0.0007791462
-0.00078749644
-0.00075290256
-0.00067048661
-0.00053460846
-0.00033971208
-8.1237063e-05
0.00024344683
0.00063413804
0.0010870026
0.0015939581
0.0021423642
0.0027150042
0.0032905965
0.0038447251
0.0043512681
0.0047842339
0.0051198596
0.0053387549
0.0054278348
0.0053817733
0.0052037471
0.0049053184
0.0045053847
0.0040281472
0.0035007411
0.0029532317
0.0024163709
0.0018853521
0.0013220906
0.0024884152
0.0015164008
0.00086158004
0.00038327078
-5.1753507e-06
-0.000315414
-0.00056038548
-0.00075431698
-0.00090711417
-0.0010243826
-0.001108008
-0.0011565583
-0.0011658373
-0.0011296097
-0.0010404512
-0.00089070044
-0.00067348741
-0.00038380119
-1.9544238e-05
0.00041749378
0.00092083329
0.001478835
0.0020744693
0.0026857285
0.0032864552
0.0038477624
0.0043399595
0.0047348556
0.0050082257
0.0051421497
0.0051269036
0.0049621155
0.0046569927
0.0042294961
0.0037043168
0.0031103627
0.0024811029
0.0018519224
0.0012144895
0.00052006535
0.0024249604
0.0013427709
0.0006207489
9.8351138e-05
-0.00032484165
-0.000664704
-0.0009378519
-0.0011616547
-0.0013480565
-0.0015037201
-0.0016307746
-0.001727328
-0.0017881148
-0.0018053075
-0.0017694518
-0.0016705091
-0.0014989921
-0.0012471596
-0.00091022542
-0.00048752024
1.6490718e-05
0.00059158347
0.0012211633
0.0018826247
0.0025479694
0.0031851679
0.0037601392
0.0042392487
0.004592131
0.0047945361
0.0048308216
0.0046957141
0.0043950615
0.0039453737
0.0033719018
0.0027060184
0.001985891
0.0012532412
0.00049734367
-0.00034094439
0.0021617248
0.00097945119
0.00019559901
-0.00036876462
-0.00082688171
-0.0011986733
-0.0015041797
-0.001763593
-0.0019905878
-0.0021926005
-0.0023717434
-0.0025254262
-0.0026470878
-0.0027270777
-0.0027536554
-0.0027141046
-0.0025959577
-0.0023883083
-0.0020831721
-0.001676848
-0.0011711832
-0.00057430138
9.8098741e-05
0.00082320934
0.001571323
0.0023070579
0.0029913309
0.0035840203
0.0040471629
0.0043483924
0.0044642023
0.0043825584
0.0041044384
0.0036439546
0.0030266605
0.0022868634
0.0014686388
0.00062177848
-0.00026599691
-0.0012645473
0.0016735108
0.00040232418
-0.00043722287
-0.0010408519
-0.0015336182
-0.001939344
-0.0022812774
-0.002582155
-0.0028571211
-0.0031141501
-0.0033551245
-0.0035765586
-0.0037704024
-0.0039249729
-0.0040259946
-0.0040577576
-0.0040044069
-0.0038513547
-0.0035867869
-0.0032031977
-0.0026988781
-0.0020794348
-0.0013583938
-0.00055816791
0.00029023877
0.0011481399
0.0019709994
0.0027111931
0.0033215746
0.0037595759
0.0039914102
0.0039958062
0.0037666835
0.003314187
0.0026634357
0.001851843
0.00093050402
-4.0917589e-05
-0.0010756573
-0.0022551435
0.00093791772
-0.00040994543
-0.0012984493
-0.0019382982
-0.0024652296
-0.0029068171
-0.0032893191
-0.0036377732
-0.0039685838
-0.0042900881
-0.0046037887
-0.0049051681
-0.0051845467
-0.0054280423
-0.0056186211
-0.0057372696
-0.0057643157
-0.0056809134
-0.0054706773
-0.0051214113
-0.0046268757
-0.0039887041
-0.0032173934
-0.0023338177
-0.0013694245
-0.00036577836
0.00062697782
0.0015528514
0.0023538772
0.0029749257
0.0033690066
0.003502423
0.0033589973
0.0029424805
0.0022761103
0.0014001217
0.00037359454
-0.000732023
-0.0019304758
-0.0033160495
-6.4233533e-05
-0.0014755141
-0.0024057438
-0.0030785555
-0.0036390821
-0.0041184748
-0.0045458124
-0.0049482232
-0.0053432159
-0.0057393842
-0.0061377756
-0.0065327808
-0.0069130233
-0.0072623176
-0.0075606987
-0.0077855701
-0.0079130196
-0.0079193382
-0.0077827537
-0.0074853529
-0.0070151477
-0.0063682588
-0.0055507449
-0.0045804154
-0.0034878376
-0.0023165238
-0.0011219124
3.11077e-05
0.0010722338
0.0019312385
0.0025445104
0.0028619414
0.0028531914
0.002512074
0.0018574876
0.00093149326
-0.00019815813
-0.0014462002
-0.0028264901
-0.0044477698
-0.001348362
-0.0028088969
-0.0037732242
-0.0044755919
-0.0050690733
-0.0055881895
-0.0060646555
-0.006527514
-0.0069952824
-0.0074767793
-0.0079726076
-0.0084760958
-0.0089741924
-0.0094483896
-0.0098756941
-0.010229709
-0.010481902
-0.010603111
-0.010565342
-0.010343847
-0.0099194722
-0.009281224
-0.008428788
-0.0073749641
-0.0061475682
-0.0047904998
-0.0033635313
-0.0019404008
-0.00060489215
0.00055517627
0.001455774
0.0020255758
0.0022148232
0.0020024451
0.0013991649
0.00044680162
-0.00077806072
-0.0021742527
-0.0037553126
-0.0056462048
-0.0029255621
-0.0044205083
-0.0054110151
-0.006139387
-0.0067650247
-0.0073255774
-0.007855221
-0.0083847782
-0.0089337474