/*--------------------------------*- C++ -*----------------------------------*\
  =========                 |
  \\      /  F ield         | OpenFOAM: The Open Source CFD Toolbox
   \\    /   O peration     | Website:  https://openfoam.org
    \\  /    A nd           | Version:  7
     \\/     M anipulation  |
\*---------------------------------------------------------------------------*/
FoamFile
{
    version     2.0;
    format      ascii;
    class       surfaceScalarField;
    location    "28";
    object      phi;
}
// * * * * * * * * * * * * * * * * * * * * * * * * * * * * * * * * * * * * * //

dimensions      [0 3 -1 0 0 0 0];

internalField   nonuniform List<scalar> 
45600
(
2.7495232e-07
-2.8245553e-07
-8.4325678e-11
4.0322601e-07
-1.2824697e-07
-2.6585615e-11
1.3250153e-07
2.7073233e-07
-7.5361939e-12
-5.6234069e-07
6.9484461e-07
-2.1460287e-12
-1.6393284e-06
1.0769846e-06
3.0788879e-12
-3.0276308e-06
1.3882959e-06
6.6112105e-12
-4.6524676e-06
1.6248285e-06
8.9277809e-12
-6.4450952e-06
1.7926179e-06
1.056274e-11
-8.3454177e-06
1.9003113e-06
1.1719553e-11
-1.0301433e-05
1.9560034e-06
1.2488711e-11
-1.2267389e-05
1.965943e-06
1.2931681e-11
-1.4201565e-05
1.9341631e-06
1.3081752e-11
-1.6064219e-05
1.8626413e-06
1.2948345e-11
-1.7816005e-05
1.7517729e-06
1.2530858e-11
-1.941703e-05
1.6010129e-06
1.1823945e-11
-2.0826632e-05
1.4095918e-06
1.081301e-11
-2.2003879e-05
1.1772378e-06
9.4772272e-12
-2.290874e-05
9.048516e-07
7.806044e-12
-2.3503838e-05
5.9509075e-07
5.8215286e-12
-2.3756671e-05
2.5282878e-07
3.5682342e-12
-2.364211e-05
-1.1456013e-07
1.1015516e-12
-2.314498e-05
-4.971261e-07
-1.5313921e-12
-2.2262548e-05
-8.8242687e-07
-4.2791325e-12
-2.1006595e-05
-1.2559496e-06
-7.0408015e-12
-1.9404845e-05
-1.6017449e-06
-9.6509506e-12
-1.7501541e-05
-1.9032926e-06
-1.1916678e-11
-1.5356957e-05
-2.1445644e-06
-1.3693711e-11
-1.3045742e-05
-2.3111914e-06
-1.4931611e-11
-1.0654086e-05
-2.3916386e-06
-1.5628689e-11
-8.2758071e-06
-2.3782747e-06
-1.5717587e-11
-6.0075681e-06
-2.2682376e-06
-1.502104e-11
-3.9435393e-06
-2.0640145e-06
-1.3384389e-11
-2.1697889e-06
-1.7737197e-06
-1.0882987e-11
-7.5853328e-07
-1.4112289e-06
-7.8441157e-12
2.3822005e-07
-9.9675607e-07
-4.7300215e-12
7.9654249e-07
-5.58353e-07
-2.0823216e-12
9.2925446e-07
-1.3273101e-07
1.097297e-12
7.0555179e-07
2.2372488e-07
5.3421363e-12
2.9044615e-07
4.1515541e-07
9.9608514e-12
2.9047545e-07
3.654236e-12
1.3278163e-07
-4.1521303e-07
-2.3988248e-11
-3.0178803e-07
3.0633791e-07
-1.5218626e-11
-1.6154784e-06
1.5844362e-06
-1.3179703e-11
-3.8747608e-06
2.9541418e-06
-1.3813211e-11
-7.0073748e-06
4.2096147e-06
-1.4876367e-11
-1.0879768e-05
5.2607058e-06
-1.635363e-11
-1.5335167e-05
6.0802459e-06
-1.774588e-11
-2.0215992e-05
6.6734623e-06
-1.8744023e-11
-2.5374038e-05
7.058378e-06
-1.9292535e-11
-3.067324e-05
7.2552252e-06
-1.9404817e-11
-3.5988497e-05
7.2812194e-06
-1.9100089e-11
-4.1202775e-05
7.1484598e-06
-1.8397535e-11
-4.6203909e-05
6.863793e-06
-1.7317728e-11
-5.0882029e-05
6.4299083e-06
-1.5876005e-11
-5.5128154e-05
5.8471511e-06
-1.4073287e-11
-5.8834236e-05
5.1156841e-06
-1.1902395e-11
-6.1894715e-05
4.2377268e-06
-9.3693107e-12
-6.4209517e-05
3.2196617e-06
-6.5193157e-12
-6.5688264e-05
2.073842e-06
-3.4037238e-12
-6.6255374e-05
8.1993683e-07
-8.8143353e-14
-6.5855891e-05
-5.1404966e-07
3.3776271e-12
-6.4460721e-05
-1.8923053e-06
6.9791116e-12
-6.2072394e-05
-3.2707609e-06
1.0558023e-11
-5.872901e-05
-4.5993408e-06
1.3935492e-11
-5.4507003e-05
-5.8237648e-06
1.6924131e-11
-4.9521843e-05
-6.8884781e-06
1.9402056e-11
-4.3926349e-05
-7.7400916e-06
2.134494e-11
-3.7906415e-05
-8.331153e-06
2.2748117e-11
-3.1674113e-05
-8.6239512e-06
2.3499605e-11
-2.5458372e-05
-8.5940198e-06
2.336992e-11
-1.9493588e-05
-8.2330384e-06
2.2203139e-11
-1.4006711e-05
-7.5509331e-06
2.0146215e-11
-9.2032988e-06
-6.577178e-06
1.7611091e-11
-5.252917e-06
-5.3616229e-06
1.4916703e-11
-2.2739839e-06
-3.975661e-06
1.198428e-11
-3.1725919e-07
-2.5150502e-06
8.4430952e-12
6.5706733e-07
-1.1070886e-06
3.9972674e-12
8.0365907e-07
7.7047584e-08
1.847194e-12
4.1780408e-07
8.0092438e-07
3.2124246e-12
7.0831086e-07
-2.6043656e-12
-2.7362972e-07
-1.4156977e-07
-1.3232896e-11
-1.6275479e-06
1.6602644e-06
-8.0402735e-12
-4.2894643e-06
4.2463619e-06
-9.2948774e-12
-8.2747226e-06
6.9394082e-06
-7.7950136e-12
-1.3474444e-05
9.4093429e-06
-5.743946e-12
-1.9708728e-05
1.1494996e-05
-4.6129219e-12
-2.6765739e-05
1.3137261e-05
-3.884122e-12
-3.4426586e-05
1.4334314e-05
-3.2823542e-12
-4.2478583e-05
1.5110378e-05
-2.7727801e-12
-5.0720386e-05
1.549703e-05
-2.3209083e-12
-5.8962214e-05
1.552305e-05
-1.8923042e-12
-6.7023594e-05
1.5209842e-05
-1.4647928e-12
-7.4730422e-05
1.4570622e-05
-1.0303626e-12
-8.1912597e-05
1.3612084e-05
-5.9576166e-13
-8.8403014e-05
1.2337569e-05
-1.7177452e-13
-9.4038334e-05
1.0751002e-05
2.41905e-13
-9.8661647e-05
8.8610382e-06
6.5579068e-13
-0.00010212694
6.6849554e-06
1.0641603e-12
-0.00010430507
4.2519707e-06
1.4406276e-12
-0.00010509085
1.605714e-06
1.7461097e-12
-0.00010441049
-1.1944115e-06
1.9730608e-12
-0.00010222931
-4.073488e-06
2.143284e-12
-9.8558383e-05
-6.9416935e-06
2.2964677e-12
-9.3459877e-05
-9.6978472e-06
2.4492987e-12
-8.7050278e-05
-1.223336e-05
2.5525065e-12
-7.9500895e-05
-1.4437858e-05
2.5268238e-12
-7.1035195e-05
-1.6205797e-05
2.3655236e-12
-6.1922658e-05
-1.7443704e-05
2.1953152e-12
-5.2469098e-05
-1.8077522e-05
2.1870209e-12
-4.300364e-05
-1.8059472e-05
2.3629542e-12
-3.386279e-05
-1.7373871e-05
2.519521e-12
-2.5372203e-05
-1.6041512e-05
2.4357673e-12
-1.7826876e-05
-1.4122525e-05
2.1987384e-12
-1.1470416e-05
-1.1718115e-05
2.2134901e-12
-6.47388e-06
-8.9722044e-06
2.7474405e-12
-2.9140487e-06
-6.0748461e-06
3.4303489e-12
-7.512189e-07
-3.2698697e-06
3.4254104e-12
1.9436543e-07
-8.6852214e-07
3.4203861e-12
2.6547789e-07
7.2975961e-07
4.6735889e-12
9.737986e-07
6.1308477e-13
-7.4587064e-07
6.0431435e-07
-1.3339314e-11
-3.1796763e-06
4.0940727e-06
-1.9489872e-12
-7.3461478e-06
8.4128411e-06
-7.373931e-12
-1.3163092e-05
1.2756359e-05
-6.6889997e-12
-2.045584e-05
1.6702095e-05
-4.0247005e-12
-2.8992638e-05
2.0031797e-05
-2.647509e-12
-3.8513858e-05
2.2658484e-05
-1.7336979e-12
-4.8752635e-05
2.4573092e-05
-9.220496e-13
-5.9446919e-05
2.5804662e-05
-2.5323905e-13
-7.0344748e-05
2.639486e-05
2.8926378e-13
-8.1205021e-05
2.6383322e-05
7.4102967e-13
-9.1795854e-05
2.5800674e-05
1.1246362e-12
-0.00010189227
2.4667033e-05
1.4565046e-12
-0.00011127447
2.2994285e-05
1.7397338e-12
-0.0001197276
2.0790704e-05
1.9595857e-12
-0.00012704342
1.8066815e-05
2.0990086e-12
-0.00013302396
1.4841576e-05
2.159567e-12
-0.00013748721
1.1148203e-05
2.155643e-12
-0.00014027431
7.0390641e-06
2.0946959e-12
-0.00014125785
2.5892533e-06
1.9637896e-12
-0.00014035057
-2.1016864e-06
1.7432662e-12
-0.00013751419
-6.9098704e-06
1.3872058e-12
-0.00013276684
-1.1689048e-05
9.4183044e-13
-0.00012618914
-1.6275553e-05
5.0082583e-13
-0.00011792773
-2.0494765e-05
1.3686798e-13
-0.00010819577
-2.4169809e-05
-1.7036685e-13
-9.726975e-05
-2.7131808e-05
-5.1423348e-13
-8.5482308e-05
-2.9231145e-05
-9.2476128e-13
-7.3210869e-05
-3.0348973e-05
-1.2497364e-12
-6.0862212e-05
-3.0408142e-05
-1.2375335e-12
-4.8853414e-05
-2.9382663e-05
-8.0858737e-13
-3.7589869e-05
-2.730503e-05
-2.1283985e-13
-2.7441284e-05
-2.4271092e-05
2.0787411e-13
-1.8716675e-05
-2.0442741e-05
4.6020636e-13
-1.1639463e-05
-1.6049458e-05
9.5778037e-13
-6.3235913e-06
-1.1390743e-05
2.0141417e-12
-2.7515448e-06
-6.8418958e-06
3.3489871e-12
-7.5714107e-07
-2.8628938e-06
4.1594986e-12
-9.5238762e-09
-1.7869448e-08
4.2530849e-12
9.6426174e-07
3.4636309e-12
-1.2279791e-06
1.8323081e-06
-1.4752406e-11
-4.7881328e-06
7.6542229e-06
4.1312575e-12
-1.0521567e-05
1.4146282e-05
-6.4271739e-12
-1.8214348e-05
2.0449149e-05
-7.5139623e-12
-2.7603936e-05
2.6091687e-05
-5.114501e-12
-3.8396273e-05
3.0824139e-05
-4.3641573e-12
-5.0283006e-05
3.4545221e-05
-3.9986041e-12
-6.2954707e-05
3.7244798e-05
-3.5148328e-12
-7.6108935e-05
3.8958893e-05
-3.0424852e-12
-8.9453644e-05
3.9739573e-05
-2.6052951e-12
-0.00010270732
3.9636998e-05
-2.1803628e-12
-0.00011559735
3.869071e-05
-1.7613245e-12
-0.00012785814
3.6927825e-05
-1.3398709e-12
-0.00013922998
3.436612e-05
-9.0311332e-13
-0.00014945951
3.1020238e-05
-4.5199466e-13
-0.00015830222
2.690953e-05
-8.4776689e-15
-0.00016552697
2.206633e-05
4.0455591e-13
-0.00017092248
1.6543703e-05
7.8343242e-13
-0.00017430532
1.0421906e-05
1.1464557e-12
-0.00017552908
3.8130154e-06
1.5112619e-12
-0.00017449386
-3.1369067e-06
1.8634473e-12
-0.00017115563
-1.0248102e-05
2.1371244e-12
-0.00016553456
-1.7310117e-05
2.2798386e-12
-0.00015772168
-2.408844e-05
2.3070547e-12
-0.00014788299
-3.0333459e-05
2.315701e-12
-0.00013626042
-3.579239e-05
2.3997245e-12
-0.0001231688
-4.0223418e-05
2.5316535e-12
-0.00010898858
-4.3411357e-05
2.5578042e-12
-9.4153685e-05
-4.5183866e-05
2.3739472e-12
-7.9134765e-05
-4.5427079e-05
2.1172317e-12
-6.4418005e-05
-4.4099446e-05
2.0973613e-12
-5.0480329e-05
-4.1242709e-05
2.4511592e-12
-3.7762106e-05
-3.6989288e-05
2.9037117e-12
-2.663879e-05
-3.156603e-05
3.0141861e-12
-1.7393153e-05
-2.5295104e-05
2.7273528e-12
-1.0189921e-05
-1.8594012e-05
2.6867183e-12
-5.0547512e-06
-1.1977086e-05
3.6106151e-12
-1.8598352e-06
-6.0577935e-06
3.6801593e-12
-3.2222694e-07
-1.555463e-06
5.1291772e-13
6.4202037e-07
5.7478943e-12
-1.6931733e-06
3.5254985e-06
-1.7197831e-11
-6.3714189e-06
1.2332459e-05
9.5979008e-12
-1.3671458e-05
2.1446327e-05
-5.4190601e-12
-2.3234052e-05
3.0011752e-05
-7.5789591e-12
-3.4695217e-05
3.7552857e-05
-4.8510408e-12
-4.7689771e-05
4.3818697e-05
-4.276379e-12
-6.1857445e-05
4.8712899e-05
-4.1394358e-12
-7.6847959e-05
5.2235316e-05
-3.7636233e-12
-9.2323732e-05
5.4434669e-05
-3.352013e-12
-0.0001079601
5.5375948e-05
-2.9553287e-12
-0.00012344377
5.5120668e-05
-2.5491533e-12
-0.00013847047
5.3717413e-05
-2.1345901e-12
-0.00015274298
5.1200334e-05
-1.7178719e-12
-0.00016597027
4.7593412e-05
-1.290008e-12
-0.00017786845
4.2918421e-05
-8.3502613e-13
-0.00018816375
3.7204828e-05
-3.5470448e-13
-0.00019659758
3.0500161e-05
1.2497516e-13
-0.00020293351
2.2879644e-05
5.710238e-13
-0.00020696582
1.4454206e-05
9.7200576e-13
-0.00020852897
5.376169e-06
1.3497573e-12
-0.0002075078
-4.1580788e-06
1.7347682e-12
-0.00020384738
-1.390853e-05
2.1239411e-12
-0.00019756218
-2.359531e-05
2.4455449e-12
-0.00018874369
-3.2906921e-05
2.6152692e-12
-0.00017756564
-4.1511519e-05
2.6301838e-12
-0.00016428604
-4.9072005e-05
2.6098448e-12
-0.00014924532
-5.5264144e-05
2.6980788e-12
-0.00013285974
-5.9796936e-05
2.8909332e-12
-0.00011560953
-6.2434058e-05
2.9943503e-12
-9.8021636e-05
-6.3014964e-05
2.8349084e-12
-8.0647133e-05
-6.1473968e-05
2.5336726e-12
-6.4034119e-05
-5.7855753e-05
2.4627058e-12
-4.8697411e-05
-5.2326006e-05
2.8178408e-12
-3.508687e-05
-4.5176547e-05
3.270826e-12
-2.3556643e-05
-3.6825306e-05
3.2608834e-12
-1.4337851e-05
-2.7812812e-05
3.076239e-12
-7.5174897e-06
-1.8797477e-05
3.9578962e-12
-3.0267292e-06
-1.0548559e-05
3.4443209e-12
-6.4249015e-07
-3.9396862e-06
-1.9869193e-12
-4.8005268e-10
8.2955126e-12
-2.1329377e-06
5.6584565e-06
-1.9939544e-11
-7.8910748e-06
1.8090582e-05
1.4429065e-11
-1.6717396e-05
3.0272653e-05
-4.6431651e-12
-2.8105716e-05
4.140008e-05
-7.605058e-12
-4.1585042e-05
5.1032188e-05
-4.3787803e-12
-5.6714063e-05
5.8947722e-05
-3.8442512e-12
-7.3078177e-05
6.5077017e-05
-3.842752e-12
-9.0286955e-05
6.9444097e-05
-3.5212094e-12
-0.00010797116
7.2118874e-05
-3.1423548e-12
-0.00012577907
7.3183863e-05
-2.7790368e-12
-0.00014337251
7.2714112e-05
-2.3993533e-12
-0.00016042315
7.0768061e-05
-1.9993895e-12
-0.0001766099
6.738708e-05
-1.594921e-12
-0.00019161782
6.260134e-05
-1.1948773e-12
-0.00020513918
5.6439776e-05
-7.8766157e-13
-0.00021687649
4.8942139e-05
-3.5462185e-13
-0.00022654778
4.0171457e-05
1.0608127e-13
-0.00023389369
3.022556e-05
5.6597574e-13
-0.00023868613
1.924664e-05
9.804953e-13
-0.00024073805
7.4280897e-06
1.324886e-12
-0.000239914
-4.9821291e-06
1.6206839e-12
-0.00023614067
-1.7681866e-05
1.9279809e-12
-0.00022941714
-3.0318845e-05
2.2555567e-12
-0.00021982384
-4.2500211e-05
2.5322299e-12
-0.00020752963
-5.380573e-05
2.6444867e-12
-0.00019279583
-6.3805804e-05
2.565142e-12
-0.00017597647
-7.2083523e-05
2.4345784e-12
-0.00015751344
-7.8259976e-05
2.4554083e-12
-0.00013792596
-8.2021536e-05
2.661495e-12
-0.00011779358
-8.3147322e-05
2.8280256e-12
-9.773283e-05
-8.1534704e-05
2.7150697e-12
-7.8368033e-05
-7.7220563e-05
2.4291075e-12
-6.0297808e-05
-7.0396262e-05
2.3897612e-12
-4.4059489e-05
-6.1414878e-05
2.7597904e-12
-3.0094398e-05
-5.0790378e-05
3.0733862e-12
-1.8717236e-05
-3.9189958e-05
3.2801625e-12
-1.009304e-05
-2.7421686e-05
4.5540767e-12
-4.2253115e-06
-1.6416303e-05
3.3927685e-12
-9.5848634e-07
-7.2065048e-06
-4.845636e-12
-9.5897187e-07
1.0315538e-11
-2.5450521e-06
8.2035319e-06
-2.2704499e-11
-9.3288367e-06
2.4874348e-05
1.8737662e-11
-1.961534e-05
4.055916e-05
-4.1336223e-12
-3.2756807e-05
5.4541555e-05
-7.843973e-12
-4.8175819e-05
6.6451205e-05
-4.1528983e-12
-6.5353994e-05
7.6125901e-05
-3.6655054e-12
-8.3822011e-05
8.3545038e-05
-3.8067138e-12
-0.00010315046
8.877255e-05
-3.5539394e-12
-0.00012294142
9.1909841e-05
-3.2202603e-12
-0.00014282072
9.3063166e-05
-2.9006574e-12
-0.00016243108
9.2324469e-05
-2.5606512e-12
-0.00018142658
8.9763566e-05
-2.185117e-12
-0.00019946892
8.5429424e-05
-1.7822772e-12
-0.00021622569
7.9358113e-05
-1.3720223e-12
-0.00023137093
7.1585016e-05
-9.6652567e-13
-0.00024458793
6.2159141e-05
-5.5602824e-13
-0.00025557419
5.1157718e-05
-1.1766508e-13
-0.00026404826
3.8699634e-05
3.5815794e-13
-0.00026975826
2.4956641e-05
8.4342714e-13
-0.00027249168
1.0161515e-05
1.2778671e-12
-0.00027208627
-5.3875368e-06
1.6139788e-12
-0.00026844133
-2.1326816e-05
1.885139e-12
-0.00026152938
-3.7230808e-05
2.1538444e-12
-0.00025140704
-5.2622549e-05
2.4653116e-12
-0.00023822465
-6.6988113e-05
2.7526905e-12
-0.00022223333
-7.9797114e-05
2.8690421e-12
-0.00020378836
-9.0528496e-05
2.7520676e-12
-0.00018334739
-9.8700967e-05
2.5517877e-12
-0.00016146221
-0.00010390673
2.5243608e-12
-0.00013876311
-0.00010584643
2.7416676e-12
-0.00011593521
-0.00010436258
2.9564511e-12
-9.3687429e-05
-9.9468324e-05
2.889684e-12
-7.2715349e-05
-9.1368353e-05
2.6556813e-12
-5.3660695e-05
-8.0469559e-05
2.61914e-12
-3.7071054e-05
-6.7380027e-05
2.7645141e-12
-2.3363921e-05
-5.2897075e-05
3.2609358e-12
-1.2799298e-05
-3.7986303e-05
5.1832744e-12
-5.4648731e-06
-2.3750739e-05
3.4403795e-12
-1.2772571e-06
-1.1394121e-05
-7.8213677e-12
-2.2362383e-06
1.2720236e-11
-2.9284777e-06
1.1132035e-05
-2.5405718e-11
-1.0673656e-05
3.2619504e-05
2.2596412e-11
-2.2336141e-05
5.2221649e-05
-3.7934069e-12
-3.7135918e-05
6.934134e-05
-8.181434e-12
-5.4394024e-05
8.3709315e-05
-4.0468177e-12
-7.3517509e-05
9.5249389e-05
-3.5914738e-12
-9.3984145e-05
0.00010401168
-3.8578745e-12
-0.00011532777
0.00011011618
-3.666655e-12
-0.00013712495
0.00011370702
-3.3724093e-12
-0.00015898327
0.00011492149
-3.0884698e-12
-0.00018053148
0.00011387268
-2.7864071e-12
-0.00020141181
0.0001106439
-2.4486646e-12
-0.00022127467
0.00010529228
-2.0671096e-12
-0.00023977579
9.7859241e-05
-1.6487305e-12
-0.00025657596
8.8385192e-05
-1.2167496e-12
-0.00027134303
7.6926211e-05
-7.9013317e-13
-0.00028375615
6.3570831e-05
-3.6437694e-13
-0.00029351198
4.8455471e-05
8.8716597e-14
-0.00030033277
3.1777426e-05
5.9065611e-13
-0.00030397591
1.3804657e-05
1.1130794e-12
-0.00030424513
-5.1183123e-06
1.5748796e-12
-0.00030100254
-2.4569402e-05
1.9353363e-12
-0.00029418211
-4.405125e-05
2.1815433e-12
-0.00028380287
-6.30018e-05
2.4102665e-12
-0.00026998185
-8.0809134e-05
2.7026617e-12
-0.00025294516
-9.6833801e-05
3.0023547e-12
-0.00023303569
-0.00011043795
3.1343203e-12
-0.00021071573
-0.00012102093
2.9985331e-12
-0.00018656244
-0.00012806004
2.7460551e-12
-0.00016125464
-0.00013115425
2.6725594e-12
-0.00013554982
-0.00013006741
2.8742758e-12
-0.00011025135
-0.00012476678
3.0980592e-12
-8.616728e-05
-0.00011545241
3.0738353e-12
-6.4063662e-05
-0.00010257319
2.8539207e-12
-4.4616629e-05
-8.6827081e-05
2.6073225e-12
-2.8368506e-05
-6.9145202e-05
3.0719669e-12
-1.5693136e-05
-5.0661667e-05
5.6653101e-12
-6.7752121e-06
-3.2668661e-05
3.5317127e-12
-1.6070326e-06
-1.6562294e-05
-1.0781881e-11
-3.8432872e-06
1.5251967e-11
-3.2816943e-06
1.4413757e-05
-2.798277e-11
-1.191585e-05
4.1253635e-05
2.6035846e-11
-2.485547e-05
6.5161273e-05
-3.5797796e-12
-4.119985e-05
8.5685728e-05
-8.5689067e-12
-6.0176209e-05
0.00010268568
-4.0076525e-12
-8.1122113e-05
0.0001161953
-3.5681876e-12
-0.00010346613
0.0001263557
-3.9392224e-12
-0.00012670867
0.00013335872
-3.8006597e-12
-0.0001504044
0.00013740275
-3.5416571e-12
-0.00017414685
0.00013866395
-3.283904e-12
-0.00019755562
0.00013728146
-3.0049095e-12
-0.00022026632
0.00013335461
-2.6994596e-12
-0.0002419235
0.00012694946
-2.3569974e-12
-0.00026217626
0.00011811201
-1.9628005e-12
-0.00028067673
0.00010688566
-1.52052e-12
-0.00029708085
9.3330329e-05
-1.0566584e-12
-0.00031105149
7.7541475e-05
-6.0044214e-13
-0.00032226367
5.966765e-05
-1.548049e-13
-0.00033041172
3.9925481e-05
3.1266245e-13
-0.0003352185
1.8611427e-05
8.2624598e-13
-0.00033644666
-3.8901478e-06
1.3538129e-12
-0.00033391127
-2.7104784e-05
1.8900182e-12
-0.00032749552
-5.0466999e-05
2.2676197e-12
-0.00031716646
-7.3330869e-05
2.4878727e-12
-0.00030299191
-9.4983697e-05
2.6675728e-12
-0.00028515647
-0.00011466925
2.9214329e-12
-0.00026397485
-0.00013161957
3.2127491e-12
-0.00023990032
-0.00014509544
3.3483895e-12
-0.00021352557
-0.00015443478
3.1981758e-12
-0.00018557356
-0.00015910627
2.9114764e-12
-0.0001568764
-0.00015876459
2.8029117e-12
-0.00012834149
-0.0001533017
2.9798406e-12
-0.00010090595
-0.00014288794
3.20317e-12
-7.5482385e-05
-0.00012799674
3.1386319e-12
-5.2901089e-05
-0.00010940839
2.674558e-12
-3.3855083e-05
-8.8191222e-05
2.9484545e-12
-1.8854768e-05
-6.5661987e-05
6.0626458e-12
-8.1982546e-06
-4.3325171e-05
3.5411261e-12
-1.9611598e-06
-2.2799372e-05
-1.3938702e-11
-5.8044673e-06
1.7961103e-11
-3.6022964e-06
1.8016084e-05
-3.0384447e-11
-1.3044849e-05
5.0696159e-05
2.9068136e-11
-2.7149242e-05
7.926567e-05
-3.4755977e-12
-4.4907092e-05
0.00010344359
-9.0003177e-12
-6.5461393e-05
0.00012323998
-4.0417716e-12
-8.8087083e-05
0.00013882099
-3.6071198e-12
-0.00011216861
0.00015043724
-4.0652971e-12
-0.00013717719
0.0001583673
-3.9731219e-12
-0.00016264961
0.00016287518
-3.7528501e-12
-0.00018816962
0.00016418396
-3.5255543e-12
-0.0002133523
0.00016246413
-3.2619607e-12
-0.00023783165
0.00015783397
-2.9692398e-12
-0.0002612515
0.00015036931
-2.6543315e-12
-0.00028325939
0.00014011991
-2.3017139e-12
-0.00030350337
0.00012712964
-1.889921e-12
-0.00032163118
0.00011145815
-1.4172446e-12
-0.00033729195
9.3202247e-05
-9.1190508e-13
-0.00035013988
7.2515581e-05
-4.1515622e-13
-0.00035984029
4.9625886e-05
5.7091213e-14
-0.00036607792
2.4849062e-05
5.2056654e-13
-0.00036856847
-1.399606e-06
9.8819522e-13
-0.00036707086
-2.8602396e-05
1.6413149e-12
-0.0003614059
-5.6131955e-05
2.2118988e-12
-0.00035147413
-8.3262635e-05
2.6063192e-12
-0.0003372774
-0.00010918043
2.8094417e-12
-0.00031894052
-0.00013300615
2.9391876e-12
-0.00029673139
-0.0001538287
3.141542e-12
-0.00027107695
-0.00017074989
3.4008584e-12
-0.00024257134
-0.00018294037
3.5164496e-12
-0.00021197302
-0.00018970458
3.3446628e-12
-0.00018018739
-0.00019055023
3.0375299e-12
-0.00014823316
-0.00018525595
2.9193037e-12
-0.00011719264
-0.00017392846
3.0952493e-12
-8.8148853e-05
-0.00015704051
3.2116044e-12
-6.2115312e-05
-0.00013544192
2.7793913e-12
-3.9966447e-05
-0.0001103401
2.9810272e-12
-2.237759e-05
-8.3250858e-05
6.5658993e-12
-9.7826816e-06
-5.5920082e-05
3.503031e-12
-2.354693e-06
-3.0227339e-05
-1.747088e-11
-8.1591815e-06
2.0983793e-11
-3.8870431e-06
2.190316e-05
-3.2569076e-11
-1.4048635e-05
6.0857719e-05
3.1694938e-11
-2.9192002e-05
9.4409041e-05
-3.4578713e-12
-4.8215181e-05
0.00012246678
-9.4596826e-12
-7.0187723e-05
0.00014521253
-4.1467681e-12
-9.4329902e-05
0.00016296317
-3.711415e-12
-0.00011998801
0.00017609535
-4.2393759e-12
-0.00014660884
0.00018498813
-4.1821678e-12
-0.0001737156
0.00018998194
-3.9990284e-12
-0.00020088653
0.0001913549
-3.8127955e-12
-0.00022773672
0.00018931433
-3.5763663e-12
-0.00025390341
0.00018400066
-3.2912448e-12
-0.00027903477
0.00017550067
-2.9795941e-12
-0.00030278187
0.000163867
-2.6484683e-12
-0.00032479349
0.00014914126
-2.2808607e-12
-0.00034471355
0.00013137821
-1.8484182e-12
-0.00036218076
0.00011066945
-1.3405051e-12
-0.00037683062
8.7165454e-05
-7.8639302e-13
-0.0003882999
6.1095167e-05
-2.4116658e-13
-0.00039623376
3.278292e-05
2.755009e-13
-0.00040029587
2.6625055e-06
8.1372708e-13
-0.00040018338
-2.8714895e-05
1.3224066e-12
-0.00039564357
-6.0671767e-05
1.9319159e-12
-0.00038649689
-9.240931e-05
2.5256695e-12
-0.00037266218
-0.00012301513
2.945597e-12
-0.00035418455
-0.00015148378
3.1381035e-12
-0.00033126342
-0.00017674985
3.2222897e-12
-0.0003042775
-0.00019773583
3.3654912e-12
-0.00027380269
-0.00021341518
3.5669472e-12
-0.00024061803
-0.00022288922
3.6289694e-12
-0.00020569496
-0.0002254733
3.4186239e-12
-0.0001701662
-0.00022078472
3.1151569e-12
-0.00013527303
-0.00020882164
3.0416666e-12
-0.00010229322
-0.00019002033
3.1065032e-12
-7.2455854e-05
-0.00016527928
2.7228097e-12
-4.6853241e-05
-0.00013594271
3.0385475e-12
-2.6361335e-05
-0.00010374277
7.2503756e-12
-1.1580431e-05
-7.0700993e-05
3.5181298e-12
-2.8033123e-06
-3.9004435e-05
-2.1483706e-11
-1.0962517e-05
2.4422261e-11
-4.1321094e-06
2.6035305e-05
-3.4500779e-11
-1.4914071e-05
7.1639648e-05
3.3901667e-11
-3.0957078e-05
0.00011045205
-3.5042766e-12
-5.1080569e-05
0.00014259028
-9.9213898e-12
-7.4292151e-05
0.00016842412
-4.3083093e-12
-9.9765963e-05
0.00018843699
-3.8751798e-12
-0.00012681649
0.00020314588
-4.4614567e-12
-0.00015487106
0.00021304271
-4.4267579e-12
-0.00018344365
0.00021855454
-4.2678108e-12
-0.00021211118
0.00022002242
-4.1208527e-12
-0.00024049308
0.00021769624
-3.927385e-12
-0.00026823454
0.00021174212
-3.6696453e-12
-0.0002949931
0.00020225923
-3.3611552e-12
-0.0003204286
0.00018930251
-3.0238939e-12
-0.00034419593
0.0001729086
-2.6696114e-12
-0.00036594025
0.00015312253
-2.2829474e-12
-0.00038529455
0.00013002375
-1.8282464e-12
-0.00040187951
0.00010375041
-1.2846447e-12
-0.00041530593
7.4521593e-05
-6.7893035e-13
-0.00042518026
4.2657254e-05
-5.9923285e-14
-0.00043111346
8.5957056e-06
5.487946e-13
-0.00043273572
-2.7092636e-05
1.0206041e-12
-0.00042971368
-6.3693819e-05
1.5738274e-12
-0.00042177571
-0.00010034728
2.215922e-12
-0.00040874127
-0.00013604957
2.8392317e-12
-0.00039055496
-0.00016967009
3.2771101e-12
-0.00036732311
-0.0001999817
3.4579456e-12
-0.00033934944
-0.00022570951
3.4981409e-12
-0.00030716505
-0.00024559959
3.5725028e-12
-0.00027154655
-0.00025850773
3.6852842e-12
-0.00023351576
-0.00026350408
3.6563327e-12
-0.00019431477
-0.00025998571
3.412646e-12
-0.00015535275
-0.00024778367
3.1787033e-12
-0.00011812515
-0.00022724795
3.033188e-12
-8.4111745e-05
-0.00019929268
2.5221871e-12
-5.4665423e-05
-0.00016538903
2.9876307e-12
-3.0907307e-05
-0.0001275009
8.0575276e-12
-1.3644683e-05
-8.7963623e-05
3.6182902e-12
-3.3229894e-06
-4.9326105e-05
-2.6060204e-11
-1.4285534e-05
2.8400908e-11
-4.333447e-06
3.0368788e-05
-3.6141309e-11
-1.5627768e-05
8.2933934e-05
3.5661724e-11
-3.2417858e-05
0.00012724215
-3.6028526e-12
-5.3460222e-05
0.00016363265
-1.036272e-11
-7.7712338e-05
0.00019267624
-4.5071767e-12
-0.00010431084
0.0002150355
-4.0836172e-12
-0.00013254471
0.00023137976
-4.7257108e-12
-0.00016182669
0.00024232469
-4.7112782e-12
-0.0001916656
0.00024839345
-4.5639152e-12
-0.00022164093
0.00024999776
-4.4385935e-12
-0.00025138062
0.00024743593
-4.2835167e-12
-0.00028054226
0.00024090377
-4.0718142e-12
-0.00030879781
0.00023051478
-3.7946568e-12
-0.00033582135
0.00021632606
-3.459081e-12
-0.00036127972
0.00019836698
-3.0892605e-12
-0.00038482548
0.00017666829
-2.7048813e-12
-0.00040609207
0.00015129034
-2.2944106e-12
-0.00042469129
0.00012234963
-1.8163227e-12
-0.00044021336
9.0043653e-05
-1.2360708e-12
-0.00045223015
5.4674055e-05
-5.6608859e-13
-0.00046030254
1.6668096e-05
1.2645171e-13
-0.00046399308
-2.3402089e-05
7.2134194e-13
-0.00046288401
-6.48029e-05
1.2768636e-12
-0.00045660295
-0.00010662835
1.8662516e-12
-0.00044485565
-0.00014779688
2.5254571e-12
-0.00042746571
-0.00018706003
3.1613571e-12
-0.00040441982
-0.00022302758
3.5976764e-12
-0.00037591524
-0.00025421409
3.7530553e-12
-0.00034240425
-0.00027911059
3.7397834e-12
-0.00030462833
-0.00029628366
3.7242173e-12
-0.00026363313
-0.00030449929
3.7105042e-12
-0.00022075491
-0.00030286391
3.5851468e-12
-0.00017757146
-0.00029096713
3.3777343e-12
-0.00013581488
-0.00026900453
3.080299e-12
-9.7251839e-05
-0.00023785573
2.3133416e-12
-6.3544778e-05
-0.00019909609
2.8384074e-12
-3.6114654e-05
-0.00015493102
8.9302272e-12
-1.6028542e-05
-0.00010804974
3.7580642e-12
-3.929832e-06
-6.1424784e-05
-3.1324881e-11
-1.8215399e-05
3.306107e-11
-4.4872168e-06
3.4856043e-05
-3.7449354e-11
-1.61773e-05
9.4623981e-05
3.6951428e-11
-3.354985e-05
0.0001446147
-3.7486152e-12
-5.5314475e-05
0.00018539729
-1.0771494e-11
-8.0390252e-05
0.00021775202
-4.7303742e-12
-0.00010788465
0.0002425299
-4.3190189e-12
-0.00013706706
0.00026056217
-5.0146422e-12
-0.00016734004
0.00027259768
-5.0286444e-12
-0.00019821093
0.00027926434
-4.8950273e-12
-0.00022926531
0.00028105215
-4.7769357e-12
-0.00026014334
0.00027831397
-4.6366005e-12
-0.0002905193
0.00027127974
-4.4598997e-12
-0.00032008444
0.00026007992
-4.2318354e-12
-0.00034853276
0.00024477439
-3.9336289e-12
-0.0003755495
0.00022538372
-3.5664248e-12
-0.00040080174
0.00020192053
-3.1574233e-12
-0.00042393114
0.00017441975
-2.7350817e-12
-0.00044454884
0.00014296732
-2.2937231e-12
-0.00046223275
0.00010772756
-1.7855704e-12
-0.00047652816
6.8969463e-05
-1.1604996e-12
-0.00048695242
2.7092354e-05
-4.2949204e-13
-0.00049300518
-1.7349318e-05
3.1041228e-13
-0.00049418518
-6.3622894e-05
9.8500285e-13
-0.00049001538
-0.00011079815
1.5929802e-12
-0.00048007732
-0.00015773495
2.2094159e-12
-0.00046405526
-0.00020308209
2.8759904e-12
-0.00044178937
-0.00024529348
3.4982727e-12
-0.00041333539
-0.00028266806
3.8993325e-12
-0.00037902562
-0.00031342036
4.0003653e-12
-0.00033952304
-0.00033578625
3.9054839e-12
-0.00029585726
-0.00034816508
3.7619349e-12
-0.00024942958
-0.0003492916
3.6153773e-12
-0.00020197478
-0.00033842192
3.4707036e-12
-0.00015547269
-0.00031550662
3.1445891e-12
-0.00011201149
-0.00028131694
2.1388816e-12
-7.3617429e-05
-0.00023749015
2.6700294e-12
-4.2076965e-05
-0.0001864715
9.9002373e-12
-1.8783985e-05
-0.00013134272
3.8997466e-12
-4.6400056e-06
-7.5568725e-05
-3.743921e-11
-2.2855444e-05
3.8527979e-11
-4.5902769e-06
3.9446358e-05
-3.839171e-11
-1.6552667e-05
0.00010658633
3.7759309e-11
-3.4333304e-05
0.00016239534
-3.9327327e-12
-5.6610813e-05
0.00020767481
-1.1141074e-11
-8.2277079e-05
0.00024341829
-4.9763125e-12
-0.00011041805
0.00027067087
-4.5742673e-12
-0.00014028874
0.00029043287
-5.3111629e-12
-0.0001712853
0.00030359425
-5.3578915e-12
-0.00020291664
0.00031089569
-5.2504828e-12
-0.00023477741
0.00031291292
-5.1444879e-12
-0.00026652328
0.00031005984
-5.0033788e-12
-0.00029784912
0.00030260559
-4.8306083e-12
-0.00032847025
0.00029070105
-4.6299852e-12
-0.00035810634
0.00027441049
-4.3811031e-12
-0.00038646786
0.00025374524
-4.0568925e-12
-0.00041324445
0.00022869713
-3.6527007e-12
-0.00043809526
0.00019927056
-3.1973273e-12
-0.0004606411
0.00016551317
-2.7274168e-12
-0.00048045889
0.00012754536
-2.2433812e-12
-0.00049707903
8.5589602e-05
-1.6932567e-12
-0.00050998677
4.0000089e-05
-1.0197796e-12
-0.00051862896
-8.7071232e-06
-2.3216384e-13
-0.00052242793
-5.9823928e-05
5.7739119e-13
-0.00052080422
-0.00011242185
1.3201445e-12
-0.0005132105
-0.00016532867
1.9801597e-12
-0.00049917784
-0.00021711476
2.6211459e-12
-0.00047837513
-0.00026609619
3.2746766e-12
-0.00045068025
-0.00031036295
3.8433584e-12
-0.00041625859
-0.00034784202
4.1606027e-12
-0.00037564057
-0.00037640427
4.1577981e-12
-0.00032978506
-0.00039402059
3.9295008e-12
-0.00028011168
-0.00039896499
3.6480053e-12
-0.00022848354
-0.00039005006
3.4546323e-12
-0.00017712602
-0.00036686415
3.1062011e-12
-0.00012847755
-0.00032996541
1.9109882e-12
-8.4985512e-05
-0.00028098219
2.4917567e-12
-4.8878598e-05
-0.00022257842
1.1033143e-11
-2.1960805e-05
-0.00015826052
4.0577847e-12
-5.4696727e-06
-9.2059812e-05
-4.4550198e-11
-2.8325161e-05
4.491265e-11
-4.6407138e-06
4.4087112e-05
-3.8954653e-11
-1.6747968e-05
0.00011869355
3.8082223e-11
-3.4756272e-05
0.00018040365
-4.1404059e-12
-5.7328399e-05
0.00023024695
-1.1460701e-11
-8.3339172e-05
0.00026942907
-5.2460505e-12
-0.0001118596
0.0002991913
-4.8554427e-12
-0.0001421346
0.00032070788
-5.6151507e-12
-0.00017355684
0.0003350165
-5.6845755e-12
-0.00020563922
0.00034297808
-5.6061412e-12
-0.00023798786
0.00034526156
-5.5251831e-12
-0.00027027674
0.00034234873
-5.3909709e-12
-0.0003022249
0.00033455376
-5.2062214e-12
-0.00033357621
0.00032205237
-4.9937945e-12
-0.00036408173
0.00030491601
-4.7585953e-12
-0.00039348425
0.00028314776
-4.478229e-12
-0.00042150465
0.00025671754
-4.1190934e-12
-0.00044782996
0.00022559587
-3.6699802e-12
-0.00047210286
0.00018978607
-3.1594577e-12
-0.00049391316
0.00014935567
-2.630541e-12
-0.00051279171
0.00010446815
-2.0891078e-12
-0.00052820771
5.541609e-05
-1.4835398e-12
-0.00053957103
2.6561964e-06
-7.504119e-13
-0.00054624147
-5.3153486e-05
8.677935e-14
-0.00054754706
-0.00011111627
9.5952082e-13
-0.00054281465
-0.00017006107
1.7634956e-12
-0.00053141546
-0.00022851395
2.4673002e-12
-0.00051282772
-0.00028468395
3.1139799e-12
-0.00048671706
-0.00033647361
3.7157795e-12
-0.00045303217
-0.00038152691
4.1725028e-12
-0.00041210796
-0.00041732848
4.3347343e-12
-0.0003647625
-0.00044136606
4.1524119e-12
-0.0003123666
-0.0004513609
3.7682774e-12
-0.00025686062
-0.00044555604
3.4385586e-12
-0.00020069366
-0.00042303112
2.9681151e-12
-0.00014667102
-0.00038398805
1.5399999e-12
-9.7717331e-05
-0.00032993588
2.2294077e-12
-5.6590288e-05
-0.00026370548
1.2342602e-11
-2.5605306e-05
-0.0001892455