/*--------------------------------*- C++ -*----------------------------------*\
  =========                 |
  \\      /  F ield         | OpenFOAM: The Open Source CFD Toolbox
   \\    /   O peration     | Website:  https://openfoam.org
    \\  /    A nd           | Version:  7
     \\/     M anipulation  |
\*---------------------------------------------------------------------------*/
FoamFile
{
    version     2.0;
    format      ascii;
    class       surfaceScalarField;
    location    "28";
    object      phi_0;
}
// * * * * * * * * * * * * * * * * * * * * * * * * * * * * * * * * * * * * * //

dimensions      [0 3 -1 0 0 0 0];

internalField   nonuniform List<scalar> 
45600
(
2.7495224e-07
-2.8245561e-07
-8.432225e-11
4.0322597e-07
-1.2824711e-07
-2.6585615e-11
1.3250143e-07
2.7073217e-07
-7.5361939e-12
-5.623409e-07
6.9484462e-07
-2.1460287e-12
-1.6393286e-06
1.0769848e-06
3.0788879e-12
-3.0276309e-06
1.388296e-06
6.6112105e-12
-4.6524678e-06
1.6248283e-06
8.9277809e-12
-6.4450955e-06
1.7926176e-06
1.056274e-11
-8.345418e-06
1.9003112e-06
1.1719553e-11
-1.0301434e-05
1.9560034e-06
1.2488711e-11
-1.2267389e-05
1.9659431e-06
1.2931681e-11
-1.4201565e-05
1.9341632e-06
1.3081752e-11
-1.6064219e-05
1.8626415e-06
1.2948345e-11
-1.7816005e-05
1.7517731e-06
1.2530858e-11
-1.9417029e-05
1.6010128e-06
1.1823945e-11
-2.0826632e-05
1.4095917e-06
1.081301e-11
-2.2003879e-05
1.1772382e-06
9.4772272e-12
-2.290874e-05
9.0485272e-07
7.806044e-12
-2.3503838e-05
5.9509193e-07
5.8215286e-12
-2.375667e-05
2.5282888e-07
3.5682342e-12
-2.3642109e-05
-1.1456141e-07
1.1015516e-12
-2.314498e-05
-4.9712746e-07
-1.5313921e-12
-2.2262549e-05
-8.8242627e-07
-4.2791325e-12
-2.1006596e-05
-1.2559465e-06
-7.0408015e-12
-1.9404845e-05
-1.6017417e-06
-9.6509506e-12
-1.7501539e-05
-1.9032931e-06
-1.1916678e-11
-1.5356955e-05
-2.1445692e-06
-1.3693711e-11
-1.3045742e-05
-2.311196e-06
-1.4931611e-11
-1.065409e-05
-2.3916367e-06
-1.5628689e-11
-8.2758098e-06
-2.3782657e-06
-1.5717587e-11
-6.0075655e-06
-2.2682302e-06
-1.502104e-11
-3.9435322e-06
-2.0640186e-06
-1.3384389e-11
-2.1697849e-06
-1.7737334e-06
-1.0882987e-11
-7.5853867e-07
-1.4112367e-06
-7.8441157e-12
2.3820942e-07
-9.9674513e-07
-4.7300215e-12
7.9653977e-07
-5.5833243e-07
-2.0823216e-12
9.2926725e-07
-1.3272843e-07
1.097297e-12
7.0556957e-07
2.2369666e-07
5.3421363e-12
2.9045487e-07
4.1511231e-07
9.9608514e-12
2.9045675e-07
3.654236e-12
1.3278152e-07
-4.1521308e-07
-2.3988248e-11
-3.0178803e-07
3.0633782e-07
-1.5218626e-11
-1.6154783e-06
1.5844359e-06
-1.3179703e-11
-3.8747609e-06
2.9541414e-06
-1.3813211e-11
-7.0073751e-06
4.2096145e-06
-1.4876367e-11
-1.0879768e-05
5.2607057e-06
-1.635363e-11
-1.5335167e-05
6.0802458e-06
-1.774588e-11
-2.0215992e-05
6.6734621e-06
-1.8744023e-11
-2.5374039e-05
7.0583778e-06
-1.9292535e-11
-3.067324e-05
7.2552251e-06
-1.9404817e-11
-3.5988497e-05
7.2812196e-06
-1.9100089e-11
-4.1202775e-05
7.1484601e-06
-1.8397535e-11
-4.6203909e-05
6.8637935e-06
-1.7317728e-11
-5.0882029e-05
6.4299091e-06
-1.5876005e-11
-5.5128154e-05
5.8471519e-06
-1.4073287e-11
-5.8834235e-05
5.1156846e-06
-1.1902395e-11
-6.1894714e-05
4.2377269e-06
-9.3693107e-12
-6.4209517e-05
3.2196621e-06
-6.5193157e-12
-6.5688265e-05
2.0738433e-06
-3.4037238e-12
-6.6255374e-05
8.1993881e-07
-8.8143353e-14
-6.5855891e-05
-5.1404821e-07
3.3776271e-12
-6.446072e-05
-1.8923055e-06
6.9791116e-12
-6.2072393e-05
-3.2707623e-06
1.0558023e-11
-5.8729011e-05
-4.5993414e-06
1.3935492e-11
-5.4507006e-05
-5.8237624e-06
1.6924131e-11
-4.9521845e-05
-6.8884736e-06
1.9402056e-11
-4.3926347e-05
-7.7400889e-06
2.134494e-11
-3.7906409e-05
-8.3311555e-06
2.2748117e-11
-3.1674111e-05
-8.6239571e-06
2.3499605e-11
-2.5458375e-05
-8.5940218e-06
2.336992e-11
-1.9493595e-05
-8.2330316e-06
2.2203139e-11
-1.4006713e-05
-7.5509228e-06
2.0146215e-11
-9.2032898e-06
-6.5771763e-06
1.7611091e-11
-5.2529064e-06
-5.3616344e-06
1.4916703e-11
-2.2739857e-06
-3.9756735e-06
1.198428e-11
-3.1727725e-07
-2.5150453e-06
8.4430952e-12
6.5705059e-07
-1.1070633e-06
3.9972674e-12
8.0366435e-07
7.7073308e-08
1.8471939e-12
4.178371e-07
8.0092722e-07
3.2124246e-12
7.0829885e-07
-2.6043656e-12
-2.7362983e-07
-1.4156993e-07
-1.3232896e-11
-1.6275481e-06
1.6602643e-06
-8.0402735e-12
-4.2894643e-06
4.2463618e-06
-9.2948774e-12
-8.2747226e-06
6.9394078e-06
-7.7950136e-12
-1.3474444e-05
9.4093424e-06
-5.743946e-12
-1.9708729e-05
1.1494995e-05
-4.6129219e-12
-2.6765739e-05
1.3137261e-05
-3.884122e-12
-3.4426587e-05
1.4334314e-05
-3.2823542e-12
-4.2478583e-05
1.5110378e-05
-2.7727801e-12
-5.0720386e-05
1.549703e-05
-2.3209083e-12
-5.8962214e-05
1.552305e-05
-1.8923042e-12
-6.7023594e-05
1.5209842e-05
-1.4647928e-12
-7.4730422e-05
1.4570622e-05
-1.0303626e-12
-8.1912597e-05
1.3612085e-05
-5.9576166e-13
-8.8403014e-05
1.233757e-05
-1.7177452e-13
-9.4038334e-05
1.0751004e-05
2.41905e-13
-9.8661646e-05
8.8610391e-06
6.5579068e-13
-0.00010212694
6.6849556e-06
1.0641603e-12
-0.00010430507
4.2519709e-06
1.4406276e-12
-0.00010509085
1.6057153e-06
1.7461097e-12
-0.00010441049
-1.194409e-06
1.9730608e-12
-0.00010222931
-4.0734856e-06
2.143284e-12
-9.8558381e-05
-6.9416931e-06
2.2964677e-12
-9.3459875e-05
-9.697849e-06
2.4492987e-12
-8.7050278e-05
-1.2233361e-05
2.5525065e-12
-7.9500898e-05
-1.4437856e-05
2.5268238e-12
-7.1035197e-05
-1.6205791e-05
2.3655236e-12
-6.1922656e-05
-1.7443699e-05
2.1953152e-12
-5.2469091e-05
-1.8077523e-05
2.1870209e-12
-4.3003635e-05
-1.8059479e-05
2.3629542e-12
-3.3862793e-05
-1.7373875e-05
2.519521e-12
-2.5372213e-05
-1.6041505e-05
2.4357673e-12
-1.782688e-05
-1.4122511e-05
2.1987384e-12
-1.1470406e-05
-1.171811e-05
2.2134901e-12
-6.473865e-06
-8.9722174e-06
2.7474405e-12
-2.9140466e-06
-6.0748659e-06
3.4303489e-12
-7.5123538e-07
-3.2698754e-06
3.4254104e-12
1.9434887e-07
-8.6850934e-07
3.4203861e-12
2.6549464e-07
7.2977375e-07
4.6735889e-12
9.7379523e-07
6.1308477e-13
-7.4587058e-07
6.0431408e-07
-1.3339314e-11
-3.1796765e-06
4.0940725e-06
-1.9489872e-12
-7.346148e-06
8.412841e-06
-7.373931e-12
-1.3163092e-05
1.2756359e-05
-6.6889997e-12
-2.045584e-05
1.6702094e-05
-4.0247005e-12
-2.8992638e-05
2.0031796e-05
-2.647509e-12
-3.8513858e-05
2.2658483e-05
-1.7336979e-12
-4.8752635e-05
2.4573092e-05
-9.220496e-13
-5.9446919e-05
2.5804662e-05
-2.5323905e-13
-7.0344748e-05
2.639486e-05
2.8926378e-13
-8.1205021e-05
2.6383323e-05
7.4102967e-13
-9.1795854e-05
2.5800674e-05
1.1246362e-12
-0.00010189227
2.4667033e-05
1.4565046e-12
-0.00011127447
2.2994285e-05
1.7397338e-12
-0.0001197276
2.0790705e-05
1.9595857e-12
-0.00012704342
1.8066817e-05
2.0990086e-12
-0.00013302396
1.4841578e-05
2.159567e-12
-0.00013748721
1.1148204e-05
2.155643e-12
-0.00014027431
7.0390642e-06
2.0946959e-12
-0.00014125785
2.589253e-06
1.9637896e-12
-0.00014035057
-2.1016856e-06
1.7432662e-12
-0.00013751419
-6.9098677e-06
1.3872058e-12
-0.00013276684
-1.1689044e-05
9.4183044e-13
-0.00012618913
-1.6275552e-05
5.0082583e-13
-0.00011792773
-2.0494768e-05
1.3686798e-13
-0.00010819577
-2.4169812e-05
-1.7036685e-13
-9.7269753e-05
-2.7131808e-05
-5.1423348e-13
-8.5482312e-05
-2.9231138e-05
-9.2476128e-13
-7.3210868e-05
-3.0348965e-05
-1.2497364e-12
-6.0862204e-05
-3.0408142e-05
-1.2375335e-12
-4.8853406e-05
-2.9382672e-05
-8.0858737e-13
-3.7589872e-05
-2.7305038e-05
-2.1283985e-13
-2.7441296e-05
-2.4271086e-05
2.0787411e-13
-1.8716683e-05
-2.0442724e-05
4.6020636e-13
-1.1639455e-05
-1.6049447e-05
9.5778037e-13
-6.3235746e-06
-1.1390749e-05
2.0141417e-12
-2.7515425e-06
-6.8419111e-06
3.3489871e-12
-7.5715631e-07
-2.8628985e-06
4.1594986e-12
-9.5295539e-09
-1.786118e-08
4.2530849e-12
9.6426461e-07
3.4636309e-12
-1.227979e-06
1.8323079e-06
-1.4752406e-11
-4.7881328e-06
7.6542225e-06
4.1312575e-12
-1.0521567e-05
1.4146282e-05
-6.4271739e-12
-1.8214349e-05
2.0449149e-05
-7.5139623e-12
-2.7603936e-05
2.6091687e-05
-5.114501e-12
-3.8396273e-05
3.0824138e-05
-4.3641573e-12
-5.0283006e-05
3.454522e-05
-3.9986041e-12
-6.2954707e-05
3.7244798e-05
-3.5148328e-12
-7.6108934e-05
3.8958893e-05
-3.0424852e-12
-8.9453644e-05
3.9739572e-05
-2.6052951e-12
-0.00010270732
3.9636998e-05
-2.1803628e-12
-0.00011559735
3.8690711e-05
-1.7613245e-12
-0.00012785814
3.6927826e-05
-1.3398709e-12
-0.00013922998
3.436612e-05
-9.0311332e-13
-0.00014945951
3.1020238e-05
-4.5199466e-13
-0.00015830222
2.690953e-05
-8.4776689e-15
-0.00016552697
2.2066332e-05
4.0455591e-13
-0.00017092248
1.6543705e-05
7.8343242e-13
-0.00017430532
1.0421907e-05
1.1464557e-12
-0.00017552908
3.8130153e-06
1.5112619e-12
-0.00017449386
-3.1369078e-06
1.8634473e-12
-0.00017115563
-1.0248102e-05
2.1371244e-12
-0.00016553456
-1.7310114e-05
2.2798386e-12
-0.00015772168
-2.4088436e-05
2.3070547e-12
-0.00014788299
-3.0333456e-05
2.315701e-12
-0.00013626041
-3.5792392e-05
2.3997245e-12
-0.0001231688
-4.0223423e-05
2.5316535e-12
-0.00010898858
-4.3411358e-05
2.5578042e-12
-9.4153691e-05
-4.5183859e-05
2.3739472e-12
-7.9134766e-05
-4.5427069e-05
2.1172317e-12
-6.4417997e-05
-4.4099444e-05
2.0973613e-12
-5.0480318e-05
-4.1242719e-05
2.4511592e-12
-3.7762107e-05
-3.69893e-05
2.9037117e-12
-2.6638804e-05
-3.1566029e-05
3.0141861e-12
-1.7393162e-05
-2.529509e-05
2.7273528e-12
-1.0189913e-05
-1.8594001e-05
2.6867183e-12
-5.0547384e-06
-1.197709e-05
3.6106151e-12
-1.8598384e-06
-6.057802e-06
3.6801593e-12
-3.2223458e-07
-1.5554634e-06
5.1291772e-13
6.4202333e-07
5.7478943e-12
-1.6931733e-06
3.5254985e-06
-1.7197831e-11
-6.3714188e-06
1.2332459e-05
9.5979008e-12
-1.3671458e-05
2.1446327e-05
-5.4190601e-12
-2.3234053e-05
3.0011751e-05
-7.5789591e-12
-3.4695217e-05
3.7552856e-05
-4.8510408e-12
-4.7689771e-05
4.3818697e-05
-4.276379e-12
-6.1857444e-05
4.8712899e-05
-4.1394358e-12
-7.6847958e-05
5.2235315e-05
-3.7636233e-12
-9.2323731e-05
5.4434669e-05
-3.352013e-12
-0.0001079601
5.5375948e-05
-2.9553287e-12
-0.00012344377
5.5120668e-05
-2.5491533e-12
-0.00013847047
5.3717413e-05
-2.1345901e-12
-0.00015274298
5.1200335e-05
-1.7178719e-12
-0.00016597027
4.7593413e-05
-1.290008e-12
-0.00017786845
4.2918421e-05
-8.3502613e-13
-0.00018816375
3.7204828e-05
-3.5470448e-13
-0.00019659757
3.0500161e-05
1.2497516e-13
-0.00020293351
2.2879645e-05
5.710238e-13
-0.00020696582
1.4454208e-05
9.7200576e-13
-0.00020852897
5.3761706e-06
1.3497573e-12
-0.0002075078
-4.158079e-06
1.7347682e-12
-0.00020384737
-1.3908532e-05
2.1239411e-12
-0.00019756218
-2.3595311e-05
2.4455449e-12
-0.0001887437
-3.2906919e-05
2.6152692e-12
-0.00017756564
-4.1511514e-05
2.6301838e-12
-0.00016428603
-4.9072e-05
2.6098448e-12
-0.00014924531
-5.5264146e-05
2.6980788e-12
-0.00013285973
-5.9796942e-05
2.8909332e-12
-0.00011560953
-6.2434062e-05
2.9943503e-12
-9.8021645e-05
-6.3014958e-05
2.8349084e-12
-8.0647136e-05
-6.1473955e-05
2.5336726e-12
-6.403411e-05
-5.7855747e-05
2.4627058e-12
-4.8697399e-05
-5.2326014e-05
2.8178408e-12
-3.5086871e-05
-4.517656e-05
3.270826e-12
-2.3556656e-05
-3.6825307e-05
3.2608834e-12
-1.4337858e-05
-2.7812802e-05
3.076239e-12
-7.5174815e-06
-1.879747e-05
3.9578962e-12
-3.0267242e-06
-1.0548562e-05
3.4443209e-12
-6.4249403e-07
-3.9396901e-06
-1.9869193e-12
-4.7927714e-10
8.2955126e-12
-2.1329379e-06
5.6584565e-06
-1.9939544e-11
-7.8910748e-06
1.8090582e-05
1.4429065e-11
-1.6717395e-05
3.0272652e-05
-4.6431651e-12
-2.8105716e-05
4.140008e-05
-7.605058e-12
-4.1585042e-05
5.1032188e-05
-4.3787803e-12
-5.6714063e-05
5.8947721e-05
-3.8442512e-12
-7.3078176e-05
6.5077016e-05
-3.842752e-12
-9.0286954e-05
6.9444097e-05
-3.5212094e-12
-0.00010797116
7.2118874e-05
-3.1423548e-12
-0.00012577907
7.3183863e-05
-2.7790368e-12
-0.00014337251
7.2714111e-05
-2.3993533e-12
-0.00016042315
7.076806e-05
-1.9993895e-12
-0.0001766099
6.738708e-05
-1.594921e-12
-0.00019161782
6.260134e-05
-1.1948773e-12
-0.00020513917
5.6439776e-05
-7.8766157e-13
-0.00021687648
4.8942138e-05
-3.5462185e-13
-0.00022654778
4.0171456e-05
1.0608127e-13
-0.00023389369
3.0225558e-05
5.6597574e-13
-0.00023868613
1.924664e-05
9.804953e-13
-0.00024073805
7.4280915e-06
1.324886e-12
-0.000239914
-4.982127e-06
1.6206839e-12
-0.00023614067
-1.7681866e-05
1.9279809e-12
-0.00022941713
-3.0318847e-05
2.2555567e-12
-0.00021982384
-4.2500214e-05
2.5322299e-12
-0.00020752963
-5.3805729e-05
2.6444867e-12
-0.00019279583
-6.3805798e-05
2.565142e-12
-0.00017597646
-7.2083517e-05
2.4345784e-12
-0.00015751343
-7.8259977e-05
2.4554083e-12
-0.00013792595
-8.2021544e-05
2.661495e-12
-0.00011779358
-8.3147329e-05
2.8280256e-12
-9.773284e-05
-8.15347e-05
2.7150697e-12
-7.8368038e-05
-7.7220551e-05
2.4291075e-12
-6.02978e-05
-7.0396255e-05
2.3897612e-12
-4.4059478e-05
-6.1414885e-05
2.7597904e-12
-3.00944e-05
-5.0790388e-05
3.0733862e-12
-1.8717246e-05
-3.9189958e-05
3.2801625e-12
-1.0093042e-05
-2.7421679e-05
4.5540767e-12
-4.2253068e-06
-1.6416301e-05
3.3927685e-12
-9.584841e-07
-7.2065074e-06
-4.845636e-12
-9.5897383e-07
1.0315538e-11
-2.5450523e-06
8.2035318e-06
-2.2704499e-11
-9.3288368e-06
2.4874348e-05
1.8737662e-11
-1.961534e-05
4.055916e-05
-4.1336223e-12
-3.2756807e-05
5.4541554e-05
-7.843973e-12
-4.8175819e-05
6.6451204e-05
-4.1528983e-12
-6.5353994e-05
7.61259e-05
-3.6655054e-12
-8.382201e-05
8.3545037e-05
-3.8067138e-12
-0.00010315046
8.877255e-05
-3.5539394e-12
-0.00012294142
9.190984e-05
-3.2202603e-12
-0.00014282072
9.3063165e-05
-2.9006574e-12
-0.00016243107
9.2324468e-05
-2.5606512e-12
-0.00018142658
8.9763564e-05
-2.185117e-12
-0.00019946892
8.5429422e-05
-1.7822772e-12
-0.00021622569
7.9358112e-05
-1.3720223e-12
-0.00023137093
7.1585015e-05
-9.6652567e-13
-0.00024458793
6.2159141e-05
-5.5602824e-13
-0.00025557419
5.1157717e-05
-1.1766508e-13
-0.00026404826
3.8699632e-05
3.5815794e-13
-0.00026975826
2.4956638e-05
8.4342714e-13
-0.00027249168
1.0161514e-05
1.2778671e-12
-0.00027208628
-5.3875352e-06
1.6139788e-12
-0.00026844133
-2.1326813e-05
1.885139e-12
-0.00026152937
-3.7230807e-05
2.1538444e-12
-0.00025140704
-5.2622552e-05
2.4653116e-12
-0.00023822465
-6.6988118e-05
2.7526905e-12
-0.00022223334
-7.9797114e-05
2.8690421e-12
-0.00020378837
-9.052849e-05
2.7520676e-12
-0.00018334738
-9.8700959e-05
2.5517877e-12
-0.0001614622
-0.00010390673
2.5243608e-12
-0.0001387631
-0.00010584644
2.7416676e-12
-0.00011593521
-0.00010436259
2.9564511e-12
-9.368744e-05
-9.9468322e-05
2.889684e-12
-7.2715354e-05
-9.1368343e-05
2.6556813e-12
-5.3660688e-05
-8.0469553e-05
2.61914e-12
-3.7071045e-05
-6.7380032e-05
2.7645141e-12
-2.3363924e-05
-5.2897082e-05
3.2609358e-12
-1.2799304e-05
-3.7986303e-05
5.1832744e-12
-5.4648736e-06
-2.3750735e-05
3.4403795e-12
-1.2772539e-06
-1.1394119e-05
-7.8213677e-12
-2.2362398e-06
1.2720236e-11
-2.9284777e-06
1.1132035e-05
-2.5405718e-11
-1.0673656e-05
3.2619504e-05
2.2596412e-11
-2.2336141e-05
5.2221649e-05
-3.7934069e-12
-3.7135918e-05
6.934134e-05
-8.181434e-12
-5.4394024e-05
8.3709314e-05
-4.0468177e-12
-7.3517508e-05
9.5249388e-05
-3.5914738e-12
-9.3984145e-05
0.00010401168
-3.8578745e-12
-0.00011532777
0.00011011618
-3.666655e-12
-0.00013712495
0.00011370702
-3.3724093e-12
-0.00015898326
0.00011492149
-3.0884698e-12
-0.00018053148
0.00011387268
-2.7864071e-12
-0.00020141181
0.0001106439
-2.4486646e-12
-0.00022127467
0.00010529228
-2.0671096e-12
-0.00023977579
9.7859239e-05
-1.6487305e-12
-0.00025657596
8.838519e-05
-1.2167496e-12
-0.00027134303
7.692621e-05
-7.9013317e-13
-0.00028375614
6.3570831e-05
-3.6437694e-13
-0.00029351198
4.845547e-05
8.8716597e-14
-0.00030033277
3.1777424e-05
5.9065611e-13
-0.00030397591
1.3804654e-05
1.1130794e-12
-0.00030424513
-5.1183143e-06
1.5748796e-12
-0.00030100254
-2.45694e-05
1.9353363e-12
-0.00029418211
-4.4051247e-05
2.1815433e-12
-0.00028380286
-6.3001798e-05
2.4102665e-12
-0.00026998185
-8.0809137e-05
2.7026617e-12
-0.00025294516
-9.6833807e-05
3.0023547e-12
-0.0002330357
-0.00011043795
3.1343203e-12
-0.00021071574
-0.00012102092
2.9985331e-12
-0.00018656244
-0.00012806003
2.7460551e-12
-0.00016125464
-0.00013115425
2.6725594e-12
-0.00013554982
-0.00013006741
2.8742758e-12
-0.00011025135
-0.00012476679
3.0980592e-12
-8.6167289e-05
-0.00011545241
3.0738353e-12
-6.4063665e-05
-0.00010257318
2.8539207e-12
-4.4616622e-05
-8.6827077e-05
2.6073225e-12
-2.8368501e-05
-6.9145206e-05
3.0719669e-12
-1.5693138e-05
-5.0661671e-05
5.6653101e-12
-6.7752153e-06
-3.2668661e-05
3.5317127e-12
-1.6070324e-06
-1.6562292e-05
-1.0781881e-11
-3.843287e-06
1.5251967e-11
-3.2816942e-06
1.4413757e-05
-2.798277e-11
-1.191585e-05
4.1253635e-05
2.6035846e-11
-2.485547e-05
6.5161273e-05
-3.5797796e-12
-4.119985e-05
8.5685728e-05
-8.5689067e-12
-6.0176209e-05
0.00010268568
-4.0076525e-12
-8.1122113e-05
0.0001161953
-3.5681876e-12
-0.00010346613
0.0001263557
-3.9392224e-12
-0.00012670867
0.00013335872
-3.8006597e-12
-0.00015040439
0.00013740275
-3.5416571e-12
-0.00017414685
0.00013866394
-3.283904e-12
-0.00019755562
0.00013728146
-3.0049095e-12
-0.00022026632
0.00013335461
-2.6994596e-12
-0.0002419235
0.00012694945
-2.3569974e-12
-0.00026217626
0.00011811201
-1.9628005e-12
-0.00028067673
0.00010688566
-1.52052e-12
-0.00029708085
9.3330327e-05
-1.0566584e-12
-0.00031105149
7.7541473e-05
-6.0044214e-13
-0.00032226367
5.966765e-05
-1.548049e-13
-0.00033041172
3.9925481e-05
3.1266245e-13
-0.00033521849
1.8611426e-05
8.2624598e-13
-0.00033644666
-3.8901514e-06
1.3538129e-12
-0.00033391127
-2.7104787e-05
1.8900182e-12
-0.00032749552
-5.0466998e-05
2.2676197e-12
-0.00031716646
-7.3330865e-05
2.4878727e-12
-0.00030299191
-9.4983693e-05
2.6675728e-12
-0.00028515646
-0.00011466925
2.9214329e-12
-0.00026397485
-0.00013161957
3.2127491e-12
-0.00023990032
-0.00014509545
3.3483895e-12
-0.00021352557
-0.00015443478
3.1981758e-12
-0.00018557356
-0.00015910626
2.9114764e-12
-0.0001568764
-0.00015876458
2.8029117e-12
-0.00012834149
-0.0001533017
2.9798406e-12
-0.00010090595
-0.00014288794
3.20317e-12
-7.5482392e-05
-0.00012799674
3.1386319e-12
-5.2901091e-05
-0.00010940838
2.674558e-12
-3.3855079e-05
-8.819122e-05
2.9484545e-12
-1.8854766e-05
-6.566199e-05
6.0626458e-12
-8.1982561e-06
-4.3325174e-05
3.5411261e-12
-1.9611616e-06
-2.2799372e-05
-1.3938702e-11
-5.8044665e-06
1.7961103e-11
-3.6022964e-06
1.8016084e-05
-3.0384447e-11
-1.3044849e-05
5.0696159e-05
2.9068136e-11
-2.7149242e-05
7.9265669e-05
-3.4755977e-12
-4.4907092e-05
0.00010344359
-9.0003177e-12
-6.5461393e-05
0.00012323998
-4.0417716e-12
-8.8087082e-05
0.00013882099
-3.6071198e-12
-0.00011216861
0.00015043723
-4.0652971e-12
-0.00013717719
0.0001583673
-3.9731219e-12
-0.00016264961
0.00016287518
-3.7528501e-12
-0.00018816962
0.00016418396
-3.5255543e-12
-0.0002133523
0.00016246413
-3.2619607e-12
-0.00023783165
0.00015783397
-2.9692398e-12
-0.0002612515
0.00015036931
-2.6543315e-12
-0.00028325939
0.00014011991
-2.3017139e-12
-0.00030350336
0.00012712963
-1.889921e-12
-0.00032163118
0.00011145815
-1.4172446e-12
-0.00033729195
9.3202244e-05
-9.1190508e-13
-0.00035013988
7.251558e-05
-4.1515622e-13
-0.00035984028
4.9625887e-05
5.7091213e-14
-0.00036607792
2.4849063e-05
5.2056654e-13
-0.00036856847
-1.3996069e-06
9.8819522e-13
-0.00036707086
-2.86024e-05
1.6413149e-12
-0.0003614059
-5.6131958e-05
2.2118988e-12
-0.00035147413
-8.3262635e-05
2.6063192e-12
-0.0003372774
-0.00010918042
2.8094417e-12
-0.00031894051
-0.00013300615
2.9391876e-12
-0.00029673139
-0.0001538287
3.141542e-12
-0.00027107694
-0.0001707499
3.4008584e-12
-0.00024257134
-0.00018294038
3.5164496e-12
-0.00021197303
-0.00018970458
3.3446628e-12
-0.00018018739
-0.00019055022
3.0375299e-12
-0.00014823315
-0.00018525595
2.9193037e-12
-0.00011719263
-0.00017392847
3.0952493e-12
-8.8148855e-05
-0.00015704052
3.2116044e-12
-6.2115317e-05
-0.00013544192
2.7793913e-12
-3.9966448e-05
-0.00011034009
2.9810272e-12
-2.2377587e-05
-8.3250857e-05
6.5658993e-12
-9.7826805e-06
-5.5920083e-05
3.503031e-12
-2.354694e-06
-3.022734e-05
-1.747088e-11
-8.1591815e-06
2.0983793e-11
-3.8870432e-06
2.190316e-05
-3.2569076e-11
-1.4048635e-05
6.0857719e-05
3.1694938e-11
-2.9192002e-05
9.4409041e-05
-3.4578713e-12
-4.8215181e-05
0.00012246678
-9.4596826e-12
-7.0187722e-05
0.00014521253
-4.1467681e-12
-9.4329902e-05
0.00016296317
-3.711415e-12
-0.00011998801
0.00017609535
-4.2393759e-12
-0.00014660884
0.00018498813
-4.1821678e-12
-0.0001737156
0.00018998194
-3.9990284e-12
-0.00020088653
0.0001913549
-3.8127955e-12
-0.00022773672
0.00018931433
-3.5763663e-12
-0.00025390341
0.00018400066
-3.2912448e-12
-0.00027903477
0.00017550067
-2.9795941e-12
-0.00030278187
0.000163867
-2.6484683e-12
-0.00032479349
0.00014914126
-2.2808607e-12
-0.00034471355
0.00013137821
-1.8484182e-12
-0.00036218075
0.00011066945
-1.3405051e-12
-0.00037683062
8.7165451e-05
-7.8639302e-13
-0.0003882999
6.1095166e-05
-2.4116658e-13
-0.00039623376
3.2782921e-05
2.755009e-13
-0.00040029587
2.6625078e-06
8.1372708e-13
-0.00040018338
-2.8714895e-05
1.3224066e-12
-0.00039564357
-6.067177e-05
1.9319159e-12
-0.00038649689
-9.2409314e-05
2.5256695e-12
-0.00037266219
-0.00012301513
2.945597e-12
-0.00035418456
-0.00015148378
3.1381035e-12
-0.00033126342
-0.00017674985
3.2222897e-12
-0.00030427749
-0.00019773583
3.3654912e-12
-0.00027380268
-0.00021341519
3.5669472e-12
-0.00024061804
-0.00022288923
3.6289694e-12
-0.00020569496
-0.0002254733
3.4186239e-12
-0.0001701662
-0.00022078472
3.1151569e-12
-0.00013527303
-0.00020882164
3.0416666e-12
-0.00010229321
-0.00019002034
3.1065032e-12
-7.2455856e-05
-0.00016527928
2.7228097e-12
-4.6853244e-05
-0.00013594271
3.0385475e-12
-2.6361336e-05
-0.00010374277
7.2503756e-12
-1.158043e-05
-7.0700992e-05
3.5181298e-12
-2.8033117e-06
-3.9004436e-05
-2.1483706e-11
-1.0962517e-05
2.4422261e-11
-4.1321095e-06
2.6035305e-05
-3.4500779e-11
-1.4914071e-05
7.1639647e-05
3.3901667e-11
-3.0957078e-05
0.00011045205
-3.5042766e-12
-5.1080569e-05
0.00014259028
-9.9213898e-12
-7.4292151e-05
0.00016842411
-4.3083093e-12
-9.9765963e-05
0.00018843699
-3.8751798e-12
-0.00012681649
0.00020314588
-4.4614567e-12
-0.00015487106
0.00021304271
-4.4267579e-12
-0.00018344365
0.00021855454
-4.2678108e-12
-0.00021211118
0.00022002242
-4.1208527e-12
-0.00024049308
0.00021769624
-3.927385e-12
-0.00026823454
0.00021174212
-3.6696453e-12
-0.0002949931
0.00020225923
-3.3611552e-12
-0.0003204286
0.00018930251
-3.0238939e-12
-0.00034419593
0.0001729086
-2.6696114e-12
-0.00036594025
0.00015312253
-2.2829474e-12
-0.00038529455
0.00013002375
-1.8282464e-12
-0.0004018795
0.00010375041
-1.2846447e-12
-0.00041530593
7.452159e-05
-6.7893035e-13
-0.00042518026
4.2657252e-05
-5.9923285e-14
-0.00043111346
8.5957071e-06
5.487946e-13
-0.00043273572
-2.7092633e-05
1.0206041e-12
-0.00042971367
-6.3693817e-05
1.5738274e-12
-0.00042177571
-0.00010034728
2.215922e-12
-0.00040874127
-0.00013604958
2.8392317e-12
-0.00039055496
-0.00016967009
3.2771101e-12
-0.00036732311
-0.0001999817
3.4579456e-12
-0.00033934944
-0.0002257095
3.4981409e-12
-0.00030716504
-0.00024559959
3.5725028e-12
-0.00027154655
-0.00025850773
3.6852842e-12
-0.00023351576
-0.00026350408
3.6563327e-12
-0.00019431478
-0.00025998571
3.412646e-12
-0.00015535275
-0.00024778367
3.1787033e-12
-0.00011812514
-0.00022724795
3.033188e-12
-8.4111743e-05
-0.00019929268
2.5221871e-12
-5.4665424e-05
-0.00016538903
2.9876307e-12
-3.0907309e-05
-0.00012750089
8.0575276e-12
-1.3644683e-05
-8.7963621e-05
3.6182902e-12
-3.3229885e-06
-4.9326104e-05
-2.6060204e-11
-1.4285534e-05
2.8400908e-11
-4.333447e-06
3.0368788e-05
-3.6141309e-11
-1.5627769e-05
8.2933934e-05
3.5661724e-11
-3.2417858e-05
0.00012724215
-3.6028526e-12
-5.3460223e-05
0.00016363265
-1.036272e-11
-7.7712338e-05
0.00019267624
-4.5071767e-12
-0.00010431084
0.0002150355
-4.0836172e-12
-0.00013254471
0.00023137975
-4.7257108e-12
-0.00016182669
0.00024232469
-4.7112782e-12
-0.0001916656
0.00024839345
-4.5639152e-12
-0.00022164093
0.00024999776
-4.4385935e-12
-0.00025138062
0.00024743593
-4.2835167e-12
-0.00028054226
0.00024090377
-4.0718142e-12
-0.0003087978
0.00023051478
-3.7946568e-12
-0.00033582135
0.00021632606
-3.459081e-12
-0.00036127972
0.00019836698
-3.0892605e-12
-0.00038482548
0.00017666829
-2.7048813e-12
-0.00040609207
0.00015129034
-2.2944106e-12
-0.00042469129
0.00012234963
-1.8163227e-12
-0.00044021335
9.0043652e-05
-1.2360708e-12
-0.00045223015
5.4674053e-05
-5.6608859e-13
-0.00046030254
1.6668095e-05
1.2645171e-13
-0.00046399309
-2.3402087e-05
7.2134194e-13
-0.00046288401
-6.4802896e-05
1.2768636e-12
-0.00045660295
-0.00010662834
1.8662516e-12
-0.00044485564
-0.00014779688
2.5254571e-12
-0.00042746571
-0.00018706003
3.1613571e-12
-0.00040441982
-0.00022302758
3.5976764e-12
-0.00037591524
-0.00025421408
3.7530553e-12
-0.00034240425
-0.00027911059
3.7397834e-12
-0.00030462833
-0.00029628365
3.7242173e-12
-0.00026363312
-0.00030449929
3.7105042e-12
-0.00022075491
-0.00030286392
3.5851468e-12
-0.00017757146
-0.00029096713
3.3777343e-12
-0.00013581488
-0.00026900453
3.080299e-12
-9.7251837e-05
-0.00023785573
2.3133416e-12
-6.3544776e-05
-0.00019909609
2.8384074e-12
-3.6114655e-05
-0.00015493102
8.9302272e-12
-1.6028542e-05
-0.00010804974
3.7580642e-12
-3.9298319e-06
-6.1424783e-05
-3.1324881e-11
-1.8215399e-05
3.306107e-11
-4.4872168e-06
3.4856042e-05
-3.7449354e-11
-1.61773e-05
9.462398e-05
3.6951428e-11
-3.354985e-05
0.0001446147
-3.7486152e-12
-5.5314474e-05
0.00018539729
-1.0771494e-11
-8.0390252e-05
0.00021775202
-4.7303742e-12
-0.00010788465
0.0002425299
-4.3190189e-12
-0.00013706706
0.00026056217
-5.0146422e-12
-0.00016734004
0.00027259768
-5.0286444e-12
-0.00019821093
0.00027926434
-4.8950273e-12
-0.00022926531
0.00028105214
-4.7769357e-12
-0.00026014334
0.00027831397
-4.6366005e-12
-0.0002905193
0.00027127974
-4.4598997e-12
-0.00032008444
0.00026007992
-4.2318354e-12
-0.00034853276
0.00024477439
-3.9336289e-12
-0.0003755495
0.00022538372
-3.5664248e-12
-0.00040080174
0.00020192053
-3.1574233e-12
-0.00042393114
0.00017441975
-2.7350817e-12
-0.00044454884
0.00014296733
-2.2937231e-12
-0.00046223275
0.00010772756
-1.7855704e-12
-0.00047652815
6.8969463e-05
-1.1604996e-12
-0.00048695241
2.7092352e-05
-4.2949204e-13
-0.00049300518
-1.7349319e-05
3.1041228e-13
-0.00049418518
-6.3622892e-05
9.8500285e-13
-0.00049001538
-0.00011079815
1.5929802e-12
-0.00048007732
-0.00015773495
2.2094159e-12
-0.00046405526
-0.00020308209
2.8759904e-12
-0.00044178937
-0.00024529348
3.4982727e-12
-0.00041333539
-0.00028266806
3.8993325e-12
-0.00037902563
-0.00031342035
4.0003653e-12
-0.00033952304
-0.00033578625
3.9054839e-12
-0.00029585726
-0.00034816508
3.7619349e-12
-0.00024942957
-0.0003492916
3.6153773e-12
-0.00020197479
-0.00033842192
3.4707036e-12
-0.0001554727
-0.00031550662
3.1445891e-12
-0.00011201149
-0.00028131694
2.1388816e-12
-7.3617427e-05
-0.00023749015
2.6700294e-12
-4.2076964e-05
-0.0001864715
9.9002373e-12
-1.8783985e-05
-0.00013134272
3.8997466e-12
-4.640006e-06
-7.5568724e-05
-3.743921e-11
-2.2855443e-05
3.8527979e-11
-4.590277e-06
3.9446358e-05
-3.839171e-11
-1.6552667e-05
0.00010658633
3.7759309e-11
-3.4333304e-05
0.00016239534
-3.9327327e-12
-5.6610813e-05
0.00020767481
-1.1141074e-11
-8.2277079e-05
0.00024341829
-4.9763125e-12
-0.00011041805
0.00027067087
-4.5742673e-12
-0.00014028874
0.00029043287
-5.3111629e-12
-0.0001712853
0.00030359425
-5.3578915e-12
-0.00020291664
0.00031089569
-5.2504828e-12
-0.00023477741
0.00031291292
-5.1444879e-12
-0.00026652328
0.00031005984
-5.0033788e-12
-0.00029784912
0.00030260559
-4.8306083e-12
-0.00032847025
0.00029070105
-4.6299852e-12
-0.00035810634
0.00027441049
-4.3811031e-12
-0.00038646786
0.00025374524
-4.0568925e-12
-0.00041324445
0.00022869713
-3.6527007e-12
-0.00043809526
0.00019927056
-3.1973273e-12
-0.0004606411
0.00016551317
-2.7274168e-12
-0.00048045889
0.00012754536
-2.2433812e-12
-0.00049707903
8.5589604e-05
-1.6932567e-12
-0.00050998677
4.000009e-05
-1.0197796e-12
-0.00051862896
-8.707124e-06
-2.3216384e-13
-0.00052242792
-5.9823929e-05
5.7739119e-13
-0.00052080422
-0.00011242185
1.3201445e-12
-0.0005132105
-0.00016532866
1.9801597e-12
-0.00049917784
-0.00021711476
2.6211459e-12
-0.00047837513
-0.00026609619
3.2746766e-12
-0.00045068025
-0.00031036295
3.8433584e-12
-0.00041625859
-0.00034784202
4.1606027e-12
-0.00037564057
-0.00037640427
4.1577981e-12
-0.00032978506
-0.00039402059
3.9295008e-12
-0.00028011168
-0.00039896499
3.6480053e-12
-0.00022848354
-0.00039005006
3.4546323e-12
-0.00017712602
-0.00036686415
3.1062011e-12
-0.00012847755
-0.00032996541
1.9109882e-12
-8.4985511e-05
-0.00028098219
2.4917567e-12
-4.8878597e-05
-0.00022257842
1.1033143e-11
-2.1960805e-05
-0.00015826052
4.0577847e-12
-5.4696728e-06
-9.2059811e-05
-4.4550198e-11
-2.8325161e-05
4.491265e-11
-4.6407139e-06
4.4087111e-05
-3.8954653e-11
-1.6747968e-05
0.00011869355
3.8082223e-11
-3.4756272e-05
0.00018040365
-4.1404059e-12
-5.7328398e-05
0.00023024695
-1.1460701e-11
-8.3339171e-05
0.00026942907
-5.2460505e-12
-0.0001118596
0.0002991913
-4.8554427e-12
-0.0001421346
0.00032070788
-5.6151507e-12
-0.00017355684
0.0003350165
-5.6845755e-12
-0.00020563922
0.00034297808
-5.6061412e-12
-0.00023798786
0.00034526156
-5.5251831e-12
-0.00027027674
0.00034234873
-5.3909709e-12
-0.0003022249
0.00033455376
-5.2062214e-12
-0.00033357621
0.00032205237
-4.9937945e-12
-0.00036408173
0.00030491601
-4.7585953e-12
-0.00039348425
0.00028314776
-4.478229e-12
-0.00042150465
0.00025671754
-4.1190934e-12
-0.00044782996
0.00022559587
-3.6699802e-12
-0.00047210286
0.00018978607
-3.1594577e-12
-0.00049391316
0.00014935567
-2.630541e-12
-0.00051279171
0.00010446815
-2.0891078e-12
-0.00052820771
5.5416093e-05
-1.4835398e-12
-0.00053957103
2.6561984e-06
-7.504119e-13
-0.00054624147
-5.3153487e-05
8.677935e-14
-0.00054754705
-0.00011111627
9.5952082e-13
-0.00054281465
-0.00017006107
1.7634956e-12
-0.00053141546
-0.00022851395
2.4673002e-12
-0.00051282771
-0.00028468394
3.1139799e-12
-0.00048671706
-0.00033647361
3.7157795e-12
-0.00045303217
-0.00038152691
4.1725028e-12
-0.00041210796
-0.00041732848
4.3347343e-12
-0.0003647625
-0.00044136605
4.1524119e-12
-0.0003123666
-0.00045136089
3.7682774e-12
-0.00025686062
-0.00044555603
3.4385586e-12
-0.00020069366
-0.00042303112
2.9681151e-12
-0.00014667102
-0.00038398804
1.5399999e-12
-9.7717331e-05
-0.00032993588
2.2294077e-12
-5.6590287e-05
-0.00026370548
1.2342602e-11
-2.5605306e-05
-0.0001892455
4.2584856e-12