/*--------------------------------*- C++ -*----------------------------------*\
  =========                 |
  \\      /  F ield         | OpenFOAM: The Open Source CFD Toolbox
   \\    /   O peration     | Website:  https://openfoam.org
    \\  /    A nd           | Version:  7
     \\/     M anipulation  |
\*---------------------------------------------------------------------------*/
FoamFile
{
    version     2.0;
    format      ascii;
    class       volVectorField;
    location    "28";
    object      U_0;
}
// * * * * * * * * * * * * * * * * * * * * * * * * * * * * * * * * * * * * * //

dimensions      [0 1 -1 0 0 0 0];

internalField   nonuniform List<vector> 
16000
(
(6.6006604e-05 -6.7370228e-05 -4.2860801e-07)
(0.00016269844 -5.6376021e-05 5.6698461e-06)
(0.00014189808 4.5463562e-07 1.9169369e-05)
(-5.0629038e-05 6.1887089e-05 3.6591816e-05)
(-0.00040997723 0.00011562935 5.4700344e-05)
(-0.00090902821 0.00015774296 7.1528715e-05)
(-0.001517712 0.00018850425 8.5740815e-05)
(-0.0022068853 0.00020960869 9.6521485e-05)
(-0.0029505991 0.0002228764 0.00010341041)
(-0.0037264612 0.00022981075 0.00010616067)
(-0.0045150454 0.00023147678 0.00010464503)
(-0.0052990067 0.00022850364 9.880041e-05)
(-0.0060621853 0.0002211471 8.860217e-05)
(-0.0067888551 0.00020938275 7.406085e-05)
(-0.007463206 0.00019301344 5.5235205e-05)
(-0.0080691063 0.00017178038 3.225547e-05)
(-0.0085901583 0.0001454715 5.3515756e-06)
(-0.0090100379 0.00011402179 -2.5118589e-05)
(-0.0093130902 7.7601349e-05 -5.8645165e-05)
(-0.0094851361 3.6687491e-05 -9.4550483e-05)
(-0.0095144358 -7.8861313e-06 -0.00013198485)
(-0.0093927175 -5.4923663e-05 -0.00016993701)
(-0.0091162122 -0.00010284311 -0.00020726048)
(-0.0086865914 -0.00014974918 -0.0002427175)
(-0.0081116824 -0.00019351189 -0.00027503846)
(-0.0074058876 -0.00023188571 -0.00030299464)
(-0.0065902138 -0.00026265978 -0.00032547962)
(-0.0056918482 -0.00028382586 -0.00034159315)
(-0.0047432555 -0.00029374751 -0.00035072065)
(-0.0037808147 -0.00029131202 -0.00035260066)
(-0.0028430629 -0.00027604711 -0.00034737335)
(-0.0019686539 -0.00024818822 -0.00033560587)
(-0.0011941462 -0.00020869595 -0.00031829355)
(-0.00055166678 -0.00015926015 -0.00029684056)
(-6.6505498e-05 -0.00010240743 -0.00027301581)
(0.00024492068 -4.1756884e-05 -0.00024887734)
(0.00037893712 1.7848049e-05 -0.00022680793)
(0.0003497785 6.7073607e-05 -0.00020924403)
(0.00020618223 8.9858249e-05 -0.00019885653)
(5.7464255e-05 5.7412291e-05 -0.00018441055)
(5.7982162e-05 -0.0001670838 -6.661197e-06)
(4.0846422e-05 -3.9993114e-05 -4.0870335e-07)
(-0.00029500086 0.00024854797 1.1224692e-05)
(-0.0010110426 0.00056211448 2.559063e-05)
(-0.0020992412 0.00084749141 4.0575554e-05)
(-0.0035140962 0.0010831175 5.4583687e-05)
(-0.00519469 0.001264299 6.6487717e-05)
(-0.0070766294 0.0013940659 7.5535314e-05)
(-0.009098146 0.0014779588 8.1244672e-05)
(-0.011202297 0.0015215252 8.3316153e-05)
(-0.013337022 0.0015292091 8.1566448e-05)
(-0.015454161 0.0015039738 7.5885578e-05)
(-0.01750813 0.0014473556 6.6215187e-05)
(-0.019454692 0.0013597766 5.2544508e-05)
(-0.021250129 0.0012410008 3.4919645e-05)
(-0.022850945 0.0010906577 1.3461766e-05)
(-0.024214194 0.00090877441 -1.1610124e-05)
(-0.025298398 0.00069627538 -3.9956022e-05)
(-0.02606502 0.00045541441 -7.1095261e-05)
(-0.026480361 0.00019010734 -0.0001043937)
(-0.026517778 -9.3864096e-05 -0.00013906064)
(-0.026159951 -0.00038877379 -0.0001741646)
(-0.025401134 -0.00068508844 -0.00020864965)
(-0.024249137 -0.00097175669 -0.00024138317)
(-0.022726721 -0.0012366915 -0.00027120939)
(-0.020872323 -0.0014674256 -0.00029701681)
(-0.018739891 -0.0016519024 -0.00031781361)
(-0.0163977 -0.0017793467 -0.00033280444)
(-0.013926113 -0.0018411421 -0.00034146219)
(-0.011414306 -0.0018316327 -0.00034358777)
(-0.0089560892 -0.0017487752 -0.00033935176)
(-0.0066449996 -0.0015945858 -0.00032931316)
(-0.0045688964 -0.0013753872 -0.00031441255)
(-0.0028042272 -0.0011019635 -0.00029594118)
(-0.0014100235 -0.00078992103 -0.00027548945)
(-0.00042163445 -0.00046058972 -0.00025487075)
(0.00015577163 -0.00014255894 -0.00023599967)
(0.0003567284 0.00012231823 -0.00022089486)
(0.00027526018 0.00027113578 -0.00021165832)
(9.0119902e-05 0.00020509917 -0.00019547151)
(1.9095827e-06 -0.00014898298 -2.0447604e-05)
(-0.00025606739 0.00029699668 -1.1830247e-05)
(-0.001050471 0.0010236056 6.8044656e-08)
(-0.002387843 0.0017975247 1.3048084e-05)
(-0.0042394548 0.0025098921 2.608426e-05)
(-0.0065455678 0.0031100478 3.803572e-05)
(-0.0092251234 0.0035809174 4.8075482e-05)
(-0.012189992 0.0039234257 5.5642884e-05)
(-0.015352975 0.0041461783 6.0356262e-05)
(-0.018631035 0.0042595843 6.1958924e-05)
(-0.021946052 0.0042728087 6.0277948e-05)
(-0.025224224 0.0041924693 5.5195539e-05)
(-0.028394884 0.004022464 4.6635385e-05)
(-0.031389347 0.0037645187 3.4562373e-05)
(-0.034140171 0.0034191658 1.8992635e-05)
(-0.03658109 0.0029869359 1.0676866e-08)
(-0.038647695 0.0024696029 -2.2209702e-05)
(-0.040278886 0.0018713571 -4.7384064e-05)
(-0.041418996 0.0011998077 -7.5098847e-05)
(-0.042020444 0.00046673068 -0.0001047991)
(-0.04204671 -0.00031149792 -0.00013578695)
(-0.041475416 -0.0011138083 -0.00016722729)
(-0.040301265 -0.0019148716 -0.00019817309)
(-0.038538507 -0.0026858562 -0.00022760127)
(-0.036222709 -0.0033956712 -0.00025446352)
(-0.033411543 -0.0040126003 -0.00027774907)
(-0.030184395 -0.0045062414 -0.00029655513)
(-0.026640617 -0.0048496292 -0.00031015915)
(-0.022896359 -0.00502138 -0.00031808571)
(-0.019080003 -0.0050076791 -0.0003201612)
(-0.015326317 -0.0048039461 -0.00031654983)
(-0.011769563 -0.0044160628 -0.00030776689)
(-0.0085358326 -0.0038611572 -0.00029466633)
(-0.0057348823 -0.003168099 -0.00027840276)
(-0.0034517074 -0.0023781112 -0.00026037125)
(-0.0017379826 -0.0015461867 -0.00024212695)
(-0.00060368508 -0.00074418933 -0.00022527822)
(-8.035784e-06 -6.6363124e-05 -0.00021141685)
(0.00015540668 0.00036039568 -0.00020223304)
(7.3551486e-05 0.00035437758 -0.00018531722)
(-6.4688438e-05 5.0414614e-05 -3.8699529e-05)
(-0.0006083917 0.0010457423 -2.6162197e-05)
(-0.0019305521 0.0023817169 -1.2180897e-05)
(-0.0039464506 0.0037564997 1.1119022e-06)
(-0.0065890241 0.005015296 1.3700122e-05)
(-0.0097792042 0.0060800462 2.482438e-05)
(-0.013417125 0.0069205052 3.3947468e-05)
(-0.017395522 0.0075340971 4.07341e-05)
(-0.021607724 0.0079313806 4.494832e-05)
(-0.025950677 0.0081270249 4.6418273e-05)
(-0.030325825 0.0081347537 4.5013173e-05)
(-0.034638767 0.0079649877 4.062669e-05)
(-0.038798327 0.0076243619 3.3171752e-05)
(-0.042715642 0.0071164962 2.2586085e-05)
(-0.046303704 0.0064435433 8.8460459e-06)
(-0.049477617 0.0056081356 -8.0138365e-06)
(-0.052155669 0.0046154425 -2.7878244e-05)
(-0.05426123 0.0034751074 -5.0528156e-05)
(-0.055725356 0.0022028876 -7.5620562e-05)
(-0.056489958 0.00082185286 -0.00010267418)
(-0.056511258 -0.00063696551 -0.00013106434)
(-0.055763363 -0.0021345899 -0.000160026)
(-0.054241591 -0.003624806 -0.00018867714)
(-0.051965245 -0.0050556097 -0.00021605085)
(-0.048979598 -0.0063713803 -0.00024114425)
(-0.04535675 -0.0075157044 -0.00026297982)
(-0.04119514 -0.0084347129 -0.00028067513)
(-0.036617491 -0.0090807349 -0.00029351548)
(-0.031767107 -0.0094160121 -0.00030102174)
(-0.02680249 -0.0094161869 -0.00030300531)
(-0.021890396 -0.0090732916 -0.00029960285)
(-0.017197554 -0.0083980301 -0.000291286)
(-0.012881375 -0.0074212881 -0.00027884416)
(-0.0090800482 -0.0061950171 -0.00026334086)
(-0.0059024805 -0.0047929281 -0.00024604599)
(-0.003418499 -0.0033118157 -0.00022835054)
(-0.0016495336 -0.0018745328 -0.00021168048)
(-0.000559801 -0.00063470945 -0.00019742651)
(-5.0115035e-05 0.00021499943 -0.00018682346)
(3.8094304e-05 0.00041383226 -0.00016801443)
(-0.00013086734 0.00044555584 -5.8215788e-05)
(-0.00097095564 0.0022426711 -4.1152229e-05)
(-0.0028462195 0.0043591607 -2.4269834e-05)
(-0.0055648185 0.006457187 -9.8375137e-06)
(-0.0090094417 0.0083534481 3.0810337e-06)
(-0.013075453 0.0099514245 1.4061037e-05)
(-0.017642262 0.011211721 2.283955e-05)
(-0.022584653 0.012129557 2.9311772e-05)
(-0.027779595 0.012717499 3.3400511e-05)
(-0.033108064 0.012994122 3.5032912e-05)
(-0.038455436 0.012977342 3.4131683e-05)
(-0.043711059 0.012681193 3.0608422e-05)
(-0.048767441 0.012115109 2.4366246e-05)
(-0.053519544 0.011284969 1.5311632e-05)
(-0.057864605 0.010195244 3.3732503e-06)
(-0.061702693 0.0088517285 -1.1474368e-05)
(-0.064938123 0.0072644304 -2.9184558e-05)
(-0.067481685 0.0054502859 -4.9612092e-05)
(-0.069253592 0.0034354333 -7.2489239e-05)
(-0.070186964 0.0012568453 -9.740737e-05)
(-0.070231617 -0.0010368455 -0.00012380723)
(-0.069357911 -0.0033854656 -0.00015098043)
(-0.067560363 -0.0057183821 -0.00017808614)
(-0.064860705 -0.0079566691 -0.00020418273)
(-0.061310115 -0.010016283 -0.00022827563)
(-0.056990288 -0.011812168 -0.00024937885)
(-0.052013084 -0.013263117 -0.00026658657)
(-0.046518501 -0.014297121 -0.00027914859)
(-0.040670801 -0.014856866 -0.00028654218)
(-0.034652727 -0.014904975 -0.00028853105)
(-0.028657868 -0.014428588 -0.00028520285)
(-0.022881383 -0.01344295 -0.00027697841)
(-0.017509465 -0.01199381 -0.00026459093)
(-0.012708047 -0.010158705 -0.00024903654)
(-0.0086114611 -0.0080474926 -0.00023149907)
(-0.0053117524 -0.0058029563 -0.00021326053)
(-0.0028485199 -0.0036024747 -0.00019563623)
(-0.0012000358 -0.0016605456 -0.00017989025)
(-0.00028881009 -0.00023378227 -0.00016674465)
(-2.4709665e-06 0.000350464 -0.00014551)
(-0.00019286563 0.0010312987 -7.6696e-05)
(-0.0013239885 0.0038925134 -5.4793784e-05)
(-0.0037518589 0.006967971 -3.4589038e-05)
(-0.0071732986 0.0099107858 -1.8495562e-05)
(-0.0114148 0.012527362 -4.6998417e-06)
(-0.016341468 0.014714467 6.6629163e-06)
(-0.021809594 0.016430465 1.5579762e-05)
(-0.027675841 0.017671981 2.2165328e-05)
(-0.033802348 0.018455211 2.6498076e-05)
(-0.040056787 0.018803177 2.8604704e-05)
(-0.046311765 0.018738044 2.8462453e-05)
(-0.052443976 0.018277375 2.6000398e-05)
(-0.058333261 0.017433406 2.1108992e-05)
(-0.063861957 0.016214468 1.3658056e-05)
(-0.068914879 0.0146278 3.5210572e-06)
(-0.073380083 0.01268309 -9.3961675e-06)
(-0.077150489 0.010396196 -2.5124217e-05)
(-0.080126325 0.0077926285 -4.3598731e-05)
(-0.082218264 0.004910442 -6.4631396e-05)
(-0.08335109 0.0018022841 -8.7886297e-05)
(-0.083467695 -0.0014636005 -0.00011286488)
(-0.082533139 -0.0048035655 -0.00013890328)
(-0.080538534 -0.0081200282 -0.00016518392)
(-0.077504474 -0.011304311 -0.00019076546)
(-0.07348366 -0.014240803 -0.00021462989)
(-0.06856244 -0.016812359 -0.00023574591)
(-0.062860921 -0.018906748 -0.0002531442)
(-0.056531326 -0.020423825 -0.00026599817)
(-0.049754352 -0.021283016 -0.00027370208)
(-0.042733349 -0.021430578 -0.00027593695)
(-0.035686315 -0.020846091 -0.00027271446)
(-0.028835882 -0.019547647 -0.00026439043)
(-0.022397682 -0.01759537 -0.00025164391)
(-0.016567744 -0.015093151 -0.00023542325)
(-0.011509856 -0.012188846 -0.00021686269)
(-0.007343894 -0.0090736646 -0.00019718781)
(-0.004134534 -0.0059816707 -0.00017767444)
(-0.001881598 -0.0031890389 -0.0001595582)
(-0.0005361925 -0.0010143242 -0.00014316487)
(-4.1245479e-05 0.00015894724 -0.00011907143)
(-0.00025011667 0.0017985631 -9.2182732e-05)
(-0.0016597723 0.0059841201 -6.5294253e-05)
(-0.0046244535 0.010198585 -4.1607898e-05)
(-0.008732162 0.014106981 -2.3553093e-05)
(-0.01375159 0.017522292 -8.5147185e-06)
(-0.019515055 0.02034707 3.6242458e-06)
(-0.025854109 0.022545875 1.307556e-05)
(-0.032606961 0.024121953 2.01553e-05)
(-0.03962182 0.025098059 2.5085728e-05)
(-0.046754935 0.02550313 2.7985115e-05)
(-0.053868711 0.025364182 2.887906e-05)
(-0.060830146 0.024702494 2.7708308e-05)
(-0.067509528 0.023533134 2.4344338e-05)
(-0.073779645 0.021866943 1.8613121e-05)
(-0.079515747 0.019714093 1.0324834e-05)
(-0.084596363 0.017088465 -6.9205167e-07)
(-0.088904984 0.014012215 -1.4554013e-05)
(-0.092332556 0.010519997 -3.1285222e-05)
(-0.094780674 0.0066624773 -5.0782401e-05)
(-0.09616532 0.00250881 -7.2784882e-05)
(-0.096420976 -0.0018521341 -9.6853351e-05)
(-0.095504889 -0.0063119756 -0.00012236181)
(-0.093401297 -0.010744565 -0.00014850373)
(-0.090125352 -0.015009391 -0.00017431926)
(-0.085726384 -0.018956631 -0.00019874113)
(-0.080290232 -0.022433783 -0.00022065998)
(-0.073940185 -0.025293704 -0.0002390048)
(-0.066836155 -0.027403725 -0.00025283126)
(-0.059171679 -0.028655331 -0.00026140898)
(-0.051168443 -0.028973778 -0.00026429722)
(-0.043068195 -0.028326886 -0.00026139855)
(-0.035122156 -0.026732247 -0.00025298083)
(-0.027578309 -0.024262215 -0.0002396616)
(-0.020667325 -0.021046282 -0.00022235384)
(-0.014588335 -0.017270882 -0.00020217497)
(-0.0094958109 -0.013177213 -0.00018034518)
(-0.0054864852 -0.0090579242 -0.00015816899)
(-0.0025879509 -0.0052522169 -0.00013693744)
(-0.00078446856 -0.0021405364 -0.0001166544)
(-7.6873511e-05 -0.00016054002 -8.944797e-05)
(-0.00030295589 0.0027365212 -0.00010300634)
(-0.0019754969 0.0084980813 -7.1037156e-05)
(-0.0054521354 0.014028544 -4.3889326e-05)
(-0.01021796 0.019021349 -2.3744677e-05)
(-0.01598516 0.023311048 -7.2494022e-06)
(-0.022552767 0.026818145 5.9395898e-06)
(-0.02972714 0.029522376 1.6236845e-05)
(-0.03732815 0.031439722 2.4140197e-05)
(-0.045190914 0.032603348 2.9999744e-05)
(-0.053161806 0.033050319 3.4012438e-05)
(-0.061095149 0.03281364 3.6241411e-05)
(-0.068850747 0.031918775 3.6629493e-05)
(-0.076292016 0.030383738 3.5020153e-05)
(-0.083284854 0.028221819 3.1186524e-05)
(-0.089697405 0.025445983 2.4866285e-05)
(-0.095400738 0.022074141 1.5801008e-05)
(-0.10027041 0.018134547 3.7785624e-06)
(-0.10418888 0.013670788 -1.1323396e-05)
(-0.10704855 0.008745924 -2.9495469e-05)
(-0.10875557 0.0034454513 -5.0559286e-05)
(-0.10923389 -0.0021211498 -7.4138881e-05)
(-0.10842983 -0.0078204962 -9.9646356e-05)
(-0.10631668 -0.013497118 -0.00012628099)
(-0.1028993 -0.018977247 -0.00015305298)
(-0.098218291 -0.024074559 -0.00017882663)
(-0.092353434 -0.028597911 -0.00020238686)
(-0.085425923 -0.032360927 -0.00022252472)
(-0.077598801 -0.035193136 -0.00023813505)
(-0.06907508 -0.036952103 -0.0002483162)
(-0.060093046 -0.037535796 -0.00025245963)
(-0.050918413 -0.036894208 -0.00025031741)
(-0.041833311 -0.035039171 -0.00024203707)
(-0.033122449 -0.032051343 -0.00022815647)
(-0.025057274 -0.028083616 -0.00020955488)
(-0.017879632 -0.023360655 -0.0001873579)
(-0.011786469 -0.018174982 -0.00016282778)
(-0.0069140622 -0.012880388 -0.00013736377)
(-0.0033238351 -0.0078822594 -0.0001123921)
(-0.0010368618 -0.0036261498 -8.7684525e-05)
(-0.00011093494 -0.00060702139 -5.7243559e-05)
(-0.00035169268 0.0038338123 -0.00010770324)
(-0.0022696825 0.011410335 -7.0548387e-05)
(-0.0062274698 0.01842726 -4.0070449e-05)
(-0.011614731 0.024619905 -1.7819988e-05)
(-0.018090289 0.029857499 2.4395895e-07)
(-0.025420981 0.03408981 1.4673298e-05)
(-0.033388661 0.037320641 2.6067534e-05)
(-0.041795603 0.039585172 3.5087451e-05)
(-0.050464885 0.040931366 4.2194061e-05)
(-0.059234492 0.041407163 4.7648178e-05)
(-0.067952561 0.041053111 5.1537489e-05)
(-0.076473912 0.039899597 5.3795371e-05)
(-0.084657456 0.037967777 5.4226647e-05)
(-0.092364561 0.035273214 5.2541306e-05)
(-0.099458429 0.031831241 4.8394053e-05)
(-0.10580446 0.027663144 4.1428561e-05)
(-0.11127151 0.022802435 3.1325288e-05)
(-0.11573405 0.017300612 1.7851147e-05)
(-0.11907498 0.011231979 9.0856069e-07)
(-0.12118924 0.0046971997 -1.9419208e-05)
(-0.12198791 -0.0021746932 -4.2830718e-05)
(-0.12140295 -0.009226039 -6.8784575e-05)
(-0.11939231 -0.016272154 -9.6488692e-05)
(-0.11594533 -0.023105239 -0.00012491954)
(-0.11108808 -0.029500524 -0.00015286055)
(-0.10488827 -0.035224877 -0.0001789681)
(-0.097459185 -0.040047843 -0.00020186109)
(-0.088961917 -0.043754849 -0.00022022825)
(-0.079605156 -0.046162043 -0.00023294293)
(-0.069641804 -0.04713189 -0.0002391719)
(-0.059361794 -0.046588295 -0.00023846294)
(-0.049080896 -0.044529814 -0.00023079856)
(-0.039125709 -0.041039445 -0.00021660678)
(-0.02981571 -0.036289716 -0.00019672304)
(-0.021444119 -0.030542348 -0.00017229589)
(-0.014259494 -0.024142615 -0.0001446705)
(-0.0084461136 -0.017509184 -0.00011540468)
(-0.0041057516 -0.011119097 -8.6138756e-05)
(-0.0013000783 -0.0054896927 -5.6479238e-05)
(-0.00014466054 -0.0011817418 -2.2525879e-05)
(-0.00039639182 0.0050786643 -0.00010495421)
(-0.0025408008 0.014693457 -6.2475339e-05)
(-0.0069442024 0.023357932 -2.8869171e-05)
(-0.012909227 0.030860749 -4.5676005e-06)
(-0.020045625 0.037117279 1.5112128e-05)
(-0.028090265 0.042116827 3.0919326e-05)
(-0.036802095 0.045895701 4.3624177e-05)
(-0.04596713 0.048514729 5.40335e-05)
(-0.055397754 0.050041273 6.2703141e-05)
(-0.064925107 0.050537218 6.9943103e-05)
(-0.074392952 0.050052511 7.5852392e-05)
(-0.08365316 0.048623406 8.0343001e-05)
(-0.092562307 0.046274461 8.3170018e-05)
(-0.1009794 0.043023251 8.3969366e-05)
(-0.1087647 0.038886769 8.2301303e-05)
(-0.1157796 0.033888578 7.7698946e-05)
(-0.12188745 0.028065979 6.9721043e-05)
(-0.12695521 0.021476579 5.8007548e-05)
(-0.13085593 0.014203872 4.2335815e-05)
(-0.13347207 0.0063614955 2.2674698e-05)
(-0.13469958 -0.001904065 -7.6809571e-07)
(-0.13445264 -0.01041262 -2.7517026e-05)
(-0.13266942 -0.01895133 -5.6800111e-05)
(-0.12931838 -0.027278345 -8.7565936e-05)
(-0.12440493 -0.035128967 -0.00011851235)
(-0.11797811 -0.042224813 -0.00014814969)
(-0.11013671 -0.048286082 -0.00017489277)
(-0.10103383 -0.053046813 -0.00019717704)
(-0.090878971 -0.056272661 -0.00021359005)
(-0.079936672 -0.057780249 -0.00022300402)
(-0.068520554 -0.057456613 -0.00022469162)
(-0.056982367 -0.05527685 -0.0002184077)
(-0.045695905 -0.051317838 -0.00020442404)
(-0.03503662 -0.045766043 -0.00018350827)
(-0.025358948 -0.038918011 -0.00015683479)
(-0.016973684 -0.031173288 -0.00012586369)
(-0.010123118 -0.023020471 -9.2371884e-05)
(-0.0049572983 -0.015016278 -5.8293126e-05)
(-0.0015839096 -0.0077601677 -2.3121087e-05)
(-0.00018000436 -0.0018919992 1.4745097e-05)
(-0.00043687249 0.0064585566 -9.3556798e-05)
(-0.0027868473 0.018316867 -4.5579178e-05)
(-0.0075958871 0.028778269 -9.0948414e-06)
(-0.014088617 0.037694839 1.715906e-05)
(-0.021830771 0.045038131 3.8462855e-05)
(-0.030532218 0.050846185 5.575514e-05)
(-0.039931252 0.055195598 6.9965104e-05)
(-0.049799427 0.058179021 8.2030766e-05)
(-0.059940036 0.059887824 9.2588488e-05)
(-0.070179003 0.060401052 0.00010198424)
(-0.080357491 0.059780102 0.00011031626)
(-0.090326364 0.058068192 0.00011746406)
(-0.099941924 0.055293607 0.00012312249)
(-0.10906289 0.051475599 0.00012684267)
(-0.11754854 0.046631891 0.00012807851)
(-0.12525799 0.04078684 0.00012623856)
(-0.13205032 0.033979508 0.00012074295)
(-0.1377857 0.026271103 0.00011108444)
(-0.14232734 0.01775139 9.6891679e-05)
(-0.14554432 0.0085438225 7.7992511e-05)
(-0.14731552 -0.0011908338 5.4472847e-05)
(-0.14753442 -0.011252595 2.6710376e-05)
(-0.14611525 -0.0214027 -4.5645058e-06)
(-0.14300033 -0.031366165 -3.8290897e-05)
(-0.13816809 -0.040837609 -7.3087043e-05)
(-0.13164181 -0.04949051 -0.00010730738)
(-0.12349826 -0.056990338 -0.00013913419)
(-0.11387517 -0.06301171 -0.00016670135)
(-0.10297642 -0.067259245 -0.00018824296)
(-0.091073417 -0.069491184 -0.00020225349)
(-0.078501301 -0.069544092 -0.00020763975)
(-0.065648912 -0.067356252 -0.00020384227)
(-0.052941952 -0.06298684 -0.0001909066)
(-0.040820013 -0.05662795 -0.00016948884)
(-0.029709633 -0.04860711 -0.00014077714)
(-0.019996199 -0.039379365 -0.00010636813)
(-0.011992158 -0.029509476 -6.8314046e-05)
(-0.0059060186 -0.019644336 -2.8922738e-05)
(-0.0018995922 -0.01047929 1.2385959e-05)
(-0.00021911032 -0.0027504897 5.4725482e-05)
(-0.00047275987 0.0079598376 -7.2420245e-05)
(-0.0030053016 0.022246622 -1.8738168e-05)
(-0.008175468 0.034640644 2.033872e-05)
(-0.015139613 0.045066302 4.8419303e-05)
(-0.023425034 0.053560063 7.1334404e-05)
(-0.032718035 0.060216791 9.0205021e-05)
(-0.042738909 0.065160396 0.00010610932)
(-0.053246837 0.068521105 0.00012010359)
(-0.064037778 0.070418755 0.00013289256)
(-0.074934121 0.070952797 0.00014484725)
(-0.085776177 0.070198241 0.00015605517)
(-0.096415678 0.068206503 0.0001663542)
(-0.10671065 0.065009986 0.00017536994)
(-0.11652156 0.060629261 0.000182559)
(-0.12570876 0.055081706 0.00018725739)
(-0.13413091 0.048390692 0.00018873439)
(-0.14164442 0.040594583 0.00018625256)
(-0.14810382 0.031755081 0.00017913341)
(-0.15336299 0.021964569 0.00016682749)
(-0.15727746 0.011352269 0.00014898572)
(-0.15970782 8.9040155e-05 0.00012552856)
(-0.16052471 -0.011609397 9.6716835e-05)
(-0.15961509 -0.023481633 6.3179557e-05)
(-0.15689022 -0.035221711 2.5959273e-05)
(-0.15229539 -0.046483933 -1.350184e-05)
(-0.14582066 -0.056891591 -5.3404372e-05)
(-0.13751233 -0.066050427 -9.1676975e-05)
(-0.12748389 -0.073567314 -0.00012610471)
(-0.115925 -0.079074142 -0.0001544947)
(-0.10310675 -0.082256125 -0.00017486691)
(-0.089381132 -0.082882727 -0.00018564973)
(-0.075172967 -0.080838344 -0.00018585395)
(-0.060963111 -0.076148916 -0.00017519702)
(-0.047263039 -0.069000282 -0.00015415072)
(-0.034583054 -0.059744545 -0.00012388291)
(-0.023397373 -0.048892453 -8.6134669e-05)
(-0.014103431 -0.03709186 -4.3285071e-05)
(-0.0069814261 -0.025092599 1.9003226e-06)
(-0.0022590038 -0.013702938 5.00478e-05)
(-0.00026414572 -0.0037760378 9.7605678e-05)
(-0.00050355011 0.0095674234 -4.0574839e-05)
(-0.0031932705 0.026445138 1.9040045e-05)
(-0.0086753906 0.040892023 6.0395802e-05)
(-0.016048468 0.052912487 9.0161361e-05)
(-0.024807324 0.062615302 0.00011466529)
(-0.034618363 0.070159095 0.0001352039)
(-0.045186723 0.07572127 0.00015299516)
(-0.056261414 0.079474867 0.0001692023)
(-0.067632867 0.081572409 0.00018458871)
(-0.079121593 0.082136957 0.00019954229)
(-0.090568737 0.081259386 0.00021413286)
(-0.10182871 0.07900065 0.0002281503)
(-0.11276319 0.075397779 0.0002411444)
(-0.12323652 0.07047235 0.00025246951)
(-0.13311221 0.064240275 0.00026133336)
(-0.14225059 0.056722004 0.00026685158)
(-0.15050741 0.047952461 0.00026810917)
(-0.15773327 0.037990306 0.00026422956)
(-0.16377408 0.026926295 0.00025445065)
(-0.16847258 0.014890616 0.00023820523)
(-0.17167112 0.0020590622 0.00021520308)
(-0.17321641 -0.011342207 0.0001855203)
(-0.17296574 -0.025033698 0.00014964494)
(-0.17079552 -0.038682163 0.00010854789)
(-0.16661226 -0.05190352 6.3691888e-05)
(-0.16036533 -0.064270266 1.7010319e-05)
(-0.15206141 -0.075324484 -2.9164532e-05)
(-0.14177924 -0.084597391 -7.2228452e-05)
(-0.12968335 -0.091635909 -0.00010948553)
(-0.11603423 -0.096035813 -0.00013837159)
(-0.10119264 -0.097479766 -0.00015670091)
(-0.085614995 -0.095776982 -0.00016290613)
(-0.069837978 -0.090899723 -0.00015623498)
(-0.054451366 -0.08301083 -0.00013686199)
(-0.040061143 -0.072476663 -0.00010586762)
(-0.027246458 -0.059861648 -6.5124337e-05)
(-0.016507688 -0.045903569 -1.7382951e-05)
(-0.0082137631 -0.031469837 3.404468e-05)
(-0.0026743176 -0.017501829 8.981047e-05)
(-0.00031729552 -0.0049938523 0.00014352915)
(-0.00052867977 0.011264626 2.8096479e-06)
(-0.0033477332 0.030871045 6.8599967e-05)
(-0.009088038 0.047473962 0.00011189795)
(-0.016801559 0.061164032 0.00014319694)
(-0.025956848 0.072128265 0.00016926325)
(-0.036204125 0.080594765 0.00019156024)
(-0.047236222 0.086799708 0.00021143692)
(-0.058794156 0.09096361 0.00023015369)
(-0.070664553 0.09327561 0.00024852533)
(-0.082667603 0.093885517 0.00026695166)
(-0.094646864 0.09290238 0.00028548137)
(-0.10646113 0.090398185 0.00030385353)
(-0.11797766 0.086415255 0.00032153901)
(-0.12906673 0.080975996 0.00033778499)
(-0.1395973 0.074093822 0.00035166288)
(-0.14943383 0.06578434 0.00036212171)
(-0.15843385 0.05607619 0.00036804926)
(-0.16644651 0.045021241 0.00036834277)
(-0.17331204 0.032703995 0.00036198954)
(-0.17886233 0.019250194 0.0003481564)
(-0.18292298 0.0048345663 0.00032628584)
(-0.18531719 -0.010312518 0.00029619751)
(-0.1858718 -0.025899734 0.00025817316)
(-0.184426 -0.041571983 0.00021304108)
(-0.18084297 -0.056910747 0.00016222298)
(-0.17502449 -0.07143923 0.00010774276)
(-0.16692811 -0.084633854 5.2179085e-05)
(-0.15658612 -0.095943647 -1.4498792e-06)
(-0.14412447 -0.10481868 -4.9874338e-05)
(-0.12977936 -0.11074781 -8.9828031e-05)
(-0.11390789 -0.11330438 -0.0001183523)
(-0.096989274 -0.11219657 -0.00013311643)
(-0.07961275 -0.10731662 -0.00013270928)
(-0.062450224 -0.098781214 -0.00011684312)
(-0.046214636 -0.086954898 -8.6396629e-05)
(-0.031607715 -0.072449832 -4.3327544e-05)
(-0.019254134 -0.056099206 9.2094966e-06)
(-0.0096331292 -0.03890389 6.7262112e-05)
(-0.0031578265 -0.021961634 0.00013148977)
(-0.00038078478 -0.006435588 0.00019251764)
(-0.00054759833 0.013033143 5.8400673e-05)
(-0.0034658525 0.035479306 0.00013061674)
(-0.0094063829 0.054322869 0.00017550181)
(-0.01738637 0.06974516 0.0002081757)
(-0.026854396 0.082015745 0.00023577464)
(-0.037448099 0.091436593 0.00025991925)
(-0.048850705 0.098306979 0.00028208102)
(-0.06079724 0.10289895 0.00030360933)
(-0.07307208 0.10544191 0.0003253659)
(-0.085496479 0.10611544 0.00034776101)
(-0.097917822 0.10504919 0.00037082268)
(-0.11020087 0.10232784 0.00039424059)
(-0.12222027 0.097999897 0.00041740769)
(-0.13385435 0.092088669 0.00043946314)
(-0.14497998 0.08460427 0.00045933747)
(-0.1554684 0.075555728 0.00047580296)
(-0.16518196 0.064962696 0.00048753251)
(-0.17397157 0.052866533 0.00049316981)
(-0.18167512 0.039340746 0.00049141271)
(-0.18811697 0.0245009 0.00048111007)
(-0.19310893 0.0085140397 0.00046137114)
(-0.19645309 -0.0083925129 0.00043168459)
(-0.19794711 -0.025923291 0.00039203586)
(-0.19739248 -0.043708772 0.00034302031)
(-0.19460632 -0.061302409 0.00028593164)
(-0.18943714 -0.078182441 0.00022281164)
(-0.18178438 -0.093760539 0.00015644051)
(-0.17162134 -0.10739957 9.0248075e-05)
(-0.15901995 -0.11844251 2.8131311e-05)
(-0.1441747 -0.12625389 -2.5825284e-05)
(-0.12742179 -0.13027312 -6.7713434e-05)
(-0.10924871 -0.13007695 -9.4215729e-05)
(-0.090288469 -0.12544443 -0.00010301782)
(-0.071294652 -0.11641483 -9.3139501e-05)
(-0.053096391 -0.10332673 -6.5079154e-05)
(-0.036536403 -0.086827781 -2.0783612e-05)
(-0.02238842 -0.06784885 3.6180932e-05)
(-0.011268752 -0.047540385 0.00010112491)
(-0.00372184 -0.027182697 0.00017469572)
(-0.00045691121 -0.0081393752 0.00024439356)
(-0.00055984384 0.014853235 0.00012667849)
(-0.0035453328 0.040221702 0.00020557476)
(-0.0096247954 0.061370667 0.00025167828)
(-0.017792779 0.078574388 0.00028556182)
(-0.027484091 0.092187482 0.0003146563)
(-0.038327109 0.10258878 0.0003407282)
(-0.049997865 0.11014399 0.00036536337)
(-0.062227124 0.11518018 0.00038999398)
(-0.074798317 0.1179703 0.00041552735)
(-0.087534917 0.11872677 0.00044238672)
(-0.10028935 0.11760229 0.00047058427)
(-0.11293376 0.11469617 0.0004997663)
(-0.12535192 0.11006428 0.00052925361)
(-0.13743228 0.10373126 0.00055808128)
(-0.14906212 0.095703491 0.00058503912)
(-0.16012246 0.08598208 0.00060871697)
(-0.17048391 0.074575352 0.000627559)
(-0.18000307 0.061510748 0.00063993113)
(-0.18851987 0.046846238 0.00064420473)
(-0.19585579 0.030681478 0.00063885865)
(-0.20181356 0.013168898 0.0006226)
(-0.20617858 -0.0054752912 0.00059450195)
(-0.20872293 -0.024960445 0.00055415203)
(-0.20921246 -0.044912059 0.00050180112)
(-0.207418 -0.064864735 0.00043850004)
(-0.20313123 -0.084259516 0.00036620167)
(-0.1961859 -0.10244815 0.00028780425)
(-0.18648414 -0.11870728 0.00020710776)
(-0.17402698 -0.13226586 0.00012865658)
(-0.15894656 -0.14234835 5.7451354e-05)
(-0.14153574 -0.14823491 -1.468337e-06)
(-0.12226902 -0.14933649 -4.3542033e-05)
(-0.10180721 -0.14527853 -6.5248126e-05)
(-0.08097866 -0.13598167 -6.460502e-05)
(-0.060733857 -0.12172359 -4.1468016e-05)
(-0.042074281 -0.1031658 2.3952895e-06)
(-0.025950457 -0.081333162 6.3041971e-05)
(-0.01314823 -0.057540484 0.00013495498)
(-0.0043785935 -0.033279374 0.00021874714)
(-0.00054808284 -0.010149834 0.00029869328)
(-0.00056512198 0.016704106 0.00020791395)
(-0.0035848175 0.045047734 0.0002937498)
(-0.0097399707 0.068545981 0.00034069582)
(-0.018014575 0.087565752 0.00037561509)
(-0.027835483 0.10254725 0.00040615199)
(-0.038824682 0.11394771 0.00043420608)
(-0.050653008 0.12220168 0.00046147054)
(-0.063048347 0.1276941 0.0004894567)
(-0.075794192 0.13074459 0.00051912)
(-0.088717147 0.13160136 0.00055090357)
(-0.10167569 0.13044284 0.00058481338)
(-0.1145506 0.1273851 0.0006204633)
(-0.12723634 0.12249297 0.00065711289)
(-0.13963353 0.11579329 0.00069370235)
(-0.15164239 0.10728877 0.00072888652)
(-0.16315687 0.096971808 0.00076107286)
(-0.17405962 0.084837664 0.00078846886)
(-0.18421749 0.070897042 0.00080914407)
(-0.19347763 0.055188357 0.00082111141)
(-0.20166456 0.037789991 0.00082243155)
(-0.20857826 0.018832907 0.00081134239)
(-0.21399398 -0.0014862314 0.00078641401)
(-0.21766431 -0.022891582 0.0007467267)
(-0.21932446 -0.045014931 0.00069205844)
(-0.2187018 -0.06738403 0.00062307583)
(-0.21553082 -0.089414368 0.00054149937)
(-0.20957458 -0.11040737 0.00045021617)
(-0.20065345 -0.12955878 0.00035330342)
(-0.18868068 -0.14598171 0.00025592236)
(-0.17370315 -0.15874881 0.00016404785)
(-0.15594303 -0.16695693 8.4015974e-05)
(-0.13583331 -0.16981442 2.1904288e-05)
(-0.1140376 -0.16674561 -1.7198084e-05)
(-0.091443241 -0.15749998 -2.9909995e-05)
(-0.06912043 -0.14224551 -1.5074358e-05)
(-0.048244303 -0.12162248 2.5989284e-05)
(-0.02997178 -0.096736483 8.9064846e-05)
(-0.015296609 -0.069077508 0.00016774026)
(-0.005140123 -0.040378954 0.00026257153)
(-0.00065685443 -0.01251806 0.00035456539)
(-0.00056338758 0.018564503 0.00030215182)
(-0.0035843145 0.049906014 0.00039519785)
(-0.0097519491 0.075775922 0.00044261122)
(-0.018051145 0.096630671 0.00047837986)
(-0.02790591 0.11299456 0.00051027656)
(-0.03893406 0.12540337 0.00054032068)
(-0.050802704 0.13436199 0.00057030766)
(-0.063237834 0.14031565 0.00060182824)
(-0.076023722 0.14363353 0.00063589319)
(-0.088990793 0.1446026 0.00067297758)
(-0.10200442 0.1434299 0.00071309608)
(-0.11495509 0.14025073 0.00075584629)
(-0.12774945 0.13514086 0.00080044263)
(-0.14030222 0.12813068 0.00084574504)
(-0.15252903 0.11921993 0.000890285)
(-0.16433996 0.10839222 0.00093229422)
(-0.1756337 0.095628761 0.00096974288)