/*--------------------------------*- C++ -*----------------------------------*\
  =========                 |
  \\      /  F ield         | OpenFOAM: The Open Source CFD Toolbox
   \\    /   O peration     | Website:  https://openfoam.org
    \\  /    A nd           | Version:  7
     \\/     M anipulation  |
\*---------------------------------------------------------------------------*/
FoamFile
{
    version     2.0;
    format      ascii;
    class       volScalarField;
    location    "5";
    object      p;
}
// * * * * * * * * * * * * * * * * * * * * * * * * * * * * * * * * * * * * * //

dimensions      [1 -1 -2 0 0 0 0];

internalField   nonuniform List<scalar> 
19968
(
1
1
1
1
1
1
1
1
1
1
1
1
1
1
1
1
1
1
1
1
1
1
1
1
1
1
1
1
1
1
1
1
1
1
1
1
1
1
1
1
1
1
1
1
1
1
1
1
1.5459
8.01782
10.4197
10.4394
10.5078
10.5669
10.627
10.6845
10.7412
10.7984
10.8564
10.9129
10.9658
11.015
11.0612
11.1058
11.1524
11.2032
11.2566
11.3092
11.3583
11.4024
11.4414
11.4764
11.509
11.5412
11.575
11.6111
11.6485
11.6853
11.7202
11.7526
11.783
11.8121
11.8402
11.8672
11.8929
11.9167
11.9386
11.9586
11.977
11.9936
12.008
12.0194
12.0274
12.0319
12.0342
12.0348
1
1
1
1
1
1
1
1
1
1
1
1
1
1
1
1
1
1
1
1
1
1
1
1
1
1
1
1
1
1
1
1
1
1
1
1
1
1
1
1
1
1
1
1
1
1
1
1
1.51067
7.93448
10.4071
10.4452
10.5087
10.5686
10.6282
10.6852
10.7414
10.7982
10.8557
10.9118
10.9643
11.0133
11.0592
11.1038
11.1502
11.2005
11.2531
11.3051
11.3537
11.3975
11.4367
11.4719
11.5048
11.5375
11.5719
11.6084
11.646
11.6828
11.7173
11.7492
11.7791
11.8075
11.8351
11.8618
11.8873
11.9112
11.9331
11.953
11.971
11.9872
12.0011
12.0122
12.0201
12.0247
12.027
12.0278
1
1
1
1
1
1
1
1
1
1
1
1
1
1
1
1
1
1
1
1
1
1
1
1
1
1
1
1
1
1
1
1
1
1
1
1
1
1
1
1
1
1
1
1
1
1
1
1
1.43252
7.7625
10.4066
10.4416
10.5044
10.5652
10.6245
10.6813
10.7372
10.7936
10.8506
10.9064
10.9589
11.008
11.0539
11.0983
11.1445
11.1939
11.2457
11.2969
11.345
11.3887
11.4279
11.4634
11.4968
11.5301
11.5652
11.6023
11.6403
11.6772
11.7114
11.7428
11.772
11.7998
11.8267
11.8529
11.8781
11.9018
11.9237
11.9436
11.9614
11.9771
11.9905
12.0013
12.0091
12.0137
12.0163
12.0173
1
1
1
1
1
1
1
1
1
1
1
1
1
1
1
1
1
1
1
1
1
1
1
1
1
1
1
1
1
1
1
1
1
1
1
1
1
1
1
1
1
1
1
1
1
1
1
1
1.32233
7.49234
10.402
10.4411
10.5015
10.5623
10.6206
10.6766
10.7315
10.7868
10.8428
10.898
10.9503
10.9994
11.0452
11.0894
11.1349
11.1833
11.2339
11.2843
11.3321
11.3757
11.4151
11.4511
11.4851
11.5192
11.5552
11.593
11.6314
11.6682
11.702
11.7325
11.7607
11.7874
11.8134
11.8387
11.8633
11.8867
11.9082
11.9277
11.9449
11.96
11.9729
11.9834
11.9912
11.9962
11.9992
12.0007
1
1
1
1
1
1
1
1
1
1
1
1
1
1
1
1
1
1
1
1
1
1
1
1
1
1
1
1
1
1
1
1
1
1
1
1
1
1
1
1
1
1
1
1
1
1
1
1
1.1881
7.14849
10.3968
10.4374
10.4949
10.5554
10.6135
10.6698
10.7246
10.7792
10.8343
10.8886
10.9403
10.989
11.0342
11.0778
11.1225
11.1696
11.2191
11.2687
11.3164
11.3604
11.4002
11.4367
11.4713
11.5061
11.5427
11.5811
11.6198
11.6565
11.6898
11.7196
11.747
11.7728
11.7979
11.8226
11.8465
11.8693
11.8902
11.9088
11.9248
11.9383
11.9495
11.9585
11.9652
11.9696
11.9725
11.9741
1
1
1
1
1
1
1
1
1
1
1
1
1
1
1
1
1
1
1
1
1
1
1
1
1
1
1
1
1
1
1
1
1
1
1
1
1
1
1
1
1
1
1
1
1
1
1
1
1.00732
6.61375
10.3716
10.4306
10.4852
10.5471
10.6059
10.6627
10.7177
10.7722
10.8269
10.8804
10.9311
10.9785
11.0223
11.0645
11.1079
11.1533
11.2012
11.2494
11.2962
11.3397
11.3794
11.4159
11.4504
11.4849
11.5211
11.5591
11.5972
11.6332
11.6657
11.6947
11.7211
11.7462
11.7707
11.7948
11.8185
11.841
11.8618
11.8803
11.8962
11.9093
11.92
11.9284
11.9346
11.9389
11.9417
11.9435
1
1
1
1
1
1
1
1
1
1
1
1
1
1
1
1
1
1
1
1
1
1
1
1
1
1
1
1
1
1
1
1
1
1
1
1
1
1
1
1
1
1
1
1
1
1
1
1
1.00003
5.89109
10.283
10.3889
10.4412
10.5042
10.5644
10.6233
10.6804
10.7368
10.7922
10.8457
10.8963
10.9435
10.9871
11.0293
11.0726
11.1171
11.1639
11.2113
11.2577
11.3017
11.3421
11.3794
11.4143
11.4489
11.485
11.5226
11.5603
11.5958
11.6279
11.6565
11.6827
11.7077
11.7321
11.7562
11.7797
11.802
11.8226
11.8409
11.8565
11.8692
11.8794
11.8871
11.8926
11.8965
11.8991
11.901
1
1
1
1
1
1
1
1
1
1
1
1
1
1
1
1
1
1
1
1
1
1
1
1
1
1
1
1
1
1
1
1
1
1
1
1
1
1
1
1
1
1
1
1
1
1
1
1
1
4.98218
10.1411
10.3478
10.403
10.4693
10.5316
10.5921
10.6513
10.709
10.7644
10.8176
10.8679
10.9146
10.9577
10.9994
11.042
11.0849
11.1298
11.1755
11.2206
11.2641
11.3046
11.3419
11.3767
11.4108
11.4459
11.4822
11.5186
11.553
11.5843
11.6123
11.638
11.6626
11.6868
11.7105
11.7335
11.7553
11.7752
11.793
11.8081
11.8202
11.8296
11.8363
11.8409
11.8443
11.8464
11.8482
1
1
1
1
1
1
1
1
1
1
1
1
1
1
1
1
1
1
1
1
1
1
1
1
1
1
1
1
1
1
1
1
1
1
1
1
1
1
1
1
1
1
1
1
1
1
1
1
1
3.93407
9.86613
10.3055
10.3607
10.4305
10.4924
10.5539
10.6148
10.6736
10.7289
10.7819
10.8321
10.8791
10.9219
10.9631
11.0047
11.0457
11.0878
11.131
11.1738
11.2156
11.255
11.2914
11.3251
11.3577
11.3908
11.4252
11.4597
11.4929
11.5234
11.5511
11.5766
11.6008
11.6243
11.6473
11.6696
11.6908
11.7104
11.728
11.7431
11.7551
11.764
11.7703
11.7743
11.7775
11.7793
11.781
1
1
1
1
1
1
1
1
1
1
1
1
1
1
1
1
1
1
1
1
1
1
1
1
1
1
1
1
1
1
1
1
1
1
1
1
1
1
1
1
1
1
1
1
1
1
1
1
1
2.83114
9.31065
10.2883
10.3423
10.4138
10.4727
10.5312
10.5888
10.644
10.6956
10.7455
10.7941
10.8407
10.8838
10.9247
10.9655
11.0047
11.0438
11.0843
11.1246
11.1641
11.2016
11.2361
11.2677
11.2973
11.3269
11.3576
11.3888
11.4195
11.4485
11.4753
11.5002
11.5237
11.5463
11.5684
11.59
11.6108
11.6301
11.6471
11.6613
11.6721
11.6797
11.6847
11.6875
11.6898
11.6907
11.6918
1
1
1
1
1
1
1
1
1
1
1
1
1
1
1
1
1
1
1
1
1
1
1
1
1
1
1
1
1
1
1
1
1
1
1
1
1
1
1
1
1
1
1
1
1
1
1
1
1
1.79828
8.32803
10.3236
10.3202
10.3896
10.4377
10.493
10.5481
10.6026
10.6534
10.7014
10.7476
10.7928
10.8358
10.877
10.9182
10.9572
10.9943
11.032
11.0703
11.1078
11.144
11.1767
11.2064
11.2332
11.2592
11.2857
11.3128
11.3398
11.3658
11.3899
11.4118
11.4318
11.4505
11.4685
11.4864
11.5041
11.5211
11.5367
11.5501
11.5606
11.5682
11.5733
11.5762
11.5784
11.579
11.5802
1
1
1
1
1
1
1
1
1
1
1
1
1
1
1
1
1
1
1
1
1
1
1
1
1
1
1
1
1
1
1
1
1
1
1
1
1
1
1
1
1
1
1
1
1
1
1
1
1
1.03018
6.62037
10.3257
10.3424
10.3867
10.4311
10.4798
10.5286
10.5768
10.6213
10.6624
10.7022
10.7421
10.7817
10.8202
10.8587
10.8954
10.9291
10.9627
10.9976
11.0316
11.0649
11.0953
11.1223
11.1463
11.1688
11.1915
11.2149
11.2388
11.262
11.2837
11.3031
11.3204
11.3361
11.3511
11.366
11.3811
11.3956
11.4085
11.4189
11.4257
11.4287
11.428
11.4249
11.4224
11.4199
11.4191
1
1
1
1
1
1
1
1
1
1
1
1
1
1
1
1
1
1
1
1
1
1
1
1
1
1
1
1
1
1
1
1
1
1
1
1
1
1
1
1
1
1
1
1
1
1
1
1
1
1.00005
4.51462
9.90002
10.2064
10.2673
10.3274
10.3815
10.4334
10.4834
10.5296
10.5709
10.6089
10.6456
10.6824
10.7192
10.7561
10.7923
10.8259
10.8572
10.8892
10.9209
10.9523
10.9821
11.0084
11.031
11.0511
11.0708
11.0911
11.1119
11.132
11.1499
11.165
11.1773
11.1874
11.196
11.2034
11.2098
11.215
11.219
11.2219
11.2239
11.2248
11.2241
11.2214
11.2192
11.2157
11.2145
1
1
1
1
1
1
1
1
1
1
1
1
1
1
1
1
1
1
1
1
1
1
1
1
1
1
1
1
1
1
1
1
1
1
1
1
1
1
1
1
1
1
1
1
1
1
1
1
1
1
2.33105
8.7463
10.1569
10.1943
10.2734
10.326
10.3757
10.4237
10.4695
10.5109
10.5473
10.5802
10.6124
10.6453
10.679
10.7125
10.7438
10.7713
10.7974
10.8236
10.8494
10.8749
10.8972
10.915
10.9292
10.9425
10.9567
10.972
10.9864
10.9981
11.006
11.0107
11.0132
11.0138
11.0135
11.0118
11.0088
11.005
11.0008
10.9959
10.9877
10.9744
10.9519
10.9229
10.8917
10.8652
1
1
1
1
1
1
1
1
1
1
1
1
1
1
1
1
1
1
1
1
1
1
1
1
1
1
1
1
1
1
1
1
1
1
1
1
1
1
1
1
1
1
1
1
1
1
1
1
1
1
1.05428
6.28705
10.2003
10.226
10.2411
10.275
10.3127
10.3531
10.3929
10.4295
10.4617
10.4901
10.517
10.5445
10.5732
10.6018
10.6289
10.6529
10.6739
10.6947
10.7148
10.7345
10.7522
10.765
10.7728
10.778
10.7841
10.7921
10.8002
10.8054
10.8052
10.8002
10.7913
10.7796
10.7653
10.7467
10.7222
10.6916
10.6554
10.6144
10.5693
10.5211
10.4765
10.4325
10.4057
10.3898
1
1
1
1
1
1
1
1
1
1
1
1
1
1
1
1
1
1
1
1
1
1
1
1
1
1
1
1
1
1
1
1
1
1
1
1
1
1
1
1
1
1
1
1
1
1
1
1
1
1
1.00007
3.20142
9.19449
10.0312
10.0796
10.1428
10.1891
10.2346
10.2784
10.3189
10.3541
10.3837
10.409
10.4321
10.4555
10.4797
10.5026
10.5224
10.5383
10.5518
10.5651
10.5786
10.5925
10.6023
10.6038
10.5986
10.5918
10.5871
10.5844
10.5802
10.5698
10.5517
10.5268
10.4968
10.462
10.4209
10.3714
10.313
10.247
10.1772
10.106
10.0347
9.94914
9.86322
9.73926
9.82405
1
1
1
1
1
1
1
1
1
1
1
1
1
1
1
1
1
1
1
1
1
1
1
1
1
1
1
1
1
1
1
1
1
1
1
1
1
1
1
1
1
1
1
1
1
1
1
1
1
1
1
1.16785
7.13267
10.134
10.093
10.111
10.1428
10.1775
10.2136
10.2464
10.2738
10.2964
10.3154
10.3325
10.3497
10.3679
10.3849
10.3984
10.4078
10.4142
10.4202
10.4276
10.4359
10.4422
10.44
10.4274
10.4088
10.3898
10.3735
10.3575
10.3358
10.305
10.2642
10.2147
10.1567
10.0888
10.0071
9.90789
9.78481
9.63533
9.44334
9.19524
8.82616
8.27595
7.34473
5.45402
1
1
1
1
1
1
1
1
1
1
1
1
1
1
1
1
1
1
1
1
1
1
1
1
1
1
1
1
1
1
1
1
1
1
1
1
1
1
1
1
1
1
1
1
1
1
1
1
1
1
1
1.00094
4.46518
9.63395
9.92587
9.97558
10.0219
10.0587
10.0978
10.1349
10.1663
10.1915
10.2111
10.2266
10.2403
10.2555
10.2715
10.2853
10.2937
10.2958
10.2934
10.2913
10.2912
10.2932
10.2895
10.2739
10.2482
10.2175
10.1875
10.1585
10.1255
10.0834
10.0293
9.96306
9.88335
9.78961
9.67519
9.53677
9.35916
9.14167
8.85591
8.50155
7.9984
7.34276
6.13221
4.50169
1
1
1
1
1
1
1
1
1
1
1
1
1
1
1
1
1
1
1
1
1
1
1
1
1
1
1
1
1
1
1
1
1
1
1
1
1
1
1
1
1
1
1
1
1
1
1
1
1
1
1
0.999997
1.83907
8.12223
9.92209
9.92354
9.96176
9.99036
10.022
10.0546
10.0824
10.1044
10.1205
10.1334
10.1434
10.1538
10.1654
10.1767
10.1841
10.1831
10.1748
10.1632
10.1528
10.1453
10.1344
10.114
10.0825
10.0423
9.99916
9.9561
9.90949
9.85496
9.78695
9.70496
9.60482
9.48672
9.34217
9.16887
8.95069
8.68309
8.34807
7.92769
7.39463
6.65661
5.63329
4.56338
1
1
1
1
1
1
1
1
1
1
1
1
1
1
1
1
1
1
1
1
1
1
1
1
1
1
1
1
1
1
1
1
1
1
1
1
1
1
1
1
1
1
1
1
1
1
1
1
1
1
1
1
1.02536
5.24157
9.74703
9.85718
9.88969
9.91252
9.93824
9.96697
9.99214
10.013
10.0296
10.044
10.0502
10.0522
10.0527
10.0548
10.057
10.0556
10.0478
10.0337
10.0176
10.0003
9.97933
9.95099
9.91165
9.8623
9.80784
9.75234
9.69212
9.62435
9.54219
9.44557
9.32869
9.19116
9.02543
8.82789
8.58734
8.29396
7.94031
7.50383
6.9743
6.31524
5.53387
4.73352
1
1
1
1
1
1
1
1
1
1
1
1
1
1
1
1
1
1
1
1
1
1
1
1
1
1
1
1
1
1
1
1
1
1
1
1
1
1
1
1
1
1
1
1
1
1
1
1
1
1
1
1
0.999996
2.11784
8.37271
9.80425
9.81665
9.84267
9.86253
9.88481
9.90397
9.92049
9.9354
9.95181
9.95739
9.95595
9.94886
9.94061
9.93363
9.92821
9.91947
9.90525
9.88662
9.86165
9.83098
9.79262
9.7434
9.68544
9.62161
9.55575
9.48367
9.40312
9.30801
9.19804
9.06821
8.91656
8.73802
8.52821
8.27957
7.98234
7.6373
7.21456
6.72816
6.1783
5.56747
4.92609
1
1
1
1
1
1
1
1
1
1
1
1
1
1
1
1
1
1
1
1
1
1
1
1
1
1
1
1
1
1
1
1
1
1
1
1
1
1
1
1
1
1
1
1
1
1
1
1
1
1
1
1
0.999998
1.041
5.37636
9.64943
9.74563
9.76864
9.78739
9.80504
9.81766
9.82675
9.83653
9.85238
9.85935
9.8595
9.85026
9.83392
9.81696
9.80427
9.79082
9.77408
9.75361
9.72362
9.68543
9.63825
9.5796
9.51356
9.44138
9.36669
9.28568
9.19525
9.09015
8.96836
8.82716
8.66496
8.47918
8.2662
8.02101
7.73355
7.41197
7.02382
6.59739
6.1411
5.63055
5.11801
1
1
1
1
1
1
1
1
1
1
1
1
1
1
1
1
1
1
1
1
1
1
1
1
1
1
1
1
1
1
1
1
1
1
1
1
1
1
1
1
1
1
1
1
1
1
1
1
1
1
1
1
1
1.00003
1.99486
8.19403
9.68254
9.69705
9.71905
9.73399
9.74141
9.73784
9.73633
9.74075
9.74094
9.74175
9.73671
9.72135
9.70272
9.6873
9.66965
9.64785
9.62121
9.58369
9.5372
9.48331
9.41972
9.34932
9.27163
9.18908
9.10084
9.00403
8.89323
8.76438
8.61568
8.44752
8.25907
8.04739
7.8122
7.53637
7.24222
6.8958
6.52639
6.13898
5.70291
5.27757
1
1
1
1
1
1
1
1
1
1
1
1
1
1
1
1
1
1
1
1
1
1
1
1
1
1
1
1
1
1
1
1
1
1
1
1
1
1
1
1
1
1
1
1
1
1
1
1
1
1
1
1
1
1
1.0305
4.83985
9.3647
9.6059
9.6234
9.63906
9.65161
9.65239
9.65208
9.65111
9.64577
9.63937
9.62976
9.61325
9.59235
9.57358
9.55219
9.52615
9.49312
9.44889
9.39432
9.33337
9.2658
9.19325
9.11271
9.02383
8.92899
8.82784
8.71425
8.58203
8.42956
8.25931
8.07269
7.86449
7.64094
7.37893
7.11162
6.80172
6.48025
6.1459
5.7755
5.40729
1
1
1
1
1
1
1
1
1
1
1
1
1
1
1
1
1
1
1
1
1
1
1
1
1
1
1
1
1
1
1
1
1
1
1
1
1
1
1
1
1
1
1
1
1
1
1
1
1
1
1
1
1
1
1.00002
1.49433
7.55049
9.64137
9.59527
9.58543
9.57609
9.57072
9.56391
9.55231
9.53941
9.5273
9.51536
9.49993
9.47862
9.45695
9.43249
9.40153
9.3625
9.31337
9.25267
9.18678
9.11698
9.04439
8.96355
8.87084
8.77055
8.66584
8.55095
8.41897
8.26807
8.10094
7.92114
7.71851
7.50515
7.26175
7.01673
6.73476
6.45178
6.15124
5.83161
5.50803
1
1
1
1
1
1
1
1
1
1
1
1
1
1
1
1
1
1
1
1
1
1
1
1
1
1
1
1
1
1
1
1
1
1
1
1
1
1
1
1
1
1
1
1
1
1
1
1
1
1
1
1
1
1
1
1.00724
3.82802
8.93187
9.39967
9.43395
9.46831
9.47494
9.47025
9.45237
9.43048
9.41216
9.39708
9.38118
9.35955
9.33486
9.30665
9.26988
9.22606
9.17572
9.11521
9.04932
8.97891
8.90602
8.82468
8.72982
8.62617
8.51824
8.40053
8.2693
8.12327
7.96154
7.79033
7.59768
7.3962
7.17431
6.94638
6.69016
6.43461
6.15602
5.8811
5.59504
1
1
1
1
1
1
1
1
1
1
1
1
1
1
1
1
1
1
1
1
1
1
1
1
1
1
1
1
1
1
1
1
1
1
1
1
1
1
1
1
1
1
1
1
1
1
1
1
1
1
1
1
1
1
1
1
1.21347
6.14986
9.31037
9.37525
9.39537
9.39484
9.38888
9.37028
9.34334
9.31868
9.29846
9.27882
9.25583
9.22709
9.19425
9.15309
9.10412
9.05022
8.99042
8.92532
8.85427
8.77988
8.69667
8.60087
8.49779
8.38629
8.26677
8.13481
7.99385
7.83824
7.67656
7.49826
7.30905
7.10653
6.89383
6.66161
6.42368
6.16872
5.9274
5.66927
1
1
1
1
1
1
1
1
1
1
1
1
1
1
1
1
1
1
1
1
1
1
1
1
1
1
1
1
1
1
1
1
1
1
1
1
1
1
1
1
1
1
1
1
1
1
1
1
1
1
1
1
1
1
1
1
1.0014
2.07955
7.9183
9.32221
9.25957
9.27895
9.28182
9.27382
9.25443
9.22816
9.20281
9.17739
9.15006
9.11755
9.07919
9.03753
8.9861
8.9298
8.86999
8.80608
8.73425
8.65758
8.57212
8.47853
8.37776
8.26335
8.14653
8.01428
7.87642
7.7277
7.57502
7.41107
7.2332
7.04833
6.8495
6.63816
6.41683
6.19089
5.96904
5.73517
1
1
1
1
1
1
1
1
1
1
1
1
1
1
1
1
1
1
1
1
1
1
1
1
1
1
1
1
1
1
1
1
1
1
1
1
1
1
1
1
1
1
1
1
1
1
1
1
1
1
1
1
1
1
1
1
1
1.03321
4.06627
8.85706
9.15395
9.17102
9.18439
9.17986
9.16597
9.14124
9.1139
9.084
9.05255
9.01641
8.97292
8.92893
8.88047
8.82328
8.76359
8.69941
8.62638
8.54511
8.45894
8.36998
8.26945
8.15732
8.03662
7.9084
7.77572
7.6343
7.48979
7.33502
7.16739
6.99573
6.8081
6.61585
6.41192
6.21198
6.00259
5.79553
1
1
1
1
1
1
1
1
1
1
1
1
1
1
1
1
1
1
1
1
1
1
1
1
1
1
1
1
1
1
1
1
1
1
1
1
1
1
1
1
1
1
1
1
1
1
1
1
1
1
1
1
1
1
1
1
1
1.00006
1.24051
5.62965
8.99711
9.15494
9.13319
9.12626
9.10733
9.07591
9.04039
9.00407
8.96627
8.9263
8.87848
8.82875
8.78165
8.72568
8.66655
8.60305
8.52961
8.444
8.35693
8.2696
8.16864
8.05975
7.94065
7.81335
7.68623
7.5531
7.41726
7.27003
7.11254
6.94817
6.77225
6.59442
6.40832
6.22814
6.03365
5.84861
1
1
1
1
1
1
1
1
1
1
1
1
1
1
1
1
1
1
1
1
1
1
1
1
1
1
1
1
1
1
1
1
1
1
1
1
1
1
1
1
1
1
1
1
1
1
1
1
1
1
1
1
1
1
1
1
1
1
1.00184
1.59287
7.15506
9.14448
9.08616
9.063
9.02044
8.98299
8.94677
8.91002
8.87385
8.8354
8.78713
8.73448
8.68425
8.62838
8.5681
8.50619
8.43605
8.35165
8.26518
8.1766
8.07832
7.97112
7.85609
7.73386
7.61041
7.48383
7.35476
7.2149
7.06629
6.9078
6.744
6.57775
6.40861
6.24109
6.06251
5.89116
1
1
1
1
1
1
1
1
1
1
1
1
1
1
1
1
1
1
1
1
1
1
1
1
1
1
1
1
1
1
1
1
1
1
1
1
1
1
1
1
1
1
1
1
1
1
1
1
1
1
1
1
1
1
1
1
1
1
1
1.01012
2.90129
8.24557
8.96879
8.89833
8.86869
8.84655
8.8274
8.80255
8.77179
8.7382
8.69397
8.64495
8.59349
8.53681
8.47683
8.41364
8.34508
8.26375
8.17968
8.09036
7.99622
7.89273
7.78266
7.66626
7.54647
7.42466
7.29969
7.16697
7.02585
6.87443
6.72337
6.56831
6.41244
6.25368
6.08887
5.92579
1
1
1
1
1
1
1
1
1
1
1
1
1
1
1
1
1
1
1
1
1
1
1
1
1
1
1
1
1
1
1
1
1
1
1
1
1
1
1
1
1
1
1
1
1
1
1
1
1
1
1
1
1
1
1
1
1
1
1
1.00001
1.09487
4.26339
8.5936
8.7963
8.76242
8.76371
8.75266
8.7332
8.70473
8.67065
8.6268
8.578
8.52337
8.46292
8.39961
8.3337
8.26151
8.18262
8.09848
8.01365
7.92139
7.82233
7.71721
7.60647
7.49158
7.37402
7.25292
7.12683
6.99162
6.84853
6.709
6.56364
6.41739
6.26724
6.11304
5.9556
1
1
1
1
1
1
1
1
1
1
1
1
1
1
1
1
1
1
1
1
1
1
1
1
1
1
1
1
1
1
1
1
1
1
1
1
1
1
1
1
1
1
1
1
1
1
1
1
1
1
1
1
1
1
1
1
1
1
1
1
1.00041
1.27512
5.11337
8.5848
8.70811
8.70546
8.69754
8.67437
8.64501
8.60857
8.56403
8.51342
8.45676
8.3956
8.33061
8.26228
8.18858
8.10701
8.02328
7.94144
7.8523
7.75672
7.65638
7.55136
7.4423
7.32964
7.21291
7.09302
6.96304
6.82865
6.69813
6.5606
6.42076
6.27917
6.1328
5.98149
1
1
1
1
1
1
1
1
1
1
1
1
1
1
1
1
1
1
1
1
1
1
1
1
1
1
1
1
1
1
1
1
1
1
1
1
1
1
1
1
1
1
1
1
1
1
1
1
1
1
1
1
1
1
1
1
1
1
1
1
1
1.00251
1.46808
5.77607
8.58122
8.6829
8.65185
8.6206
8.58547
8.54526
8.50122
8.45308
8.39867
8.33812
8.27211
8.20122
8.12578
8.04487
7.96201
7.87985
7.79238
7.69953
7.60252
7.50172
7.39782
7.28989
7.17748
7.06281
6.938
6.80953
6.6843
6.5531
6.41957
6.28719
6.14841
6.00471
1
1
1
1
1
1
1
1
1
1
1
1
1
1
1
1
1
1
1
1
1
1
1
1
1
1
1
1
1
1
1
1
1
1
1
1
1
1
1
1
1
1
1
1
1
1
1
1
1
1
1
1
1
1
1
1
1
1
1
1
1
1
1.00661
1.68301
6.35215
8.54389
8.60148
8.56829
8.52692
8.48534
8.44009
8.39145
8.3377
8.27891
8.21482
8.14462
8.0693
7.99039
7.9096
7.82657
7.73914
7.64785
7.55326
7.45533
7.35501
7.25051
7.14182
7.03136
6.91194
6.78874
6.66842
6.54358
6.41745
6.29379
6.16262
6.0268
1
1
1
1
1
1
1
1
1
1
1
1
1
1
1
1
1
1
1
1
1
1
1
1
1
1
1
1
1
1
1
1
1
1
1
1
1
1
1
1
1
1
1
1
1
1
1
1
1
1
1
1
1
1
1
1
1
1
1
1
1
1
1.00001
1.01328
1.93208
6.7701
8.50554
8.51993
8.48711
8.44256
8.39561
8.34121
8.28243
8.22278
8.15897
8.0896
8.0163
7.94076
7.8632
7.78215
7.6964
7.60628
7.51256
7.4157
7.31671
7.21402
7.10795
7.00116
6.88808
6.77125
6.65659
6.53728
6.41795
6.30082
6.17708
6.04841
1
1
1
1
1
1
1
1
1
1
1
1
1
1
1
1
1
1
1
1
1
1
1
1
1
1
1
1
1
1
1
1
1
1
1
1
1
1
1
1
1
1
1
1
1
1
1
1
1
1
1
1
1
1
1
1
1
1
1
1
1
1
1
1.00003
1.02384
2.17126
7.09107
8.46451
8.45268
8.40584
8.35101
8.29159
8.23232
8.17152
8.10531
8.03584
7.96491
7.89248
7.81755
7.73841
7.65403
7.56509
7.47274
7.37757
7.28075
7.18082
7.07766
6.97422
6.86688
6.75585
6.64543
6.53143
6.41837
6.30642
6.19002
6.06807
1
1
1
1
1
1
1
1
1
1
1
1
1
1
1
1
1
1
1
1
1
1
1
1
1
1
1
1
1
1
1
1
1
1
1
1
1
1
1
1
1
1
1
1
1
1
1
1
1
1
1
1
1
1
1
1
1
1
1
1
1
1
1
1
1.00007
1.03706
2.39647
7.34971
8.40307
8.35815
8.30719
8.24411
8.18196
8.11973
8.05571
7.99011
7.92222
7.85114
7.7765
7.69718
7.61341
7.52592
7.43553
7.34305
7.24891
7.15206
7.05223
6.95208
6.84978
6.7442
6.63742
6.52876
6.42058
6.31205
6.2014
6.08551
1
1
1
1
1
1
1
1
1
1
1
1
1
1
1
1
1
1
1
1
1
1
1
1
1
1
1
1
1
1
1
1
1
1
1
1
1
1
1
1
1
1
1
1
1
1
1
1
1
1
1
1
1
1
1
1
1
1
1
1
1
1
1
1
1
1.00013
1.05229
2.69323
7.4544
8.28873
8.23974
8.18737
8.13367
8.07305
8.01051
7.94557
7.87814
7.80792
7.73373
7.65554
7.57376
7.48879
7.40153
7.3123
7.22109
7.12762
7.03144
6.93427
6.83566
6.73442
6.63134
6.5273
6.42312
6.31755
6.21048
6.10003
1
1
1
1
1
1
1
1
1
1
1
1
1
1
1
1
1
1
1
1
1
1
1
1
1
1
1
1
1
1
1
1
1
1
1
1
1
1
1
1
1
1
1
1
1
1
1
1
1
1
1
1
1
1
1
1
1
1
1
1
1
1
1
1
1
1
1.00021
1.07627
2.82075
7.4174
8.18282
8.14223
8.08991
8.03561
7.97619
7.91328
7.84584
7.77353
7.6974
7.61934
7.53924
7.45708
7.37296
7.28689
7.19873
7.10809
7.01485
6.92
6.82416
6.72664
6.6269
6.52669
6.42617
6.32289
6.21911
6.11219
1
1
1
1
1
1
1
1
1
1
1
1
1
1
1
1
1
1
1
1
1
1
1
1
1
1
1
1
1
1
1
1
1
1
1
1
1
1
1
1
1
1
1
1
1
1
1
1
1
1
1
1
1
1
1
1
1
1
1
1
1
1
1
1
1
1
1
1.00038
1.08947
2.80786
7.32405
8.09899
8.05522
8.00017
7.94078
7.87696
7.80946
7.73708
7.66136
7.58471
7.50678
7.42711
7.34539
7.26167
7.17595
7.08831
6.99828
6.90588
6.81292
6.71831
6.62142
6.52482
6.42709
6.32719
6.22543
6.12153
1
1
1
1
1
1
1
1
1
1
1
1
1
1
1
1
1
1
1
1
1
1
1
1
1
1
1
1
1
1
1
1
1
1
1
1
1
1
1
1
1
1
1
1
1
1
1
1
1
1
1
1
1
1
1
1
1
1
1
1
1
1
1
1
1
1
1
1
1.0005
1.0895
2.78109
7.15771
7.99809
7.96186
7.89923
7.83503
7.76552
7.69528
7.62469
7.55195
7.47661
7.39892
7.31997
7.23913
7.15582
7.0704
6.98289
6.89359
6.8029
6.71148
6.61886
6.52322
6.42793
6.3314
6.23182
6.13318
1
1
1
1
1
1
1
1
1
1
1
1
1
1
1
1
1
1
1
1
1
1
1
1
1
1
1
1
1
1
1
1
1
1
1
1
1
1
1
1
1
1
1
1
1
1
1
1
1
1
1
1
1
1
1
1
1
1
1
1
1
1
1
1
1
1
1
1
1
1.0005
1.08711
2.67856
6.9131
7.89194
7.86406
7.79498
7.7289
7.65985
7.59183
7.52206
7.44992
7.37492
7.29762
7.21796
7.1358
7.05072
6.96556
6.88018
6.79247
6.70413
6.61412
6.52256
6.43091
6.33567
6.24332
6.14654
1
1
1
1
1
1
1
1
1
1
1
1
1
1
1
1
1
1
1
1
1
1
1
1
1
1
1
1
1
1
1
1
1
1
1
1
1
1
1
1
1
1
1
1
1
1
1
1
1
1
1
1
1
1
1
1
1
1
1
1
1
1
1
1
1
1
1
1
1
1
1.00049
1.07779
2.50961
6.59783
7.75902
7.75661
7.688
7.62706
7.56201
7.49458
7.42434
7.35147
7.27565
7.19752
7.11739
7.03505
6.95084
6.86589
6.78153
6.69591
6.60972
6.52474
6.43679
6.34697
6.25571
6.16235
1
1
1
1
1
1
1
1
1
1
1
1
1
1
1
1
1
1
1
1
1
1
1
1
1
1
1
1
1
1
1
1
1
1
1
1
1
1
1
1
1
1
1
1
1
1
1
1
1
1
1
1
1
1
1
1
1
1
1
1
1
1
1
1
1
1
1
1
1
1
1
1.00042
1.06329
2.30747
6.1114
7.65658
7.675
7.60302
7.53544
7.46256
7.39142
7.3213
7.25084
7.17662
7.09848
7.01913
6.93779
6.85519
6.77426
6.69318
6.61126
6.5276
6.44309
6.35869
6.27073
6.1864
1
1
1
1
1
1
1
1
1
1
1
1
1
1
1
1
1
1
1
1
1
1
1
1
1
1
1
1
1
1
1
1
1
1
1
1
1
1
1
1
1
1
1
1
1
1
1
1
1
1
1
1
1
1
1
1
1
1
1
1
1
1
1
1
1
1
1
1
1
1
1
1
1.00031
1.04794
2.03746
5.55372
7.47626
7.60105
7.50967
7.43921
7.36587
7.29366
7.22185
7.14923
7.07699
7.00573
6.93226
6.85495
6.77635
6.69657
6.61593
6.53527
6.45329
6.3725
6.289
6.20529
1
1
1
1
1
1
1
1
1
1
1
1
1
1
1
1
1
1
1
1
1
1
1
1
1
1
1
1
1
1
1
1
1
1
1
1
1
1
1
1
1
1
1
1
1
1
1
1
1
1
1
1
1
1
1
1
1
1
1
1
1
1
1
1
1
1
1
1
1
1
1
1
1
1.00021
1.03126
1.77424
4.80949
7.29
7.49821
7.41262
7.34881
7.28434
7.21684
7.14607
7.07426
7.00164
6.9291
6.8564
6.78308
6.7081
6.6306
6.55077
6.46892
6.38774
6.3041
6.22334
1
1
1
1
1
1
1
1
1
1
1
1
1
1
1
1
1
1
1
1
1
1
1
1
1
1
1
1
1
1
1
1
1
1
1
1
1
1
1
1
1
1
1
1
1
1
1
1
1
1
1
1
1
1
1
1
1
1
1
1
1
1
1
1
1
1
1
1
1
1
1
1
1
1
1.00012
1.0184
1.51408
4.03924
6.97971
7.39595
7.34153
7.28374
7.21302
7.14468
7.07451
7.0037
6.93294
6.86109
6.78634
6.71108
6.63397
6.55745
6.48028
6.40218
6.32329
6.24152
1
1
1
1
1
1
1
1
1
1
1
1
1
1
1
1
1
1
1
1
1
1
1
1
1
1
1
1
1
1
1
1
1
1
1
1
1
1
1
1
1
1
1
1
1
1
1
1
1
1
1
1
1
1
1
1
1
1
1
1
1
1
1
1
1
1
1
1
1
1
1
1
1
1
1
1.00005
1.00915
1.30846
3.28902
6.5292
7.28979
7.29216
7.20331
7.139
7.07217
7.00323
6.93351
6.86329
6.79155
6.71765
6.64304
6.56666
6.49082
6.41298
6.33562
6.25538
1
1
1
1
1
1
1
1
1
1
1
1
1
1
1
1
1
1
1
1
1
1
1
1
1
1
1
1
1
1
1
1
1
1
1
1
1
1
1
1
1
1
1
1
1
1
1
1
1
1
1
1
1
1
1
1
1
1
1
1
1
1
1
1
1
1
1
1
1
1
1
1
1
1
1
1
1.00002
1.00395
1.16636
2.63121
5.86021
7.13933
7.25932
7.14016
7.07415
7.00856
6.94105
6.86968
6.79738
6.72443
6.65012
6.57755
6.50267
6.42594
6.3463
6.26912
1
1
1
1
1
1
1
1
1
1
1
1
1
1
1
1
1
1
1
1
1
1
1
1
1
1
1
1
1
1
1
1
1
1
1
1
1
1
1
1
1
1
1
1
1
1
1
1
1
1
1
1
1
1
1
1
1
1
1
1
1
1
1
1
1
1
1
1
1
1
1
1
1
1
1
1
1
1.00001
1.00149
1.08137
2.0715
4.97547
6.94522
7.14256
7.076
7.00673
6.93677
6.86882
6.79624
6.7291
6.65846
6.58412
6.50616
6.43107
6.35179
6.27963
1
1
1
1
1
1
1
1
1
1
1
1
1
1
1
1
1
1
1
1
1
1
1
1
1
1
1
1
1
1
1
1
1
1
1
1
1
1
1
1
1
1
1
1
1
1
1
1
1
1
1
1
1
1
1
1
1
1
1
1
1
1
1
1
1
1
1
1
1
1
1
1
1
1
1
1
1
1
1
1.0005
1.0355
1.629
3.97455
6.58665
7.03827
7.03283
6.93815
6.86576
6.80535
6.74166
6.66674
6.59086
6.51475
6.43613
6.39788
6.3768
1
1
1
1
1
1
1
1
1
1
1
1
1
1
1
1
1
1
1
1
1
1
1
1
1
1
1
1
1
1
1
1
1
1
1
1
1
1
1
1
1
1
1
1
1
1
1
1
1
1
1
1
1
1
1
1
1
1
1
1
1
1
1
1
1
1
1
1
1
1
1
1
1
1
1
1
1
1
1
1
1.00015
1.01351
1.31806
3.04216
5.95829
6.89341
6.96163
6.88835
6.83282
6.76024
6.66498
6.60062
6.57296
6.62491
6.79694
7.15675
1
1
1
1
1
1
1
1
1
1
1
1
1
1
1
1
1
1
1
1
1
1
1
1
1
1
1
1
1
1
1
1
1
1
1
1
1
1
1
1
1
1
1
1
1
1
1
1
1
1
1
1
1
1
1
1
1
1
1
1
1
1
1
1
1
1
1
1
1
1
1
1
1
1
1
1
1
1
1
1
1
1.00004
1.0044
1.13779
2.27811
5.03791
6.69862
6.89572
6.80696
6.7033
6.73928
6.89129
7.2342
7.80059
8.46733
9.0387
1
1
1
1
1
1
1
1
1
1
1
1
1
1
1
1
1
1
1
1
1
1
1
1
1
1
1
1
1
1
1
1
1
1
1
1
1
1
1
1
1
1
1
1
1
1
1
1
1
1
1
1
1
1
1
1
1
1
1
1
1
1
1
1
1
1
1
1
1
1
1
1
1
1
1
1
1
1
1
1
1
1
1.00001
1.00113
1.05266
1.71238
3.88809
6.39607
6.65529
7.17255
7.78542
8.56809
9.24358
9.75883
10.0264
10.126
1
1
1
1
1
1
1
1
1
1
1
1
1
1
1
1
1
1
1
1
1
1
1
1
1
1
1
1
1
1
1
1
1
1
1
1
1
1
1
1
1
1
1
1
1
1
1
1
1
1
1
1
1
1
1
1
1
1
1
1
1
1
1
1
1
1
1
1
1
1
1
1
1
1
1
1
1
1
1
1
1
1
1
1
1.00028
1.01708
1.32763
2.86839
6.00611
9.52208
10.1119
10.4536
10.5526
10.5122
10.404
10.2807
1
1
1
1
1
1
1
1
1
1
1
1
1
1
1
1
1
1
1
1
1
1
1
1
1
1
1
1
1
1
1
1
1
1
1
1
1
1
1
1
1
1
1
1
1
1
1
1
1
1
1
1
1
1
1
1
1
1
1
1
1
1
1
1
1
1
1
1
1
1
1
1
1
1
1
1
1
1
1
1
1
1
1
1
1
1.00005
1.00507
1.11277
5.88001
11.5275
11.247
11.0158
10.8453
10.6435
10.4483
10.2758
1
1
1
1
1
1
1
1
1
1
1
1
1
1
1
1
1
1
1
1
1
1
1
1
1
1
1
1
1
1
1
1
1
1
1
1
1
1
1
1
1
1
1
1
1
1
1
1
1
1
1
1
1
1
1
1
1
1
1
1
1
1
1
1
1
1
1
1
1
1
1
1
1
1
1
1
1
1
1
1
1
1
1
1
1
1
1.00001
1.0008
5.7958
10.9968
10.8025
10.5803
10.4448
10.3265
10.2329
10.1544
1
1
1
1
1
1
1
1
1
1
1
1
1
1
1
1
1
1
1
1
1
1
1
1
1
1
1
1
1
1
1
1
1
1
1
1
1
1
1
1
1
1
1
1
1
1
1
1
1
1
1
1
1
1
1
1
1
1
1
1
1
1
1
1
1
1
1
1
1
1
1
1
1
1
1
1
1
1
1
1
1
1
1
1
1
1
1
1
4.83896
10.2884
10.5211
10.5057
10.4649
10.3951
10.3256
10.27
1
1
1
1
1
1
1
1
1
1
1
1
1
1
1
1
1
1
1
1
1
1
1
1
1
1
1
1
1
1
1
1
1
1
1
1
1
1
1
1
1
1
1
1
1
1
1
1
1
1
1
1
1
1
1
1
1
1
1
1
1
1
1
1
1
1
1
1
1
1
1
1
1
1
1
1
1
1
1
1
1
1
1
1
1
1
1
1
3.5836
9.70872
10.3836
10.3697
10.3713
10.359
10.3229
10.2741
1
1
1
1
1
1
1
1
1
1
1
1
1
1
1
1
1
1
1
1
1
1
1
1
1
1
1
1
1
1
1
1
1
1
1
1
1
1
1
1
1
1
1
1
1
1
1
1
1
1
1
1
1
1
1
1
1
1
1
1
1
1
1
1
1
1
1
1
1
1
1
1
1
1
1
1
1
1
1
1
1
1
1
1
1
1
1
1
2.37836
8.97889
10.3978
10.3763
10.3528
10.3146
10.2854
10.2521
1
1
1
1
1
1
1
1
1
1
1
1
1
1
1
1
1
1
1
1
1
1
1
1
1
1
1
1
1
1
1
1
1
1
1
1
1
1
1
1
1
1
1
1
1
1
1
1
1
1
1
1
1
1
1
1
1
1
1
1
1
1
1
1
1
1
1
1
1
1
1
1
1
1
1
1
1
1
1
1
1
1
1
1
1
1
1
1
1.47722
7.88341
10.4336
10.3922
10.3536
10.3191
10.288
10.2534
1
1
1
1
1
1
1
1
1
1
1
1
1
1
1
1
1
1
1
1
1
1
1
1
1
1
1
1
1
1
1
1
1
1
1
1
1
1
1
1
1
1
1
1
1
1
1
1
1
1
1
1
1
1
1
1
1
1
1
1
1
1
1
1
1
1
1
1
1
1
1
1
1
1
1
1
1
1
1
1
1
1
1
1
1
1
1
1
1.01287
6.59435
10.3624
10.4058
10.3422
10.3084
10.2751
10.242
1
1
1
1
1
1
1
1
1
1
1
1
1
1
1
1
1
1
1
1
1
1
1
1
1
1
1
1
1
1
1
1
1
1
1
1
1
1
1
1
1
1
1
1
1
1
1
1
1
1
1
1
1
1
1
1
1
1
1
1
1
1
1
1
1
1
1
1
1
1
1
1
1
1
1
1
1
1
1
1
1
1
1
1
1
1
1
1
1.00001
5.21423
10.1349
10.376
10.327
10.3025
10.2709
10.2373
1
1
1
1
1
1
1
1
1
1
1
1
1
1
1
1
1
1
1
1
1
1
1
1
1
1
1
1
1
1
1
1
1
1
1
1
1
1
1
1
1
1
1
1
1
1
1
1
1
1
1
1
1
1
1
1
1
1
1
1
1
1
1
1
1
1
1
1
1
1
1
1
1
1
1
1
1
1
1
1
1
1
1
1
1
1
1
1
1
3.90294
9.80704
10.4207
10.359
10.3282
10.2908
10.2527
1
1
1
1
1
1
1
1
1
1
1
1
1
1
1
1
1
1
1
1
1
1
1
1
1
1
1
1
1
1
1
1
1
1
1
1
1
1
1
1
1
1
1
1
1
1
1
1
1
1
1
1
1
1
1
1
1
1
1
1
1
1
1
1
1
1
1
1
1
1
1
1
1
1
1
1
1
1
1
1
1
1
1
1
1
1
1
1
1
2.77734
9.3517
10.4402
10.3722
10.3409
10.3026
10.2634
1
1
1
1
1
1
1
1
1
1
1
1
1
1
1
1
1
1
1
1
1
1
1
1
1
1
1
1
1
1
1
1
1
1
1
1
1
1
1
1
1
1
1
1
1
1
1
1
1
1
1
1
1
1
1
1
1
1
1
1
1
1
1
1
1
1
1
1
1
1
1
1
1
1
1
1
1
1
1
1
1
1
1
1
1
1
1
1
1
1.94808
8.64619
10.4731
10.4045
10.3687
10.3298
10.2894
1
1
1
1
1
1
1
1
1
1
1
1
1
1
1
1
1
1
1
1
1
1
1
1
1
1
1
1
1
1
1
1
1
1
1
1
1
1
1
1
1
1
1
1
1
1
1
1
1
1
1
1
1
1
1
1
1
1
1
1
1
1
1
1
1
1
1
1
1
1
1
1
1
1
1
1
1
1
1
1
1
1
1
1
1
1
1
1
1
1.42904
7.82556
10.4966
10.443
10.3969
10.3561
10.3143
1
1
1
1
1
1
1
1
1
1
1
1
1
1
1
1
1
1
1
1
1
1
1
1
1
1
1
1
1
1
1
1
1
1
1
1
1
1
1
1
1
1
1
1
1
1
1
1
1
1
1
1
1
1
1
1
1
1
1
1
1
1
1
1
1
1
1
1
1
1
1
1
1
1
1
1
1
1
1
1
1
1
1
1
1
1
1
1
1
1.03075
6.85166
10.4741
10.4878
10.4276
10.3893
10.3469
1
1
1
1
1
1
1
1
1
1
1
1
1
1
1
1
1
1
1
1
1
1
1
1
1
1
1
1
1
1
1
1
1
1
1
1
1
1
1
1
1
1
1
1
1
1
1
1
1
1
1
1
1
1
1
1
1
1
1
1
1
1
1
1
1
1
1
1
1
1
1
1
1
1
1
1
1
1
1
1
1
1
1
1
1
1
1
1
1
1.00007
5.92626
10.3875
10.4948
10.4343
10.3987
10.3564
1
1
1
1
1
1
1
1
1
1
1
1
1
1
1
1
1
1
1
1
1
1
1
1
1
1
1
1
1
1
1
1
1
1
1
1
1
1
1
1
1
1
1
1
1
1
1
1
1
1
1
1
1
1
1
1
1
1
1
1
1
1
1
1
1
1
1
1
1
1
1
1
1
1
1
1
1
1
1
1
1
1
1
1
1
1
1
1
1
1
5.07928
10.2741
10.5244
10.4578
10.4211
10.3777
1
1
1
1
1
1
1
1
1
1
1
1
1
1
1
1
1
1
1
1
1
1
1
1
1
1
1
1
1
1
1
1
1
1
1
1
1
1
1
1
1
1
1
1
1
1
1
1
1
1
1
1
1
1
1
1
1
1
1
1
1
1
1
1
1
1
1
1
1
1
1
1
1
1
1
1
1
1
1
1
1
1
1
1
1
1
1
1
1
1
4.40944
10.1256
10.5509
10.4731
10.4318
10.3868
1
1
1
1
1
1
1
1
1
1
1
1
1
1
1
1
1
1
1
1
1
1
1
1
1
1
1
1
1
1
1
1
1
1
1
1
1
1
1
1
1
1
1
1
1
1
1
1
1
1
1
1
1
1
1
1
1
1
1
1
1
1
1
1
1
1
1
1
1
1
1
1
1
1
1
1
1
1
1
1
1
1
1
1
1
1
1
1
1
1
3.90788
9.95657
10.5655
10.4812
10.437
10.3911
1
1
1
1
1
1
1
1
1
1
1
1
1
1
1
1
1
1
1
1
1
1
1
1
1
1
1
1
1
1
1
1
1
1
1
1
1
1
1
1
1
1
1
1
1
1
1
1
1
1
1
1
1
1
1
1
1
1
1
1
1
1
1
1
1
1
1
1
1
1
1
1
1
1
1
1
1
1
1
1
1
1
1
1
1
1
1
1
1
1
3.54125
9.79262
10.5607
10.4739
10.4342
10.3908
1
1
1
1
1
1
1
1
1
1
1
1
1
1
1
1
1
1
1
1
1
1
1
1
1
1
1
1
1
1
1
1
1
1
1
1
1
1
1
1
1
1
1
1
1
1
1
1
1
1
1
1
1
1
1
1
1
1
1
1
1
1
1
1
1
1
1
1
1
1
1
1
1
1
1
1
1
1
1
1
1
1
1
1
1
1
1
1
1
1
3.25571
9.65509
10.5457
10.4609
10.4234
10.3818
1
1
1
1
1
1
1
1
1
1
1
1
1
1
1
1
1
1
1
1
1
1
1
1
1
1
1
1
1
1
1
1
1
1
1
1
1
1
1
1
1
1
1
1
1
1
1
1
1
1
1
1
1
1
1
1
1
1
1
1
1
1
1
1
1
1
1
1
1
1
1
1
1
1
1
1
1
1
1
1
1
1
1
1
1
1
1
1
1
1
3.0347
9.54408
10.5243
10.4476
10.4137
10.376
1
1
1
1
1
1
1
1
1
1
1
1
1
1
1
1
1
1
1
1
1
1
1
1
1
1
1
1
1
1
1
1
1
1
1
1
1
1
1
1
1
1
1
1
1
1
1
1
1
1
1
1
1
1
1
1
1
1
1
1
1
1
1
1
1
1
1
1
1
1
1
1
1
1
1
1
1
1
1
1
1
1
1
1
1
1
1
1
1
1
2.87478
9.46819
10.4972
10.4324
10.403
10.3697
1
1
1
1
1
1
1
1
1
1
1
1
1
1
1
1
1
1
1
1
1
1
1
1
1
1
1
1
1
1
1
1
1
1
1
1
1
1
1
1
1
1
1
1
1
1
1
1
1
1
1
1
1
1
1
1
1
1
1
1
1
1
1
1
1
1
1
1
1
1
1
1
1
1
1
1
1
1
1
1
1
1
1
1
1
1
1
1
1
1
2.77072
9.41523
10.4769
10.4239
10.3974
10.3657
1
1
1
1
1
1
1
1
1
1
1
1
1
1
1
1
1
1
1
1
1
1
1
1
1
1
1
1
1
1
1
1
1
1
1
1
1
1
1
1
1
1
1
1
1
1
1
1
1
1
1
1
1
1
1
1
1
1
1
1
1
1
1
1
1
1
1
1
1
1
1
1
1
1
1
1
1
1
1
1
1
1
1
1
1
1
1
1
1
1
2.72172
9.37655
10.4538
10.4102
10.3884
10.3595
1.15414
0.233776
0.024353
0.0131885
0.0299646
0.0813859
0.122329
0.141581
0.192241
0.273422
0.345435
0.416562
0.466885
0.499361
0.554642
0.640704
0.739808
0.835965
0.927637
0.989915
0.98869
0.988045
0.998972
1.01001
1.02165
1.03094
1.0446
1.07599
1.11704
1.14998
1.17387
1.18818
1.19693
1.20458
1.21362
1.2248
1.23978
1.25607
1.26783
1.27488
1.27663
1.28009
1.28817
1.29749
1.30421
1.30769
1.30705
1.30397
1.31662
1.43598
3.03213
5.97924
6.29388
6.32276
6.31735
6.31258
6.31338
6.30984
6.31299
6.3269
6.34515
6.33789
6.30189
6.2703
6.25004
6.24474
6.24904
6.23708
6.19516
6.13176
6.06411
6.0036
5.9573
5.92894
5.91075
5.86419
5.7933
5.72087
5.66007
5.61422
5.58761
5.58104
5.56763
5.52519
5.47173
5.4147
5.35802
5.3073
5.26483
5.23761
5.22476
5.20793
5.17515
5.13564
5.09491
5.05401
5.01293
4.97208
4.93174
4.89012
4.84569
4.80213