/*--------------------------------*- C++ -*----------------------------------*\
  =========                 |
  \\      /  F ield         | OpenFOAM: The Open Source CFD Toolbox
   \\    /   O peration     | Website:  https://openfoam.org
    \\  /    A nd           | Version:  7
     \\/     M anipulation  |
\*---------------------------------------------------------------------------*/
FoamFile
{
    version     2.0;
    format      ascii;
    class       volScalarField;
    location    "5";
    object      rho;
}
// * * * * * * * * * * * * * * * * * * * * * * * * * * * * * * * * * * * * * //

dimensions      [1 -3 0 0 0 0 0];

internalField   nonuniform List<scalar> 
19968
(
1.40001
1.40001
1.40001
1.40001
1.40001
1.40001
1.40001
1.40001
1.40001
1.40001
1.40001
1.40001
1.40001
1.40001
1.40001
1.40001
1.40001
1.40001
1.40001
1.40001
1.40001
1.40001
1.40001
1.40001
1.40001
1.40001
1.40001
1.40001
1.40001
1.40001
1.40001
1.40001
1.40001
1.40001
1.40001
1.40001
1.40001
1.40001
1.40001
1.40001
1.40001
1.40001
1.40001
1.40001
1.40001
1.40001
1.40001
1.40001
1.70609
4.57087
5.41586
5.42666
5.45554
5.48055
5.5047
5.52571
5.54443
5.56248
5.58117
5.60053
5.62013
5.6398
5.65902
5.67737
5.69535
5.71339
5.73127
5.74878
5.76587
5.78226
5.79743
5.81096
5.82297
5.8343
5.84599
5.8587
5.8722
5.88566
5.89831
5.90992
5.92072
5.93104
5.94107
5.95075
5.95992
5.96842
5.97621
5.98334
5.98986
5.99571
6.0007
6.00456
6.00715
6.00848
6.00911
6.00928
1.40001
1.40001
1.40001
1.40001
1.40001
1.40001
1.40001
1.40001
1.40001
1.40001
1.40001
1.40001
1.40001
1.40001
1.40001
1.40001
1.40001
1.40001
1.40001
1.40001
1.40001
1.40001
1.40001
1.40001
1.40001
1.40001
1.40001
1.40001
1.40001
1.40001
1.40001
1.40001
1.40001
1.40001
1.40001
1.40001
1.40001
1.40001
1.40001
1.40001
1.40001
1.40001
1.40001
1.40001
1.40001
1.40001
1.40001
1.40001
1.68655
4.53891
5.40994
5.42909
5.4566
5.48174
5.50539
5.52604
5.54453
5.56246
5.58102
5.60026
5.61977
5.63936
5.65846
5.67671
5.69455
5.71235
5.72997
5.74728
5.76424
5.78058
5.79576
5.80935
5.82147
5.83295
5.84485
5.85773
5.87132
5.88476
5.89729
5.90871
5.91929
5.9294
5.93925
5.94882
5.95794
5.96644
5.97423
5.98132
5.98772
5.99342
5.99825
6.002
6.00454
6.00589
6.00658
6.00679
1.40001
1.40001
1.40001
1.40001
1.40001
1.40001
1.40001
1.40001
1.40001
1.40001
1.40001
1.40001
1.40001
1.40001
1.40001
1.40001
1.40001
1.40001
1.40001
1.40001
1.40001
1.40001
1.40001
1.40001
1.40001
1.40001
1.40001
1.40001
1.40001
1.40001
1.40001
1.40001
1.40001
1.40001
1.40001
1.40001
1.40001
1.40001
1.40001
1.40001
1.40001
1.40001
1.40001
1.40001
1.40001
1.40001
1.40001
1.40001
1.64424
4.47759
5.41023
5.42825
5.45559
5.48082
5.504
5.52434
5.5428
5.56082
5.57942
5.59873
5.61831
5.63792
5.65688
5.6749
5.69242
5.70981
5.72715
5.74432
5.76124
5.77755
5.79271
5.80631
5.81852
5.83021
5.84238
5.85554
5.8693
5.88275
5.89517
5.90639
5.91674
5.92661
5.93623
5.94562
5.95463
5.9631
5.97089
5.97796
5.98429
5.98983
5.9945
5.99812
6.00061
6.002
6.00276
6.00305
1.40001
1.40001
1.40001
1.40001
1.40001
1.40001
1.40001
1.40001
1.40001
1.40001
1.40001
1.40001
1.40001
1.40001
1.40001
1.40001
1.40001
1.40001
1.40001
1.40001
1.40001
1.40001
1.40001
1.40001
1.40001
1.40001
1.40001
1.40001
1.40001
1.40001
1.40001
1.40001
1.40001
1.40001
1.40001
1.40001
1.40001
1.40001
1.40001
1.40001
1.40001
1.40001
1.40001
1.40001
1.40001
1.40001
1.40001
1.40001
1.58388
4.37953
5.41082
5.42963
5.45515
5.47945
5.50156
5.52147
5.53999
5.55825
5.57697
5.59633
5.61592
5.6354
5.654
5.67158
5.6886
5.70551
5.7226
5.73974
5.75671
5.77305
5.78818
5.80179
5.81413
5.82609
5.83864
5.85213
5.86607
5.8795
5.89172
5.90263
5.91262
5.92212
5.9314
5.9405
5.94931
5.95765
5.96534
5.97228
5.97841
5.98374
5.98821
5.99173
5.99424
5.99577
5.99669
5.99716
1.40001
1.40001
1.40001
1.40001
1.40001
1.40001
1.40001
1.40001
1.40001
1.40001
1.40001
1.40001
1.40001
1.40001
1.40001
1.40001
1.40001
1.40001
1.40001
1.40001
1.40001
1.40001
1.40001
1.40001
1.40001
1.40001
1.40001
1.40001
1.40001
1.40001
1.40001
1.40001
1.40001
1.40001
1.40001
1.40001
1.40001
1.40001
1.40001
1.40001
1.40001
1.40001
1.40001
1.40001
1.40001
1.40001
1.40001
1.40001
1.50873
4.253
5.41379
5.43005
5.45245
5.47539
5.49676
5.51692
5.53613
5.55506
5.5742
5.59366
5.61303
5.63197
5.64978
5.66662
5.68307
5.69957
5.7166
5.73393
5.75116
5.76763
5.78275
5.79635
5.80877
5.82096
5.83386
5.84768
5.86179
5.8752
5.88723
5.89786
5.90753
5.91673
5.92575
5.93462
5.94322
5.95136
5.95883
5.96546
5.97117
5.97595
5.97985
5.98285
5.98498
5.98632
5.98717
5.98767
1.40001
1.40001
1.40001
1.40001
1.40001
1.40001
1.40001
1.40001
1.40001
1.40001
1.40001
1.40001
1.40001
1.40001
1.40001
1.40001
1.40001
1.40001
1.40001
1.40001
1.40001
1.40001
1.40001
1.40001
1.40001
1.40001
1.40001
1.40001
1.40001
1.40001
1.40001
1.40001
1.40001
1.40001
1.40001
1.40001
1.40001
1.40001
1.40001
1.40001
1.40001
1.40001
1.40001
1.40001
1.40001
1.40001
1.40001
1.40001
1.40517
4.04958
5.40845
5.42809
5.44753
5.46997
5.49129
5.51189
5.53183
5.55169
5.57172
5.59154
5.6105
5.62825
5.64455
5.66005
5.67574
5.69196
5.70912
5.72665
5.74395
5.76028
5.77509
5.78838
5.80059
5.81273
5.82568
5.83952
5.85353
5.86671
5.87841
5.88869
5.89805
5.907
5.91583
5.92456
5.93306
5.94115
5.9486
5.95523
5.9609
5.96557
5.9693
5.97211
5.97408
5.97537
5.97619
5.97676
1.40001
1.40001
1.40001
1.40001
1.40001
1.40001
1.40001
1.40001
1.40001
1.40001
1.40001
1.40001
1.40001
1.40001
1.40001
1.40001
1.40001
1.40001
1.40001
1.40001
1.40001
1.40001
1.40001
1.40001
1.40001
1.40001
1.40001
1.40001
1.40001
1.40001
1.40001
1.40001
1.40001
1.40001
1.40001
1.40001
1.40001
1.40001
1.40001
1.40001
1.40001
1.40001
1.40001
1.40001
1.40001
1.40001
1.40001
1.40001
1.40004
3.75238
5.37389
5.41217
5.43073
5.45342
5.47523
5.49661
5.51763
5.53875
5.55981
5.5801
5.59889
5.61592
5.63127
5.64604
5.66144
5.67763
5.69503
5.71285
5.73034
5.74676
5.76149
5.7747
5.78694
5.79922
5.81233
5.82623
5.84016
5.85314
5.86463
5.87475
5.88402
5.89296
5.90182
5.91057
5.91905
5.92706
5.93445
5.94103
5.94664
5.9512
5.95475
5.95732
5.95907
5.96024
5.96099
5.96161
1.40001
1.40001
1.40001
1.40001
1.40001
1.40001
1.40001
1.40001
1.40001
1.40001
1.40001
1.40001
1.40001
1.40001
1.40001
1.40001
1.40001
1.40001
1.40001
1.40001
1.40001
1.40001
1.40001
1.40001
1.40001
1.40001
1.40001
1.40001
1.40001
1.40001
1.40001
1.40001
1.40001
1.40001
1.40001
1.40001
1.40001
1.40001
1.40001
1.40001
1.40001
1.40001
1.40001
1.40001
1.40001
1.40001
1.40001
1.40001
1.40001
3.36586
5.31924
5.39883
5.41954
5.44394
5.46628
5.48789
5.50939
5.53083
5.55177
5.57179
5.59028
5.60692
5.62177
5.63609
5.65106
5.66666
5.68346
5.70076
5.71772
5.7337
5.74805
5.761
5.77308
5.78524
5.79812
5.81167
5.82514
5.83765
5.84875
5.85859
5.86771
5.87656
5.88534
5.894
5.90233
5.91017
5.91736
5.92377
5.92924
5.9336
5.93688
5.93914
5.94057
5.94155
5.94213
5.94272
1.40001
1.40001
1.40001
1.40001
1.40001
1.40001
1.40001
1.40001
1.40001
1.40001
1.40001
1.40001
1.40001
1.40001
1.40001
1.40001
1.40001
1.40001
1.40001
1.40001
1.40001
1.40001
1.40001
1.40001
1.40001
1.40001
1.40001
1.40001
1.40001
1.40001
1.40001
1.40001
1.40001
1.40001
1.40001
1.40001
1.40001
1.40001
1.40001
1.40001
1.40001
1.40001
1.40001
1.40001
1.40001
1.40001
1.40001
1.40001
1.40001
2.90149
5.22714
5.39053
5.41149
5.43739
5.4594
5.48073
5.50191
5.52268
5.54263
5.56193
5.58017
5.59689
5.61179
5.62594
5.64046
5.65511
5.67058
5.68658
5.70225
5.71716
5.73076
5.74316
5.75481
5.76645
5.77868
5.79145
5.80414
5.81603
5.82674
5.8364
5.84541
5.85413
5.86271
5.87112
5.87921
5.88686
5.89396
5.90035
5.90583
5.91017
5.91335
5.91547
5.91672
5.91763
5.91811
5.91868
1.40001
1.40001
1.40001
1.40001
1.40001
1.40001
1.40001
1.40001
1.40001
1.40001
1.40001
1.40001
1.40001
1.40001
1.40001
1.40001
1.40001
1.40001
1.40001
1.40001
1.40001
1.40001
1.40001
1.40001
1.40001
1.40001
1.40001
1.40001
1.40001
1.40001
1.40001
1.40001
1.40001
1.40001
1.40001
1.40001
1.40001
1.40001
1.40001
1.40001
1.40001
1.40001
1.40001
1.40001
1.40001
1.40001
1.40001
1.40001
1.40001
2.37602
5.0418
5.39228
5.41326
5.44019
5.46155
5.48198
5.50095
5.51874
5.5358
5.55307
5.57039
5.58712
5.60241
5.61669
5.63085
5.64449
5.65826
5.67258
5.68671
5.70026
5.71289
5.72449
5.7354
5.74595
5.75678
5.76796
5.77917
5.7899
5.79988
5.80915
5.8179
5.82633
5.83457
5.84263
5.85047
5.85795
5.86493
5.87115
5.87636
5.88031
5.88304
5.88469
5.8855
5.88612
5.8863
5.88665
1.40001
1.40001
1.40001
1.40001
1.40001
1.40001
1.40001
1.40001
1.40001
1.40001
1.40001
1.40001
1.40001
1.40001
1.40001
1.40001
1.40001
1.40001
1.40001
1.40001
1.40001
1.40001
1.40001
1.40001
1.40001
1.40001
1.40001
1.40001
1.40001
1.40001
1.40001
1.40001
1.40001
1.40001
1.40001
1.40001
1.40001
1.40001
1.40001
1.40001
1.40001
1.40001
1.40001
1.40001
1.40001
1.40001
1.40001
1.40001
1.40001
1.85362
4.71185
5.41045
5.40819
5.43427
5.45244
5.4725
5.49097
5.50837
5.52475
5.54099
5.5574
5.57382
5.58946
5.6042
5.6186
5.63199
5.6445
5.65719
5.66995
5.6824
5.69436
5.70534
5.71553
5.725
5.73426
5.74356
5.75286
5.76193
5.77057
5.7787
5.7863
5.79341
5.80013
5.80664
5.81306
5.8194
5.82556
5.83127
5.83623
5.84011
5.84287
5.84456
5.84539
5.84598
5.84603
5.84636
1.40001
1.40001
1.40001
1.40001
1.40001
1.40001
1.40001
1.40001
1.40001
1.40001
1.40001
1.40001
1.40001
1.40001
1.40001
1.40001
1.40001
1.40001
1.40001
1.40001
1.40001
1.40001
1.40001
1.40001
1.40001
1.40001
1.40001
1.40001
1.40001
1.40001
1.40001
1.40001
1.40001
1.40001
1.40001
1.40001
1.40001
1.40001
1.40001
1.40001
1.40001
1.40001
1.40001
1.40001
1.40001
1.40001
1.40001
1.40001
1.40001
1.4223
4.05436
5.39994
5.41024
5.42948
5.44715
5.46534
5.4829
5.49981
5.51521
5.52966
5.54406
5.5588
5.57348
5.58757
5.60128
5.61388
5.62501
5.63582
5.64702
5.65795
5.66885
5.679
5.68826
5.69658
5.70425
5.71173
5.71923
5.72675
5.73413
5.74119
5.74774
5.75369
5.75915
5.76438
5.76961
5.77491
5.78011
5.78485
5.78872
5.79126
5.79241
5.79211
5.7908
5.78964
5.78851
5.78815
1.40001
1.40001
1.40001
1.40001
1.40001
1.40001
1.40001
1.40001
1.40001
1.40001
1.40001
1.40001
1.40001
1.40001
1.40001
1.40001
1.40001
1.40001
1.40001
1.40001
1.40001
1.40001
1.40001
1.40001
1.40001
1.40001
1.40001
1.40001
1.40001
1.40001
1.40001
1.40001
1.40001
1.40001
1.40001
1.40001
1.40001
1.40001
1.40001
1.40001
1.40001
1.40001
1.40001
1.40001
1.40001
1.40001
1.40001
1.40001
1.40001
1.40004
3.16109
5.24191
5.36834
5.39074
5.41127
5.42988
5.44862
5.46709
5.48415
5.49938
5.5134
5.52696
5.54047
5.55384
5.56701
5.5796
5.59085
5.601
5.61124
5.6214
5.63166
5.64167
5.65061
5.65829
5.66482
5.67086
5.67685
5.6829
5.68883
5.69429
5.69902
5.70289
5.70605
5.70866
5.71094
5.71295
5.71469
5.71612
5.71726
5.71804
5.71838
5.71807
5.71703
5.71622
5.71512
5.71484
1.40001
1.40001
1.40001
1.40001
1.40001
1.40001
1.40001
1.40001
1.40001
1.40001
1.40001
1.40001
1.40001
1.40001
1.40001
1.40001
1.40001
1.40001
1.40001
1.40001
1.40001
1.40001
1.40001
1.40001
1.40001
1.40001
1.40001
1.40001
1.40001
1.40001
1.40001
1.40001
1.40001
1.40001
1.40001
1.40001
1.40001
1.40001
1.40001
1.40001
1.40001
1.40001
1.40001
1.40001
1.40001
1.40001
1.40001
1.40001
1.40001
1.4
2.14082
4.87906
5.37453
5.37751
5.40021
5.41683
5.43368
5.45064
5.46735
5.48262
5.49592
5.50759
5.51861
5.52973
5.54117
5.55268
5.56342
5.5727
5.58129
5.58979
5.59816
5.60657
5.61398
5.61975
5.62398
5.62752
5.63107
5.63484
5.63847
5.6414
5.64324
5.64399
5.64399
5.64337
5.64251
5.64136
5.63985
5.63825
5.63662
5.63475
5.63164
5.62671
5.61881
5.6094
5.5998
5.59144
1.40001
1.40001
1.40001
1.40001
1.40001
1.40001
1.40001
1.40001
1.40001
1.40001
1.40001
1.40001
1.40001
1.40001
1.40001
1.40001
1.40001
1.40001
1.40001
1.40001
1.40001
1.40001
1.40001
1.40001
1.40001
1.40001
1.40001
1.40001
1.40001
1.40001
1.40001
1.40001
1.40001
1.40001
1.40001
1.40001
1.40001
1.40001
1.40001
1.40001
1.40001
1.40001
1.40001
1.40001
1.40001
1.40001
1.40001
1.40001
1.40001
1.40001
1.43961
3.92936
5.37808
5.39409
5.39928
5.40888
5.41944
5.43228
5.44631
5.4598
5.47137
5.48079
5.48888
5.49687
5.5055
5.51473
5.52398
5.5324
5.53966
5.54658
5.553
5.55919
5.56473
5.56851
5.57028
5.57084
5.5714
5.57248
5.57362
5.57394
5.57256
5.56953
5.5651
5.55948
5.55302
5.54517
5.53541
5.52367
5.51005
5.49474
5.47792
5.46003
5.44384
5.4289
5.42106
5.41653
1.40001
1.40001
1.40001
1.40001
1.40001
1.40001
1.40001
1.40001
1.40001
1.40001
1.40001
1.40001
1.40001
1.40001
1.40001
1.40001
1.40001
1.40001
1.40001
1.40001
1.40001
1.40001
1.40001
1.40001
1.40001
1.40001
1.40001
1.40001
1.40001
1.40001
1.40001
1.40001
1.40001
1.40001
1.40001
1.40001
1.40001
1.40001
1.40001
1.40001
1.40001
1.40001
1.40001
1.40001
1.40001
1.40001
1.40001
1.40001
1.40001
1.40001
1.40005
2.57423
5.04404
5.34121
5.3512
5.36925
5.38271
5.39747
5.41301
5.42791
5.44055
5.45009
5.45683
5.4621
5.46767
5.47441
5.48176
5.48863
5.49418
5.49854
5.5024
5.50609
5.50985
5.51216
5.51157
5.50835
5.50421
5.50077
5.498
5.49489
5.48965
5.48131
5.4705
5.4578
5.44334
5.42666
5.40707
5.38441
5.35917
5.33278
5.30618
5.27957
5.24511
5.20464
5.14615
5.16388
1.40001
1.40001
1.40001
1.40001
1.40001
1.40001
1.40001
1.40001
1.40001
1.40001
1.40001
1.40001
1.40001
1.40001
1.40001
1.40001
1.40001
1.40001
1.40001
1.40001
1.40001
1.40001
1.40001
1.40001
1.40001
1.40001
1.40001
1.40001
1.40001
1.40001
1.40001
1.40001
1.40001
1.40001
1.40001
1.40001
1.40001
1.40001
1.40001
1.40001
1.40001
1.40001
1.40001
1.40001
1.40001
1.40001
1.40001
1.40001
1.40001
1.40001
1.40001
1.5152
4.30231
5.38516
5.36616
5.37004
5.37792
5.38735
5.3987
5.40992
5.41938
5.42624
5.43046
5.4329
5.43531
5.43897
5.44348
5.44765
5.45061
5.45215
5.4531
5.45409
5.4553
5.45608
5.45412
5.44796
5.43949
5.43097
5.42337
5.4158
5.40607
5.39283
5.37586
5.35559
5.3321
5.30491
5.27261
5.23391
5.18637
5.12906
5.05581
4.96085
4.81608
4.59054
4.18059
3.27758
1.40001
1.40001
1.40001
1.40001
1.40001
1.40001
1.40001
1.40001
1.40001
1.40001
1.40001
1.40001
1.40001
1.40001
1.40001
1.40001
1.40001
1.40001
1.40001
1.40001
1.40001
1.40001
1.40001
1.40001
1.40001
1.40001
1.40001
1.40001
1.40001
1.40001
1.40001
1.40001
1.40001
1.40001
1.40001
1.40001
1.40001
1.40001
1.40001
1.40001
1.40001
1.40001
1.40001
1.40001
1.40001
1.40001
1.40001
1.40001
1.40001
1.40001
1.40001
1.40064
3.15877
5.19741
5.31689
5.33109
5.34389
5.35347
5.36512
5.37741
5.38807
5.39583
5.40014
5.40168
5.40222
5.40411
5.40759
5.41135
5.41346
5.41295
5.41034
5.40732
5.40507
5.40396
5.40103
5.39345
5.38225
5.36951
5.3569
5.34446
5.33037
5.3128
5.29067
5.2639
5.23197
5.19461
5.14934
5.09495
5.02558
4.94088
4.82951
4.6906
4.48934
4.21739
3.68802
2.91671
1.40001
1.40001
1.40001
1.40001
1.40001
1.40001
1.40001
1.40001
1.40001
1.40001
1.40001
1.40001
1.40001
1.40001
1.40001
1.40001
1.40001
1.40001
1.40001
1.40001
1.40001
1.40001
1.40001
1.40001
1.40001
1.40001
1.40001
1.40001
1.40001
1.40001
1.40001
1.40001
1.40001
1.40001
1.40001
1.40001
1.40001
1.40001
1.40001
1.40001
1.40001
1.40001
1.40001
1.40001
1.40001
1.40001
1.40001
1.40001
1.40001
1.40001
1.40001
1.4
1.90442
4.71371
5.3492
5.32913
5.33396
5.33959
5.34861
5.35928
5.36839
5.37461
5.37719
5.37723
5.37578
5.37508
5.37614
5.37822
5.37928
5.37717
5.37176
5.36462
5.35804
5.35284
5.34662
5.33675
5.32314
5.30674
5.28916
5.27133
5.252
5.22962
5.20209
5.16917
5.1292
5.08217
5.02479
4.95617
4.8699
4.76402
4.63087
4.46239
4.24484
3.93551
3.48787
2.98638
1.40001
1.40001
1.40001
1.40001
1.40001
1.40001
1.40001
1.40001
1.40001
1.40001
1.40001
1.40001
1.40001
1.40001
1.40001
1.40001
1.40001
1.40001
1.40001
1.40001
1.40001
1.40001
1.40001
1.40001
1.40001
1.40001
1.40001
1.40001
1.40001
1.40001
1.40001
1.40001
1.40001
1.40001
1.40001
1.40001
1.40001
1.40001
1.40001
1.40001
1.40001
1.40001
1.40001
1.40001
1.40001
1.40001
1.40001
1.40001
1.40001
1.40001
1.40001
1.4
1.41882
3.50431
5.25351
5.30809
5.31859
5.32374
5.3309
5.34017
5.34817
5.35365
5.35593
5.35587
5.35236
5.34767
5.34376
5.34169
5.34019
5.33726
5.33141
5.32272
5.31328
5.30383
5.29301
5.27954
5.26257
5.24234
5.22015
5.19737
5.17269
5.1451
5.11197
5.07322
5.02652
4.97164
4.90554
4.82671
4.73051
4.61276
4.46984
4.29169
4.0719
3.79233
3.45077
3.08256
1.40001
1.40001
1.40001
1.40001
1.40001
1.40001
1.40001
1.40001
1.40001
1.40001
1.40001
1.40001
1.40001
1.40001
1.40001
1.40001
1.40001
1.40001
1.40001
1.40001
1.40001
1.40001
1.40001
1.40001
1.40001
1.40001
1.40001
1.40001
1.40001
1.40001
1.40001
1.40001
1.40001
1.40001
1.40001
1.40001
1.40001
1.40001
1.40001
1.40001
1.40001
1.40001
1.40001
1.40001
1.40001
1.40001
1.40001
1.40001
1.40001
1.40001
1.40001
1.40001
1.39999
2.05872
4.80298
5.30788
5.3016
5.30731
5.31366
5.32168
5.32805
5.33205
5.33354
5.33388
5.32977
5.32323
5.31593
5.30952
5.30418
5.29924
5.29235
5.28272
5.2715
5.25838
5.24301
5.22516
5.20388
5.17972
5.15336
5.12616
5.09657
5.06377
5.02533
4.98107
4.92896
4.86816
4.79653
4.71219
4.6118
4.49112
4.34984
4.17495
3.97057
3.73501
3.46671
3.17651
1.40001
1.40001
1.40001
1.40001
1.40001
1.40001
1.40001
1.40001
1.40001
1.40001
1.40001
1.40001
1.40001
1.40001
1.40001
1.40001
1.40001
1.40001
1.40001
1.40001
1.40001
1.40001
1.40001
1.40001
1.40001
1.40001
1.40001
1.40001
1.40001
1.40001
1.40001
1.40001
1.40001
1.40001
1.40001
1.40001
1.40001
1.40001
1.40001
1.40001
1.40001
1.40001
1.40001
1.40001
1.40001
1.40001
1.40001
1.40001
1.40001
1.40001
1.40001
1.40001
1.4
1.43066
3.56166
5.22057
5.27432
5.28626
5.29463
5.3017
5.30584
5.30716
5.30706
5.30752
5.30397
5.29814
5.29034
5.28111
5.27193
5.2641
5.2548
5.24324
5.23034
5.21446
5.19541
5.17361
5.14811
5.12011
5.08976
5.05846
5.0248
4.9876
4.94474
4.89534
4.83825
4.77277
4.69772
4.61146
4.51165
4.39388
4.26088
4.0987
3.91797
3.72129
3.49662
3.26563
1.40001
1.40001
1.40001
1.40001
1.40001
1.40001
1.40001
1.40001
1.40001
1.40001
1.40001
1.40001
1.40001
1.40001
1.40001
1.40001
1.40001
1.40001
1.40001
1.40001
1.40001
1.40001
1.40001
1.40001
1.40001
1.40001
1.40001
1.40001
1.40001
1.40001
1.40001
1.40001
1.40001
1.40001
1.40001
1.40001
1.40001
1.40001
1.40001
1.40001
1.40001
1.40001
1.40001
1.40001
1.40001
1.40001
1.40001
1.40001
1.40001
1.40001
1.40001
1.40001
1.4
1.40002
1.99507
4.74667
5.26899
5.2695
5.27644
5.28186
5.28363
5.28037
5.27644
5.27326
5.26772
5.26301
5.25795
5.24994
5.24058
5.23183
5.2208
5.20671
5.19065
5.17092
5.14799
5.12313
5.09518
5.0648
5.03151
4.99632
4.95897
4.91841
4.8725
4.81958
4.75882
4.69029
4.61349
4.52706
4.43059
4.31677
4.19421
4.04844
3.89092
3.72346
3.53146
3.3401
1.40001
1.40001
1.40001
1.40001
1.40001
1.40001
1.40001
1.40001
1.40001
1.40001
1.40001
1.40001
1.40001
1.40001
1.40001
1.40001
1.40001
1.40001
1.40001
1.40001
1.40001
1.40001
1.40001
1.40001
1.40001
1.40001
1.40001
1.40001
1.40001
1.40001
1.40001
1.40001
1.40001
1.40001
1.40001
1.40001
1.40001
1.40001
1.40001
1.40001
1.40001
1.40001
1.40001
1.40001
1.40001
1.40001
1.40001
1.40001
1.40001
1.40001
1.40001
1.40001
1.40001
1.40001
1.42282
3.33327
5.12243
5.24098
5.24711
5.25236
5.25558
5.25329
5.2494
5.24436
5.23759
5.23161
5.22622
5.21859
5.20933
5.19957
5.18739
5.1718
5.15303
5.12991
5.1034
5.07552
5.04568
5.01399
4.97898
4.94047
4.89953
4.85617
4.80807
4.75283
4.68969
4.61949
4.5426
4.45678
4.36427
4.25537
4.14328
4.01217
3.87448
3.7294
3.56643
3.40134
1.40001
1.40001
1.40001
1.40001
1.40001
1.40001
1.40001
1.40001
1.40001
1.40001
1.40001
1.40001
1.40001
1.40001
1.40001
1.40001
1.40001
1.40001
1.40001
1.40001
1.40001
1.40001
1.40001
1.40001
1.40001
1.40001
1.40001
1.40001
1.40001
1.40001
1.40001
1.40001
1.40001
1.40001
1.40001
1.40001
1.40001
1.40001
1.40001
1.40001
1.40001
1.40001
1.40001
1.40001
1.40001
1.40001
1.40001
1.40001
1.40001
1.40001
1.40001
1.40001
1.40001
1.40001
1.40002
1.71387
4.50177
5.26741
5.24947
5.24316
5.23631
5.22995
5.22196
5.21192
5.2025
5.19541
5.18956
5.18309
5.17442
5.16429
5.15127
5.13432
5.11332
5.08824
5.0593
5.02938
4.99858
4.96678
4.93139
4.89078
4.84675
4.80084
4.75103
4.69475
4.63122
4.56134
4.4863
4.40183
4.31263
4.21056
4.10708
3.98716
3.86551
3.73487
3.59413
3.44934
1.40001
1.40001
1.40001
1.40001
1.40001
1.40001
1.40001
1.40001
1.40001
1.40001
1.40001
1.40001
1.40001
1.40001
1.40001
1.40001
1.40001
1.40001
1.40001
1.40001
1.40001
1.40001
1.40001
1.40001
1.40001
1.40001
1.40001
1.40001
1.40001
1.40001
1.40001
1.40001
1.40001
1.40001
1.40001
1.40001
1.40001
1.40001
1.40001
1.40001
1.40001
1.40001
1.40001
1.40001
1.40001
1.40001
1.40001
1.40001
1.40001
1.40001
1.40001
1.40001
1.40001
1.40001
1.40001
1.40536
2.90302
5.00283
5.18925
5.19647
5.20523
5.20228
5.19422
5.18095
5.1679
5.15817
5.15098
5.14434
5.13562
5.12468
5.11072
5.09203
5.06964
5.0445
5.01582
4.986
4.95517
4.92358
4.88818
4.84655
4.80057
4.75245
4.70041
4.64332
4.58069
4.51201
4.43955
4.35821
4.27294
4.17882
4.08166
3.97192
3.86157
3.74018
3.61895
3.49115
1.40001
1.40001
1.40001
1.40001
1.40001
1.40001
1.40001
1.40001
1.40001
1.40001
1.40001
1.40001
1.40001
1.40001
1.40001
1.40001
1.40001
1.40001
1.40001
1.40001
1.40001
1.40001
1.40001
1.40001
1.40001
1.40001
1.40001
1.40001
1.40001
1.40001
1.40001
1.40001
1.40001
1.40001
1.40001
1.40001
1.40001
1.40001
1.40001
1.40001
1.40001
1.40001
1.40001
1.40001
1.40001
1.40001
1.40001
1.40001
1.40001
1.40001
1.40001
1.40001
1.40001
1.40001
1.40001
1.40001
1.54803
3.92711
5.15914
5.18307
5.18821
5.18384
5.17488
5.16003
5.14418
5.13119
5.12128
5.11244
5.10256
5.08979
5.07408
5.05392
5.02988
5.00375
4.97567
4.9464
4.91569
4.88403
4.84842
4.80671
4.7609
4.71091
4.65743
4.59913
4.53763
4.47056
4.40116
4.32485
4.24375
4.15672
4.06499
3.9645
3.86111
3.74949
3.64279
3.52752
1.40001
1.40001
1.40001
1.40001
1.40001
1.40001
1.40001
1.40001
1.40001
1.40001
1.40001
1.40001
1.40001
1.40001
1.40001
1.40001
1.40001
1.40001
1.40001
1.40001
1.40001
1.40001
1.40001
1.40001
1.40001
1.40001
1.40001
1.40001
1.40001
1.40001
1.40001
1.40001
1.40001
1.40001
1.40001
1.40001
1.40001
1.40001
1.40001
1.40001
1.40001
1.40001
1.40001
1.40001
1.40001
1.40001
1.40001
1.40001
1.40001
1.40001
1.40001
1.40001
1.40001
1.40001
1.40001
1.40001
1.40108
2.05407
4.71962
5.19398
5.15963
5.16042
5.1513
5.13757
5.12233
5.10797
5.09501
5.0828
5.07017
5.05515
5.03681
5.01615
4.991
4.96391
4.93593
4.90728
4.87648
4.84432
4.80838
4.76815
4.7237
4.67265
4.62004
4.56112
4.50024
4.43531
4.36897
4.29795
4.22084
4.14036
4.05351
3.96091
3.86364
3.76396
3.66536
3.56063
1.40001
1.40001
1.40001
1.40001
1.40001
1.40001
1.40001
1.40001
1.40001
1.40001
1.40001
1.40001
1.40001
1.40001
1.40001
1.40001
1.40001
1.40001
1.40001
1.40001
1.40001
1.40001
1.40001
1.40001
1.40001
1.40001
1.40001
1.40001
1.40001
1.40001
1.40001
1.40001
1.40001
1.40001
1.40001
1.40001
1.40001
1.40001
1.40001
1.40001
1.40001
1.40001
1.40001
1.40001
1.40001
1.40001
1.40001
1.40001
1.40001
1.40001
1.40001
1.40001
1.40001
1.40001
1.40001
1.40001
1.40001
1.42514
3.04283
5.03796
5.13297
5.12978
5.12618
5.11565
5.10265
5.0882
5.07379
5.05892
5.04367
5.02624
5.00501
4.98257
4.95787
4.92978
4.90147
4.87247
4.84104
4.80707
4.77115
4.73332
4.68962
4.63999
4.58603
4.52868
4.46966
4.40736
4.34405
4.27648
4.20325
4.1278
4.04499
3.95979
3.86904
3.77959
3.68592
3.59251
1.40001
1.40001
1.40001
1.40001
1.40001
1.40001
1.40001
1.40001
1.40001
1.40001
1.40001
1.40001
1.40001
1.40001
1.40001
1.40001
1.40001
1.40001
1.40001
1.40001
1.40001
1.40001
1.40001
1.40001
1.40001
1.40001
1.40001
1.40001
1.40001
1.40001
1.40001
1.40001
1.40001
1.40001
1.40001
1.40001
1.40001
1.40001
1.40001
1.40001
1.40001
1.40001
1.40001
1.40001
1.40001
1.40001
1.40001
1.40001
1.40001
1.40001
1.40001
1.40001
1.40001
1.40001
1.40001
1.40001
1.40001
1.40005
1.56557
3.74292
5.08691
5.12898
5.11741
5.10962
5.09633
5.07921
5.06088
5.04272
5.02407
5.00419
4.98028
4.95445
4.92924
4.90057
4.87159
4.84217
4.81001
4.77389
4.73747
4.7005
4.65707
4.60927
4.55636
4.49959
4.44286
4.38388
4.32404
4.25955
4.19051
4.11802
4.03995
3.96039
3.87662
3.79494
3.70679
3.62265
1.40001
1.40001
1.40001
1.40001
1.40001
1.40001
1.40001
1.40001
1.40001
1.40001
1.40001
1.40001
1.40001
1.40001
1.40001
1.40001
1.40001
1.40001
1.40001
1.40001
1.40001
1.40001
1.40001
1.40001
1.40001
1.40001
1.40001
1.40001
1.40001
1.40001
1.40001
1.40001
1.40001
1.40001
1.40001
1.40001
1.40001
1.40001
1.40001
1.40001
1.40001
1.40001
1.40001
1.40001
1.40001
1.40001
1.40001
1.40001
1.40001
1.40001
1.40001
1.40001
1.40001
1.40001
1.40001
1.40001
1.40001
1.40001
1.40144
1.77934
4.4374
5.1589
5.12667
5.10908
5.08502
5.06354
5.04335
5.02351
5.00427
4.98384
4.95861
4.93054
4.90301
4.87335
4.84277
4.81297
4.78126
4.74489
4.70818
4.67043
4.62809
4.58118
4.53019
4.47568
4.42052
4.36422
4.30719
4.24584
4.1807
4.11092
4.0382
3.96349
3.88679
3.81023
3.72844
3.64976
1.40001
1.40001
1.40001
1.40001
1.40001
1.40001
1.40001
1.40001
1.40001
1.40001
1.40001
1.40001
1.40001
1.40001
1.40001
1.40001
1.40001
1.40001
1.40001
1.40001
1.40001
1.40001
1.40001
1.40001
1.40001
1.40001
1.40001
1.40001
1.40001
1.40001
1.40001
1.40001
1.40001
1.40001
1.40001
1.40001
1.40001
1.40001
1.40001
1.40001
1.40001
1.40001
1.40001
1.40001
1.40001
1.40001
1.40001
1.40001
1.40001
1.40001
1.40001
1.40001
1.40001
1.40001
1.40001
1.40001
1.40001
1.40001
1.40001
1.40777
2.50206
4.87718
5.10614
5.07226
5.05197
5.03489
5.0196
5.00268
4.98383
4.96372
4.93874
4.91081
4.88179
4.85089
4.81945
4.78796
4.75576
4.71962
4.68301
4.64424
4.60307
4.55738
4.50827
4.45604
4.40224
4.34777
4.29232
4.23395
4.17214
4.10567
4.03874
3.96923
3.89853
3.82583
3.74993
3.67434
1.40001
1.40001
1.40001
1.40001
1.40001
1.40001
1.40001
1.40001
1.40001
1.40001
1.40001
1.40001
1.40001
1.40001
1.40001
1.40001
1.40001
1.40001
1.40001
1.40001
1.40001
1.40001
1.40001
1.40001
1.40001
1.40001
1.40001
1.40001
1.40001
1.40001
1.40001
1.40001
1.40001
1.40001
1.40001
1.40001
1.40001
1.40001
1.40001
1.40001
1.40001
1.40001
1.40001
1.40001
1.40001
1.40001
1.40001
1.40001
1.40001
1.40001
1.40001
1.40001
1.40001
1.40001
1.40001
1.40001
1.40001
1.40001
1.40001
1.40002
1.47026
3.15881
4.98066
5.03941
5.02293
5.0199
5.01031
4.99637
4.97831
4.9574
4.93163
4.9029
4.87197
4.83884
4.80523
4.77162
4.73669
4.70028
4.66241
4.62438
4.58297
4.53824
4.49044
4.43996
4.38767
4.3345
4.28029
4.22448
4.16513
4.10241
4.0408
3.97601
3.90996
3.84138
3.77034
3.69725
1.40001
1.40001
1.40001
1.40001
1.40001
1.40001
1.40001
1.40001
1.40001
1.40001
1.40001
1.40001
1.40001
1.40001
1.40001
1.40001
1.40001
1.40001
1.40001
1.40001
1.40001
1.40001
1.40001
1.40001
1.40001
1.40001
1.40001
1.40001
1.40001
1.40001
1.40001
1.40001
1.40001
1.40001
1.40001
1.40001
1.40001
1.40001
1.40001
1.40001
1.40001
1.40001
1.40001
1.40001
1.40001
1.40001
1.40001
1.40001
1.40001
1.40001
1.40001
1.40001
1.40001
1.40001
1.40001
1.40001
1.40001
1.40001
1.40001
1.40001
1.40035
1.58891
3.55517
4.98244
5.01022
5.00575
4.99895
4.98587
4.9691
4.94851
4.92361
4.89527
4.864
4.8309
4.79663
4.76171
4.72541
4.68666
4.64762
4.60951
4.56809
4.52352
4.47651
4.42732
4.3765
4.32453
4.27145
4.21771
4.16023
4.10115
4.04358
3.9825
3.91969
3.85528
3.78804
3.71793
1.40001
1.40001
1.40001
1.40001
1.40001
1.40001
1.40001
1.40001
1.40001
1.40001
1.40001
1.40001
1.40001
1.40001
1.40001
1.40001
1.40001
1.40001
1.40001
1.40001
1.40001
1.40001
1.40001
1.40001
1.40001
1.40001
1.40001
1.40001
1.40001
1.40001
1.40001
1.40001
1.40001
1.40001
1.40001
1.40001
1.40001
1.40001
1.40001
1.40001
1.40001
1.40001
1.40001
1.40001
1.40001
1.40001
1.40001
1.40001
1.40001
1.40001
1.40001
1.40001
1.40001
1.40001
1.40001
1.40001
1.40001
1.40001
1.40001
1.40001
1.40001
1.402
1.70929
3.86648
5.00981
5.0086
4.99251
4.97512
4.95594
4.93449
4.91113
4.88556
4.85695
4.82556
4.79196
4.75655
4.71955
4.6806
4.64106
4.60173
4.55981
4.51509
4.46814
4.41939
4.36948
4.31837
4.26612
4.21378
4.15783
4.10081
4.04529
3.98693
3.92701
3.86688
3.80323
3.73671
1.40001
1.40001
1.40001
1.40001
1.40001
1.40001
1.40001
1.40001
1.40001
1.40001
1.40001
1.40001
1.40001
1.40001
1.40001
1.40001
1.40001
1.40001
1.40001
1.40001
1.40001
1.40001
1.40001
1.40001
1.40001
1.40001
1.40001
1.40001
1.40001
1.40001
1.40001
1.40001
1.40001
1.40001
1.40001
1.40001
1.40001
1.40001
1.40001
1.40001
1.40001
1.40001
1.40001
1.40001
1.40001
1.40001
1.40001
1.40001
1.40001
1.40001
1.40001
1.40001
1.40001
1.40001
1.40001
1.40001
1.40001
1.40001
1.40001
1.40001
1.40001
1.40001
1.40521
1.83855
4.14618
5.01114
4.99757
4.97396
4.94867
4.92468
4.89973
4.87397
4.84645
4.81695
4.78526
4.75101
4.71461
4.6767
4.63791
4.59783
4.5553
4.51045
4.46362
4.41508
4.36567
4.31498
4.26332
4.21183
4.15732
4.10177
4.04774
3.99167
3.93465
3.87818
3.81781
3.75475
1.40001
1.40001
1.40001
1.40001
1.40001
1.40001
1.40001
1.40001
1.40001
1.40001
1.40001
1.40001
1.40001
1.40001
1.40001
1.40001
1.40001
1.40001
1.40001
1.40001
1.40001
1.40001
1.40001
1.40001
1.40001
1.40001
1.40001
1.40001
1.40001
1.40001
1.40001
1.40001
1.40001
1.40001
1.40001
1.40001
1.40001
1.40001
1.40001
1.40001
1.40001
1.40001
1.40001
1.40001
1.40001
1.40001
1.40001
1.40001
1.40001
1.40001
1.40001
1.40001
1.40001
1.40001
1.40001
1.40001
1.40001
1.40001
1.40001
1.40001
1.40001
1.40001
1.40002
1.4104
1.98541
4.34443
5.01724
4.99228
4.96273
4.93218
4.90351
4.87314
4.84169
4.81069
4.77855
4.74447
4.70896
4.67259
4.63524
4.59603
4.55421
4.50979
4.4632
4.41494
4.36577
4.31536
4.26411
4.21329
4.16045
4.10665
4.05417
3.99973
3.94507
3.89097
3.83346
3.7732
1.40001
1.40001
1.40001
1.40001
1.40001
1.40001
1.40001
1.40001
1.40001
1.40001
1.40001
1.40001
1.40001
1.40001
1.40001
1.40001
1.40001
1.40001
1.40001
1.40001
1.40001
1.40001
1.40001
1.40001
1.40001
1.40001
1.40001
1.40001
1.40001
1.40001
1.40001
1.40001
1.40001
1.40001
1.40001
1.40001
1.40001
1.40001
1.40001
1.40001
1.40001
1.40001
1.40001
1.40001
1.40001
1.40001
1.40001
1.40001
1.40001
1.40001
1.40001
1.40001
1.40001
1.40001
1.40001
1.40001
1.40001
1.40001
1.40001
1.40001
1.40001
1.40001
1.40001
1.40003
1.4185
2.12322
4.49342
5.01961
4.99121
4.9552
4.91859
4.88193
4.84722
4.81285
4.77722
4.74105
4.70502
4.66892
4.63204
4.59329
4.55192
4.50806
4.46225
4.41496
4.3669
4.31771
4.26756
4.21782
4.16692
4.11487
4.0634
4.01043
3.95772
3.90515
3.85018
3.79223
1.40001
1.40001
1.40001
1.40001
1.40001
1.40001
1.40001
1.40001
1.40001
1.40001
1.40001
1.40001
1.40001
1.40001
1.40001
1.40001
1.40001
1.40001
1.40001
1.40001
1.40001
1.40001
1.40001
1.40001
1.40001
1.40001
1.40001
1.40001
1.40001
1.40001
1.40001
1.40001
1.40001
1.40001
1.40001
1.40001
1.40001
1.40001
1.40001
1.40001
1.40001