/*--------------------------------*- C++ -*----------------------------------*\
  =========                 |
  \\      /  F ield         | OpenFOAM: The Open Source CFD Toolbox
   \\    /   O peration     | Website:  https://openfoam.org
    \\  /    A nd           | Version:  7
     \\/     M anipulation  |
\*---------------------------------------------------------------------------*/
FoamFile
{
    version     2.0;
    format      ascii;
    class       volScalarField;
    location    "5";
    object      T;
}
// * * * * * * * * * * * * * * * * * * * * * * * * * * * * * * * * * * * * * //

dimensions      [0 0 0 1 0 0 0];

internalField   nonuniform List<scalar> 
19968
(
1
1
1
1
1
1
1
1
1
1
1
1
1
1
1
1
1
1
1
1
1
1
1
1
1
1
1
1
1
1
1
1
1
1
1
1
1
1
1
1
1
1
1
1
1
1
1
1
1.26855
2.45577
2.69351
2.69322
2.69651
2.69931
2.70275
2.70705
2.71221
2.71781
2.72327
2.72799
2.73164
2.73433
2.73646
2.73862
2.74144
2.74523
2.7497
2.75415
2.7579
2.76075
2.76296
2.76496
2.76708
2.76944
2.772
2.7746
2.77714
2.77956
2.78187
2.78408
2.7862
2.78822
2.79013
2.79195
2.79368
2.79529
2.79677
2.79813
2.79937
2.80052
2.80154
2.80241
2.80308
2.8035
2.80373
2.8038
1
1
1
1
1
1
1
1
1
1
1
1
1
1
1
1
1
1
1
1
1
1
1
1
1
1
1
1
1
1
1
1
1
1
1
1
1
1
1
1
1
1
1
1
1
1
1
1
1.25401
2.44735
2.69319
2.69352
2.69623
2.69916
2.70271
2.70706
2.71222
2.71778
2.72318
2.72784
2.73145
2.73412
2.73625
2.73844
2.74128
2.74505
2.74947
2.75385
2.75755
2.76038
2.7626
2.76463
2.76679
2.7692
2.77179
2.77442
2.77696
2.77938
2.78167
2.78386
2.78593
2.78791
2.78978
2.79158
2.7933
2.79492
2.7964
2.79775
2.79897
2.80009
2.80108
2.80193
2.80258
2.80301
2.80325
2.80333
1
1
1
1
1
1
1
1
1
1
1
1
1
1
1
1
1
1
1
1
1
1
1
1
1
1
1
1
1
1
1
1
1
1
1
1
1
1
1
1
1
1
1
1
1
1
1
1
1.21973
2.4271
2.69292
2.69301
2.69561
2.69874
2.70247
2.70691
2.712
2.71741
2.72267
2.72724
2.7308
2.7335
2.73569
2.73797
2.74089
2.74466
2.74901
2.75327
2.75689
2.7597
2.76194
2.76403
2.76625
2.76872
2.77135
2.77401
2.77657
2.77899
2.78127
2.78343
2.78547
2.78739
2.78922
2.79098
2.79268
2.79429
2.79577
2.79711
2.79832
2.79941
2.80037
2.80119
2.80184
2.80227
2.80253
2.80262
1
1
1
1
1
1
1
1
1
1
1
1
1
1
1
1
1
1
1
1
1
1
1
1
1
1
1
1
1
1
1
1
1
1
1
1
1
1
1
1
1
1
1
1
1
1
1
1
1.16882
2.39508
2.69143
2.69219
2.6951
2.69867
2.70268
2.70713
2.71196
2.71697
2.7219
2.72629
2.72982
2.73259
2.73493
2.73736
2.74037
2.74412
2.74832
2.7524
2.7559
2.7587
2.76102
2.76321
2.76553
2.76806
2.77073
2.7734
2.77597
2.77839
2.78065
2.78276
2.78474
2.78658
2.78834
2.79005
2.7917
2.79328
2.79474
2.79606
2.79723
2.79827
2.79919
2.79999
2.80064
2.80109
2.80138
2.80151
1
1
1
1
1
1
1
1
1
1
1
1
1
1
1
1
1
1
1
1
1
1
1
1
1
1
1
1
1
1
1
1
1
1
1
1
1
1
1
1
1
1
1
1
1
1
1
1
1.10249
2.35315
2.68861
2.69102
2.69474
2.69891
2.70321
2.70762
2.71209
2.71662
2.72112
2.72524
2.72873
2.73166
2.73425
2.7369
2.74
2.74363
2.74757
2.75139
2.75475
2.75756
2.76
2.76234
2.76477
2.76734
2.77
2.77265
2.77521
2.77762
2.77987
2.78195
2.78387
2.78566
2.78735
2.789
2.79061
2.79215
2.79356
2.79481
2.79589
2.79682
2.79762
2.79832
2.79889
2.79931
2.79958
2.79971
1
1
1
1
1
1
1
1
1
1
1
1
1
1
1
1
1
1
1
1
1
1
1
1
1
1
1
1
1
1
1
1
1
1
1
1
1
1
1
1
1
1
1
1
1
1
1
1
1.00362
2.28648
2.68473
2.69023
2.69468
2.69947
2.70397
2.7083
2.71244
2.71651
2.72047
2.72422
2.72768
2.73086
2.73383
2.73679
2.73993
2.74328
2.74679
2.75018
2.75328
2.75606
2.75862
2.76111
2.76361
2.76614
2.7687
2.77125
2.77372
2.77609
2.77831
2.78035
2.78222
2.78394
2.78558
2.78718
2.78876
2.79028
2.79169
2.79293
2.79399
2.79489
2.79565
2.79631
2.79684
2.79724
2.79751
2.79766
1
1
1
1
1
1
1
1
1
1
1
1
1
1
1
1
1
1
1
1
1
1
1
1
1
1
1
1
1
1
1
1
1
1
1
1
1
1
1
1
1
1
1
1
1
1
1
1
1.00001
2.19795
2.67892
2.68737
2.69168
2.69664
2.70131
2.70578
2.70998
2.7139
2.71755
2.7211
2.72462
2.72812
2.73152
2.73484
2.73813
2.74128
2.74442
2.74747
2.75042
2.75328
2.75606
2.75878
2.76139
2.76391
2.76637
2.76882
2.77123
2.77359
2.77581
2.77786
2.77971
2.78142
2.78304
2.78463
2.7862
2.7877
2.78908
2.7903
2.79135
2.79221
2.79293
2.79353
2.79401
2.79439
2.79464
2.7948
1
1
1
1
1
1
1
1
1
1
1
1
1
1
1
1
1
1
1
1
1
1
1
1
1
1
1
1
1
1
1
1
1
1
1
1
1
1
1
1
1
1
1
1
1
1
1
1
1
2.07231
2.6691
2.68336
2.68735
2.69238
2.69731
2.70214
2.70664
2.71073
2.71449
2.7181
2.7217
2.72531
2.72882
2.73224
2.73556
2.73863
2.7416
2.74449
2.7474
2.75038
2.75336
2.75625
2.75891
2.76136
2.7637
2.76602
2.76836
2.77068
2.7729
2.77494
2.77678
2.77845
2.78005
2.7816
2.78313
2.7846
2.78594
2.78712
2.78812
2.78893
2.78959
2.79011
2.79053
2.79086
2.79108
2.79123
1
1
1
1
1
1
1
1
1
1
1
1
1
1
1
1
1
1
1
1
1
1
1
1
1
1
1
1
1
1
1
1
1
1
1
1
1
1
1
1
1
1
1
1
1
1
1
1
1
1.89824
2.64248
2.6765
2.68041
2.68563
2.69067
2.6959
2.70103
2.70576
2.71
2.71393
2.71767
2.72129
2.72476
2.72814
2.73146
2.73452
2.73746
2.74039
2.74336
2.74645
2.74955
2.7525
2.75513
2.75747
2.75967
2.76189
2.76418
2.76651
2.76876
2.77082
2.77265
2.7743
2.77585
2.77737
2.77885
2.78028
2.7816
2.78277
2.78375
2.78455
2.78517
2.78566
2.78603
2.78634
2.78654
2.78669
1
1
1
1
1
1
1
1
1
1
1
1
1
1
1
1
1
1
1
1
1
1
1
1
1
1
1
1
1
1
1
1
1
1
1
1
1
1
1
1
1
1
1
1
1
1
1
1
1
1.66817
2.58537
2.67116
2.67479
2.67995
2.68454
2.68951
2.69488
2.70019
2.70492
2.7091
2.71289
2.71644
2.71979
2.72307
2.72637
2.7295
2.73253
2.73562
2.73875
2.74194
2.74507
2.74794
2.75044
2.7526
2.75463
2.75672
2.75894
2.76124
2.76349
2.76556
2.76739
2.76902
2.77053
2.77201
2.77347
2.77488
2.77619
2.77732
2.77824
2.77893
2.77946
2.77986
2.78015
2.7804
2.78053
2.78063
1
1
1
1
1
1
1
1
1
1
1
1
1
1
1
1
1
1
1
1
1
1
1
1
1
1
1
1
1
1
1
1
1
1
1
1
1
1
1
1
1
1
1
1
1
1
1
1
1
1.35821
2.47446
2.67134
2.67155
2.67662
2.68005
2.68437
2.68939
2.69475
2.69964
2.70385
2.70751
2.71088
2.71407
2.71723
2.72052
2.72376
2.72691
2.73014
2.73343
2.73671
2.73984
2.74261
2.74497
2.74699
2.7489
2.7509
2.75306
2.7553
2.75746
2.75942
2.76111
2.76255
2.76385
2.76511
2.76636
2.7676
2.76876
2.7698
2.77067
2.77134
2.77185
2.77226
2.77257
2.77282
2.77294
2.77306
1
1
1
1
1
1
1
1
1
1
1
1
1
1
1
1
1
1
1
1
1
1
1
1
1
1
1
1
1
1
1
1
1
1
1
1
1
1
1
1
1
1
1
1
1
1
1
1
1
1.01403
2.28607
2.67708
2.67629
2.67824
2.68095
2.68451
2.68837
2.69238
2.69615
2.69952
2.70257
2.70545
2.70826
2.71108
2.71407
2.71712
2.72014
2.72325
2.72651
2.72966
2.73265
2.73525
2.73745
2.73935
2.74118
2.74314
2.74529
2.74751
2.74965
2.75155
2.75316
2.75451
2.75571
2.75685
2.75799
2.7591
2.76013
2.761
2.76167
2.76209
2.76228
2.76225
2.76212
2.76207
2.762
2.76199
1
1
1
1
1
1
1
1
1
1
1
1
1
1
1
1
1
1
1
1
1
1
1
1
1
1
1
1
1
1
1
1
1
1
1
1
1
1
1
1
1
1
1
1
1
1
1
1
1
1.00002
1.99946
2.64409
2.66173
2.66646
2.67191
2.6767
2.68084
2.68458
2.68802
2.69109
2.6939
2.69659
2.6993
2.70208
2.70497
2.70796
2.71091
2.71383
2.71685
2.71984
2.72269
2.72527
2.72746
2.72936
2.73117
2.73312
2.73526
2.73747
2.73955
2.74133
2.74276
2.74391
2.74489
2.74573
2.74645
2.74705
2.74749
2.74777
2.74795
2.74807
2.74813
2.74809
2.74794
2.74778
2.74745
2.74729
1
1
1
1
1
1
1
1
1
1
1
1
1
1
1
1
1
1
1
1
1
1
1
1
1
1
1
1
1
1
1
1
1
1
1
1
1
1
1
1
1
1
1
1
1
1
1
1
1
1
1.52441
2.50968
2.64577
2.65402
2.66338
2.6688
2.67335
2.67735
2.68089
2.68398
2.68676
2.68945
2.69224
2.69516
2.69811
2.70097
2.70362
2.70604
2.70841
2.71085
2.71325
2.71555
2.71752
2.71917
2.72066
2.72225
2.72408
2.72604
2.72787
2.72935
2.73043
2.73124
2.73186
2.73229
2.73263
2.73279
2.73275
2.7326
2.73235
2.73203
2.7315
2.73058
2.72882
2.72617
2.72303
2.72046
1
1
1
1
1
1
1
1
1
1
1
1
1
1
1
1
1
1
1
1
1
1
1
1
1
1
1
1
1
1
1
1
1
1
1
1
1
1
1
1
1
1
1
1
1
1
1
1
1
1
1.02528
2.24003
2.65532
2.65411
2.65546
2.65954
2.66409
2.66819
2.67155
2.67434
2.67692
2.67958
2.68249
2.6856
2.68868
2.69145
2.69379
2.69577
2.69755
2.69944
2.70139
2.70333
2.7051
2.70649
2.70757
2.70862
2.70988
2.71137
2.71284
2.71399
2.7146
2.71482
2.71476
2.71454
2.71411
2.71325
2.71183
2.70985
2.70736
2.70445
2.70122
2.69772
2.69427
2.69034
2.6873
2.68544
1
1
1
1
1
1
1
1
1
1
1
1
1
1
1
1
1
1
1
1
1
1
1
1
1
1
1
1
1
1
1
1
1
1
1
1
1
1
1
1
1
1
1
1
1
1
1
1
1
1
1.00004
1.74111
2.55199
2.62931
2.63708
2.64467
2.65012
2.65467
2.65838
2.66151
2.6644
2.66735
2.67054
2.67388
2.67714
2.68003
2.6823
2.68399
2.68533
2.68664
2.68813
2.68978
2.69148
2.69283
2.6935
2.69374
2.69403
2.69453
2.6952
2.69566
2.69558
2.69505
2.694
2.69258
2.69079
2.68846
2.68538
2.68149
2.67688
2.67181
2.6664
2.66095
2.65559
2.65313
2.64955
2.66345
1
1
1
1
1
1
1
1
1
1
1
1
1
1
1
1
1
1
1
1
1
1
1
1
1
1
1
1
1
1
1
1
1
1
1
1
1
1
1
1
1
1
1
1
1
1
1
1
1
1
1
1.07906
2.32102
2.63458
2.63322
2.636
2.64043
2.64481
2.64863
2.6516
2.65406
2.65653
2.65938
2.66259
2.66583
2.66872
2.67088
2.6723
2.67328
2.67415
2.67525
2.67666
2.67818
2.67941
2.67982
2.67962
2.679
2.67831
2.67786
2.67745
2.67665
2.67522
2.67306
2.67023
2.66676
2.66251
2.65712
2.65024
2.64131
2.63002
2.61496
2.595
2.56571
2.52397
2.45962
2.32966
1
1
1
1
1
1
1
1
1
1
1
1
1
1
1
1
1
1
1
1
1
1
1
1
1
1
1
1
1
1
1
1
1
1
1
1
1
1
1
1
1
1
1
1
1
1
1
1
1
1
1
1.00049
1.97902
2.59506
2.61361
2.6197
2.62556
2.6305
2.63498
2.63862
2.64156
2.6443
2.64726
2.65053
2.6538
2.65683
2.65925
2.66097
2.66212
2.66291
2.66358
2.6645
2.66559
2.66667
2.66715
2.66684
2.66571
2.66403
2.66246
2.66107
2.65943
2.65714
2.65394
2.64981
2.64466
2.63841
2.63049
2.62054
2.60724
2.59031
2.5672
2.53746
2.49431
2.43751
2.32784
2.16078
1
1
1
1
1
1
1
1
1
1
1
1
1
1
1
1
1
1
1
1
1
1
1
1
1
1
1
1
1
1
1
1
1
1
1
1
1
1
1
1
1
1
1
1
1
1
1
1
1
1
1
0.999999
1.35196
2.41236
2.59683
2.60699
2.61466
2.6194
2.62326
2.62655
2.62936
2.63206
2.63496
2.63832
2.64163
2.64467
2.64718
2.6491
2.6505
2.65127
2.6518
2.65228
2.65284
2.65344
2.65367
2.65325
2.65174
2.64932
2.64671
2.64423
2.64153
2.63824
2.6339
2.62846
2.62162
2.61334
2.60291
2.59
2.57315
2.5517
2.52379
2.48719
2.43885
2.368
2.26116
2.1393
1
1
1
1
1
1
1
1
1
1
1
1
1
1
1
1
1
1
1
1
1
1
1
1
1
1
1
1
1
1
1
1
1
1
1
1
1
1
1
1
1
1
1
1
1
1
1
1
1
1
1
1
1.01176
2.09406
2.59748
2.59982
2.60325
2.60673
2.60999
2.61299
2.61567
2.61845
2.62167
2.62548
2.6288
2.63164
2.6337
2.63527
2.63659
2.63766
2.63851
2.63912
2.63955
2.6397
2.63954
2.63876
2.6368
2.6338
2.63039
2.62697
2.6232
2.61883
2.6133
2.6066
2.59826
2.58822
2.57579
2.56056
2.54145
2.51728
2.48699
2.44785
2.39791
2.33138
2.24514
2.14982
1
1
1
1
1
1
1
1
1
1
1
1
1
1
1
1
1
1
1
1
1
1
1
1
1
1
1
1
1
1
1
1
1
1
1
1
1
1
1
1
1
1
1
1
1
1
1
1
1
1
1
1
1.00001
1.44021
2.44053
2.58597
2.5923
2.59638
2.59851
2.60045
2.60238
2.60477
2.60795
2.61209
2.61557
2.61841
2.62014
2.62112
2.62192
2.62293
2.62404
2.62505
2.62569
2.62559
2.6251
2.62379
2.62127
2.61784
2.61389
2.60977
2.60512
2.59973
2.59312
2.58525
2.57571
2.56426
2.55044
2.53376
2.51343
2.48831
2.45808
2.41929
2.37232
2.31583
2.24838
2.17111
1
1
1
1
1
1
1
1
1
1
1
1
1
1
1
1
1
1
1
1
1
1
1
1
1
1
1
1
1
1
1
1
1
1
1
1
1
1
1
1
1
1
1
1
1
1
1
1
1
1
1
1
1
1.01869
2.11332
2.58769
2.58686
2.58711
2.58798
2.58919
2.5905
2.59225
2.59488
2.59884
2.60242
2.60532
2.60672
2.60694
2.60698
2.60748
2.60851
2.60979
2.61075
2.61065
2.60993
2.60816
2.60513
2.60132
2.59698
2.59237
2.58717
2.58108
2.5737
2.56484
2.55424
2.54171
2.52695
2.50956
2.48899
2.46411
2.43537
2.39915
2.35744
2.31038
2.25441
2.19414
1
1
1
1
1
1
1
1
1
1
1
1
1
1
1
1
1
1
1
1
1
1
1
1
1
1
1
1
1
1
1
1
1
1
1
1
1
1
1
1
1
1
1
1
1
1
1
1
1
1
1
1
1
1.00002
1.39986
2.41679
2.57271
2.57632
2.57877
2.58008
2.58119
2.58183
2.58336
2.58608
2.58885
2.59139
2.59254
2.5924
2.59205
2.59226
2.59301
2.59416
2.595
2.59474
2.59366
2.59152
2.58826
2.58433
2.57981
2.57485
2.56933
2.56296
2.55527
2.5459
2.53466
2.5215
2.50629
2.48867
2.46855
2.44418
2.41741
2.38466
2.34828
2.30823
2.26085
2.2121
1
1
1
1
1
1
1
1
1
1
1
1
1
1
1
1
1
1
1
1
1
1
1
1
1
1
1
1
1
1
1
1
1
1
1
1
1
1
1
1
1
1
1
1
1
1
1
1
1
1
1
1
1
1
1.01398
2.03279
2.55945
2.56599
2.56766
2.56927
2.57104
2.57237
2.57419
2.57641
2.57831
2.57954
2.57963
2.57897
2.57794
2.57773
2.57801
2.57872
2.57915
2.5787
2.57712
2.57447
2.57094
2.56694
2.56234
2.55712
2.5514
2.54502
2.5374
2.52794
2.51646
2.50311
2.48796
2.47047
2.45112
2.42765
2.403
2.37339
2.34157
2.30715
2.26718
2.22566
1
1
1
1
1
1
1
1
1
1
1
1
1
1
1
1
1
1
1
1
1
1
1
1
1
1
1
1
1
1
1
1
1
1
1
1
1
1
1
1
1
1
1
1
1
1
1
1
1
1
1
1
1
1
1.00001
1.22067
2.34812
2.56254
2.55901
2.55946
2.56031
2.56198
2.56408
2.5659
2.56708
2.56732
2.56699
2.56603
2.56456
2.56371
2.56355
2.56357
2.56341
2.56253
2.56039
2.55728
2.55349
2.54937
2.54472
2.53931
2.53341
2.52711
2.51974
2.51059
2.49941
2.48641
2.47189
2.45488
2.43639
2.41452
2.39183
2.36477
2.33669
2.30577
2.27156
2.23558
1
1
1
1
1
1
1
1
1
1
1
1
1
1
1
1
1
1
1
1
1
1
1
1
1
1
1
1
1
1
1
1
1
1
1
1
1
1
1
1
1
1
1
1
1
1
1
1
1
1
1
1
1
1
1
1.0034
1.84609
2.49952
2.53593
2.54164
2.54661
2.54984
2.55253
2.55424
2.55475
2.5546
2.55407
2.55304
2.55148
2.55018
2.54942
2.54866
2.54782
2.54655
2.54422
2.54093
2.53685
2.5324
2.52744
2.52175
2.51568
2.50935
2.50207
2.49327
2.48273
2.47034
2.45667
2.44064
2.42333
2.40357
2.3826
2.35812
2.33286
2.30429
2.27513
2.2437
1
1
1
1
1
1
1
1
1
1
1
1
1
1
1
1
1
1
1
1
1
1
1
1
1
1
1
1
1
1
1
1
1
1
1
1
1
1
1
1
1
1
1
1
1
1
1
1
1
1
1
1
1
1
1
1
1.09744
2.19241
2.5265
2.53236
2.53528
2.53728
2.54006
2.54231
2.54282
2.54253
2.54192
2.54094
2.53955
2.53802
2.53681
2.53553
2.53402
2.53217
2.52963
2.52618
2.52173
2.51675
2.51121
2.50509
2.49889
2.49227
2.48496
2.47629
2.46636
2.45463
2.44191
2.42727
2.41124
2.39352
2.37427
2.35245
2.32917
2.30331
2.27803
2.25003
1
1
1
1
1
1
1
1
1
1
1
1
1
1
1
1
1
1
1
1
1
1
1
1
1
1
1
1
1
1
1
1
1
1
1
1
1
1
1
1
1
1
1
1
1
1
1
1
1
1
1
1
1
1
1
1
1.00063
1.41737
2.34884
2.51275
2.51248
2.51735
2.52258
2.52715
2.52937
2.52928
2.52875
2.52782
2.52657
2.52507
2.5236
2.52237
2.52065
2.51853
2.51584
2.5123
2.50755
2.50203
2.49585
2.48943
2.48299
2.47584
2.46863
2.45993
2.45032
2.43925
2.42736
2.41407
2.39917
2.3833
2.36569
2.34629
2.32516
2.3027
2.27991
2.25502
1
1
1
1
1
1
1
1
1
1
1
1
1
1
1
1
1
1
1
1
1
1
1
1
1
1
1
1
1
1
1
1
1
1
1
1
1
1
1
1
1
1
1
1
1
1
1
1
1
1
1
1
1
1
1
1
1
1.01499
1.87089
2.4613
2.49672
2.50293
2.50834
2.51226
2.51485
2.51519
2.51479
2.51391
2.51278
2.51143
2.50991
2.50886
2.50767
2.50572
2.50314
2.4996
2.49471
2.48866
2.48212
2.47564
2.4687
2.46127
2.45339
2.44481
2.43554
2.42505
2.41382
2.40129
2.38729
2.3727
2.35634
2.33907
2.32014
2.30099
2.27993
2.25853
1
1
1
1
1
1
1
1
1
1
1
1
1
1
1
1
1
1
1
1
1
1
1
1
1
1
1
1
1
1
1
1
1
1
1
1
1
1
1
1
1
1
1
1
1
1
1
1
1
1
1
1
1
1
1
1
1
1.00002
1.10932
2.10572
2.47616
2.49893
2.49863
2.50054
2.50186
2.50163
2.50087
2.49979
2.49854
2.49728
2.49583
2.49479
2.49417
2.49277
2.49061
2.48738
2.48264
2.47632
2.46962
2.46303
2.45565
2.44804
2.43987
2.43105
2.42203
2.41211
2.4015
2.38948
2.37622
2.36217
2.34686
2.33114
2.3143
2.29764
2.27883
2.26025
1
1
1
1
1
1
1
1
1
1
1
1
1
1
1
1
1
1
1
1
1
1
1
1
1
1
1
1
1
1
1
1
1
1
1
1
1
1
1
1
1
1
1
1
1
1
1
1
1
1
1
1
1
1
1
1
1
1
1.00081
1.25329
2.25743
2.4816
2.48127
2.48347
2.4835
2.48368
2.48357
2.48314
2.48257
2.48194
2.48094
2.48012
2.4797
2.47874
2.47697
2.47429
2.47017
2.4642
2.4577
2.45101
2.4437
2.43597
2.42784
2.41917
2.41026
2.40075
2.39058
2.37901
2.36631
2.35251
2.33808
2.32342
2.30835
2.29318
2.27643
2.25978
1
1
1
1
1
1
1
1
1
1
1
1
1
1
1
1
1
1
1
1
1
1
1
1
1
1
1
1
1
1
1
1
1
1
1
1
1
1
1
1
1
1
1
1
1
1
1
1
1
1
1
1
1
1
1
1
1
1
1
1.00456
1.62339
2.36691
2.45907
2.45605
2.4577
2.45988
2.46203
2.4634
2.46408
2.46459
2.46452
2.46456
2.46445
2.46379
2.46244
2.46016
2.45663
2.45132
2.44535
2.43884
2.43202
2.42461
2.41684
2.4086
2.39994
2.39078
2.3809
2.36984
2.3576
2.34413
2.33062
2.31674
2.30278
2.28844
2.27323
2.25786
1
1
1
1
1
1
1
1
1
1
1
1
1
1
1
1
1
1
1
1
1
1
1
1
1
1
1
1
1
1
1
1
1
1
1
1
1
1
1
1
1
1
1
1
1
1
1
1
1
1
1
1
1
1
1
1
1
1
1
1.00001
1.04256
1.88956
2.41556
2.44371
2.44229
2.44412
2.44571
2.44708
2.44795
2.44865
2.449
2.44942
2.44927
2.44855
2.44723
2.44513
2.44182
2.43724
2.43177
2.42609
2.41982
2.41312
2.40603
2.39847
2.39039
2.38174
2.3723
2.36185
2.35006
2.33716
2.32445
2.31115
2.29782
2.28412
2.2699
2.25515
1
1
1
1
1
1
1
1
1
1
1
1
1
1
1
1
1
1
1
1
1
1
1
1
1
1
1
1
1
1
1
1
1
1
1
1
1
1
1
1
1
1
1
1
1
1
1
1
1
1
1
1
1
1
1
1
1
1
1
1
1.00016
1.12352
2.01362
2.41222
2.43331
2.43474
2.43583
2.43572
2.43566
2.43549
2.43514
2.43476
2.43411
2.43307
2.43148
2.42922
2.42604
2.42174
2.41685
2.41198
2.40653
2.40066
2.39449
2.38789
2.38073
2.37287
2.3641
2.35442
2.34321
2.33109
2.31909
2.30631
2.29332
2.28021
2.26659
2.25236
1
1
1
1
1
1
1
1
1
1
1
1
1
1
1
1
1
1
1
1
1
1
1
1
1
1
1
1
1
1
1
1
1
1
1
1
1
1
1
1
1
1
1
1
1
1
1
1
1
1
1
1
1
1
1
1
1
1
1
1
1
1.00108
1.20244
2.09144
2.39805
2.42705
2.42616
2.42585
2.42531
2.42445
2.42342
2.42231
2.4209
2.41908
2.41676
2.41388
2.41043
2.40629
2.40179
2.39732
2.39251
2.38741
2.3821
2.37645
2.3703
2.36337
2.35542
2.34658
2.33613
2.32475
2.31332
2.30111
2.28862
2.27628
2.26329
2.24974
1
1
1
1
1
1
1
1
1
1
1
1
1
1
1
1
1
1
1
1
1
1
1
1
1
1
1
1
1
1
1
1
1
1
1
1
1
1
1
1
1
1
1
1
1
1
1
1
1
1
1
1
1
1
1
1
1
1
1
1
1
1
1.00287
1.28156
2.14487
2.38698
2.40959
2.41169
2.41231
2.41224
2.4116
2.41037
2.40853
2.40619
2.40338
2.40002
2.39618
2.39198
2.3876
2.38313
2.37851
2.37383
2.36907
2.36406
2.35864
2.35244
2.34526
2.33721
2.32764
2.31712
2.30643
2.29504
2.28342
2.27203
2.25986
2.24717
1
1
1
1
1
1
1
1
1
1
1
1
1
1
1
1
1
1
1
1
1
1
1
1
1
1
1
1
1
1
1
1
1
1
1
1
1
1
1
1
1
1
1
1
1
1
1
1
1
1
1
1
1
1
1
1
1
1
1
1
1
1
1
1.00581
1.3624
2.18169
2.37338
2.38928
2.39425
2.39643
2.39704
2.39635
2.39491
2.39299
2.39039
2.38709
2.3833
2.37922
2.37496
2.37053
2.36594
2.36127
2.35652
2.35157
2.34631
2.3404
2.3337
2.32637
2.31786
2.3084
2.29868
2.28821
2.27757
2.26709
2.25591
2.2442
1
1
1
1
1
1
1
1
1
1
1
1
1
1
1
1
1
1
1
1
1
1
1
1
1
1
1
1
1
1
1
1
1
1
1
1
1
1
1
1
1
1
1
1
1
1
1
1
1
1
1
1
1
1
1
1
1
1
1
1
1
1
1
1.00001
1.01049
1.43169
2.20935
2.36081
2.37093
2.37492
2.377
2.3778
2.37771
2.377
2.37533
2.37294
2.37001
2.36661
2.36281
2.35862
2.3541
2.34938
2.34453
2.33946
2.33417
2.32836
2.32188
2.31493
2.30714
2.29855
2.28962
2.28006
2.27044
2.26087
2.25082
2.24019
1
1
1
1
1
1
1
1
1
1
1
1
1
1
1
1
1
1
1
1
1
1
1
1
1
1
1
1
1
1
1
1
1
1
1
1
1
1
1
1
1
1
1
1
1
1
1
1
1
1
1
1
1
1
1
1
1
1
1
1
1
1
1
1
1.00002
1.01636
1.49163
2.22968
2.35285
2.35328
2.35464
2.35553
2.35644
2.35711
2.357
2.35633
2.35489
2.35262
2.34961
2.34594
2.34184
2.3374
2.33271
2.32777
2.32251
2.31675
2.31039
2.30365
2.29634
2.28837
2.27999
2.27122
2.26239
2.25351
2.24445
2.23489
1
1
1
1
1
1
1
1
1
1
1
1
1
1
1
1
1
1
1
1
1
1
1
1
1
1
1
1
1
1
1
1
1
1
1
1
1
1
1
1
1
1
1
1
1
1
1
1
1
1
1
1
1
1
1
1
1
1
1
1
1
1
1
1
1
1.00005
1.02319
1.56276
2.24601
2.33945
2.33751
2.33671
2.3368
2.33688
2.33704
2.33696
2.33649
2.33541
2.33357
2.33102
2.32788
2.32425
2.3202
2.31574
2.31082
2.30536
2.29932
2.29282
2.28586
2.27834
2.27039
2.26218
2.25391
2.24554
2.23711
2.22842
1
1
1
1
1
1
1
1
1
1
1
1
1
1
1
1
1
1
1
1
1
1
1
1
1
1
1
1
1
1
1
1
1
1
1
1
1
1
1
1
1
1
1
1
1
1
1
1
1
1
1
1
1
1
1
1
1
1
1
1
1
1
1
1
1
1
1.00008
1.0339
1.59191
2.24446
2.32746
2.3255
2.32357
2.32215
2.32089
2.31983
2.31873
2.31738
2.31574
2.31386
2.31163
2.30901
2.30592
2.30232
2.29816
2.29338
2.28796
2.28199
2.27554
2.26857
2.2611
2.25339
2.24558
2.23753
2.22954
2.22133
1
1
1
1
1
1
1
1
1
1
1
1
1
1
1
1
1
1
1
1
1
1
1
1
1
1
1
1
1
1
1
1
1
1
1
1
1
1
1
1
1
1
1
1
1
1
1
1
1
1
1
1
1
1
1
1
1
1
1
1
1
1
1
1
1
1
1
1.00014
1.03968
1.58868
2.23308
2.3174
2.31504
2.31237
2.30972
2.307
2.3043
2.30152
2.29886
2.29648
2.29422
2.2919
2.28934
2.28644
2.28311
2.2793
2.2749
2.26986
2.26431
2.25816
2.25139
2.24435
2.23704
2.22948
2.22177
2.21391
1
1
1
1
1
1
1
1
1
1
1
1
1
1
1
1
1
1
1
1
1
1
1
1
1
1
1
1
1
1
1
1
1
1
1
1
1
1
1
1
1
1
1
1
1
1
1
1
1
1
1
1
1
1
1
1
1
1
1
1
1
1
1
1
1
1
1
1
1.00019
1.03959
1.58196
2.21537
2.30599
2.30418
2.30059
2.29697
2.29304
2.28935
2.28582
2.28239
2.27909
2.27592
2.27292
2.26996
2.26688
2.26361
2.26001
2.25597
2.25143
2.24636
2.24072
2.23438
2.22778
2.22089
2.21362
2.20642
1
1
1
1
1
1
1
1
1
1
1
1
1
1
1
1
1
1
1
1
1
1
1
1
1
1
1
1
1
1
1
1
1
1
1
1
1
1
1
1
1
1
1
1
1
1
1
1
1
1
1
1
1
1
1
1
1
1
1
1
1
1
1
1
1
1
1
1
1
1.00019
1.03845
1.55745
2.18789
2.29361
2.29258
2.28848
2.28455
2.28034
2.2763
2.27219
2.268
2.26379
2.25969
2.25574
2.2519
2.2481
2.24449
2.24091
2.23703
2.23282
2.2281
2.22283
2.2172
2.21096
2.20483
2.19814
1
1
1
1
1
1
1
1
1
1
1
1
1
1
1
1
1
1
1
1
1
1
1
1
1
1
1
1
1
1
1
1
1
1
1
1
1
1
1
1
1
1
1
1
1
1
1
1
1
1
1
1
1
1
1
1
1
1
1
1
1
1
1
1
1
1
1
1
1
1
1.00018
1.03417
1.51599
2.15173
2.27543
2.28002
2.27631
2.27255
2.26834
2.2641
2.25968
2.25503
2.25018
2.24529
2.24045
2.23574
2.23123
2.22698
2.22297
2.21887
2.21459
2.21023
2.20537
2.20012
2.19454
2.18862
1
1
1
1
1
1
1
1
1
1
1
1
1
1
1
1
1
1
1
1
1
1
1
1
1
1
1
1
1
1
1
1
1
1
1
1
1
1
1
1
1
1
1
1
1
1
1
1
1
1
1
1
1
1
1
1
1
1
1
1
1
1
1
1
1
1
1
1
1
1
1
1.00015
1.02763
1.4633
2.0926
2.25875
2.2683
2.26422
2.26047
2.25609
2.25162
2.24708
2.24244
2.23736
2.232
2.22672
2.22148
2.2164
2.21171
2.20718
2.20268
2.19806
2.19336
2.18865
2.18352
2.17868
1
1
1
1
1
1
1
1
1
1
1
1
1
1
1
1
1
1
1
1
1
1
1
1
1
1
1
1
1
1
1
1
1
1
1
1
1
1
1
1
1
1
1
1
1
1
1
1
1
1
1
1
1
1
1
1
1
1
1
1
1
1
1
1
1
1
1
1
1
1
1
1
1.00011
1.02076
1.38734
2.01967
2.22696
2.25732
2.25131
2.24762
2.24338
2.23897
2.23435
2.2295
2.22465
2.21991
2.21497
2.20967
2.20428
2.1989
2.19362
2.18854
2.18346
2.17858
2.17348
2.16838
1
1
1
1
1
1
1
1
1
1
1
1
1
1
1
1
1
1
1
1
1
1
1
1
1
1
1
1
1
1
1
1
1
1
1
1
1
1
1
1
1
1
1
1
1
1
1
1
1
1
1
1
1
1
1
1
1
1
1
1
1
1
1
1
1
1
1
1
1
1
1
1
1
1.00007
1.01337
1.30498
1.90875
2.19549
2.24014
2.23524
2.23314
2.23049
2.22715
2.22321
2.21888
2.21423
2.2094
2.20438
2.19917
2.19379
2.18825
2.1826
2.17683
2.17119
2.16536
2.15985
1
1
1
1
1
1
1
1
1
1
1
1
1
1
1
1
1
1
1
1
1
1
1
1
1
1
1
1
1
1
1
1
1
1
1
1
1
1
1
1
1
1
1
1
1
1
1
1
1
1
1
1
1
1
1
1
1
1
1
1
1
1
1
1
1
1
1
1
1
1
1
1
1
1
1.00004
1.00777
1.21182
1.78435
2.15137
2.21886
2.21796
2.21747
2.21559
2.21344
2.21059
2.20714
2.2032
2.19876
2.19376
2.18851
2.18296
2.17739
2.17173
2.16596
2.16009
2.15388
1
1
1
1
1
1
1
1
1
1
1
1
1
1
1
1
1
1
1
1
1
1
1
1
1
1
1
1
1
1
1
1
1
1
1
1
1
1
1
1
1
1
1
1
1
1
1
1
1
1
1
1
1
1
1
1
1
1
1
1
1
1
1
1
1
1
1
1
1
1
1
1
1
1
1
1.00002
1.00377
1.13057
1.64961
2.10003
2.18968
2.20126
2.19819
2.19813
2.19732
2.19565
2.19322
2.19013
2.1864
2.18206
2.17732
2.17216
2.16685
2.16118
2.15538
2.14917
1
1
1
1
1
1
1
1
1
1
1
1
1
1
1
1
1
1
1
1
1
1
1
1
1
1
1
1
1
1
1
1
1
1
1
1
1
1
1
1
1
1
1
1
1
1
1
1
1
1
1
1
1
1
1
1
1
1
1
1
1
1
1
1
1
1
1
1
1
1
1
1
1
1
1
1
1.00001
1.00157
1.07067
1.51874
2.02269
2.15827
2.18937
2.18119
2.18128
2.18083
2.17975
2.17787
2.1754
2.17238
2.1688
2.16495
2.16053
2.15557
2.15001
2.14431
1
1
1
1
1
1
1
1
1
1
1
1
1
1
1
1
1
1
1
1
1
1
1
1
1
1
1
1
1
1
1
1
1
1
1
1
1
1
1
1
1
1
1
1
1
1
1
1
1
1
1
1
1
1
1
1
1
1
1
1
1
1
1
1
1
1
1
1
1
1
1
1
1
1
1
1
1
1
1.00056
1.03435
1.38463
1.90683
2.13077
2.1695
2.16665
2.1649
2.16346
2.16225
2.16049
2.15897
2.15682
2.15396
2.15037
2.14635
2.14173
2.13696
1
1
1
1
1
1
1
1
1
1
1
1
1
1
1
1
1
1
1
1
1
1
1
1
1
1
1
1
1
1
1
1
1
1
1
1
1
1
1
1
1
1
1
1
1
1
1
1
1
1
1
1
1
1
1
1
1
1
1
1
1
1
1
1
1
1
1
1
1
1
1
1
1
1
1
1
1
1
1
1.00017
1.01487
1.24883
1.75781
2.08909
2.14663
2.15292
2.14849
2.14638
2.14556
2.14438
2.14227
2.13976
2.13721
2.13317
2.13385
2.13681
1
1
1
1
1
1
1
1
1
1
1
1
1
1
1
1
1
1
1
1
1
1
1
1
1
1
1
1
1
1
1
1
1
1
1
1
1
1
1
1
1
1
1
1
1
1
1
1
1
1
1
1
1
1
1
1
1
1
1
1
1
1
1
1
1
1
1
1
1
1
1
1
1
1
1
1
1
1
1
1
1.00005
1.00556
1.13272
1.59443
2.01879
2.11691
2.13898
2.13491
2.1338
2.13076
2.12629
2.12464
2.12741
2.13729
2.15873
2.19641
1
1
1
1
1
1
1
1
1
1
1
1
1
1
1
1
1
1
1
1
1
1
1
1
1
1
1
1
1
1
1
1
1
1
1
1
1
1
1
1
1
1
1
1
1
1
1
1
1
1
1
1
1
1
1
1
1
1
1
1
1
1
1
1
1
1
1
1
1
1
1
1
1
1
1
1
1
1
1
1
1
1.00001
1.00173
1.05789
1.43252
1.90373
2.09208
2.125
2.11945
2.11363
2.11944
2.13781
2.17276
2.22431
2.281
2.32924
1
1
1
1
1
1
1
1
1
1
1
1
1
1
1
1
1
1
1
1
1
1
1
1
1
1
1
1
1
1
1
1
1
1
1
1
1
1
1
1
1
1
1
1
1
1
1
1
1
1
1
1
1
1
1
1
1
1
1
1
1
1
1
1
1
1
1
1
1
1
1
1
1
1
1
1
1
1
1
1
1
1
1
1.00041
1.02189
1.27321
1.73635
2.05905
2.08849
2.14061
2.19425
2.25572
2.30658
2.34597
2.36579
2.38116
1
1
1
1
1
1
1
1
1
1
1
1
1
1
1
1
1
1
1
1
1
1
1
1
1
1
1
1
1
1
1
1
1
1
1
1
1
1
1
1
1
1
1
1
1
1
1
1
1
1
1
1
1
1
1
1
1
1
1
1
1
1
1
1
1
1
1
1
1
1
1
1
1
1
1
1
1
1
1
1
1
1
1
1
1.00009
1.00705
1.13531
1.55512
1.99523
2.31734
2.36597
2.39019
2.39821
2.39642
2.39038
2.38416
1
1
1
1
1
1
1
1
1
1
1
1
1
1
1
1
1
1
1
1
1
1
1
1
1
1
1
1
1
1
1
1
1
1
1
1
1
1
1
1
1
1
1
1
1
1
1
1
1
1
1
1
1
1
1
1
1
1
1
1
1
1
1
1
1
1
1
1
1
1
1
1
1
1
1
1
1
1
1
1
1
1
1
1
1
1.00002
1.00195
1.04713
2.09568
2.60153
2.57067
2.5397
2.51067
2.47971
2.45094
2.42482
1
1
1
1
1
1
1
1
1
1
1
1
1
1
1
1
1
1
1
1
1
1
1
1
1
1
1
1
1
1
1
1
1
1
1
1
1
1
1
1
1
1
1
1
1
1
1
1
1
1
1
1
1
1
1
1
1
1
1
1
1
1
1
1
1
1
1
1
1
1
1
1
1
1
1
1
1
1
1
1
1
1
1
1
1
1
1
1.00029
2.18967
2.704
2.67176
2.63149
2.5967
2.56509
2.53619
2.50802
1
1
1
1
1
1
1
1
1
1
1
1
1
1
1
1
1
1
1
1
1
1
1
1
1
1
1
1
1
1
1
1
1
1
1
1
1
1
1
1
1
1
1
1
1
1
1
1
1
1
1
1
1
1
1
1
1
1
1
1
1
1
1
1
1
1
1
1
1
1
1
1
1
1
1
1
1
1
1
1
1
1
1
1
1
1
1
1
2.07504
2.71405
2.70981
2.69872
2.68264
2.66257
2.64097
2.61857
1
1
1
1
1
1
1
1
1
1
1
1
1
1
1
1
1
1
1
1
1
1
1
1
1
1
1
1
1
1
1
1
1
1
1
1
1
1
1
1
1
1
1
1
1
1
1
1
1
1
1
1
1
1
1
1
1
1
1
1
1
1
1
1
1
1
1
1
1
1
1
1
1
1
1
1
1
1
1
1
1
1
1
1
1
1
1
1
1.84721
2.6614
2.7091
2.70604
2.7027
2.6972
2.68892
2.67808
1
1
1
1
1
1
1
1
1
1
1
1
1
1
1
1
1
1
1
1
1
1
1
1
1
1
1
1
1
1
1
1
1
1
1
1
1
1
1
1
1
1
1
1
1
1
1
1
1
1
1
1
1
1
1
1
1
1
1
1
1
1
1
1
1
1
1
1
1
1
1
1
1
1
1
1
1
1
1
1
1
1
1
1
1
1
1
1
1.55182
2.56113
2.70029
2.69933
2.69811
2.69557
2.69333
2.69041
1
1
1
1
1
1
1
1
1
1
1
1
1
1
1
1
1
1
1
1
1
1
1
1
1
1
1
1
1
1
1
1
1
1
1
1
1
1
1
1
1
1
1
1
1
1
1
1
1
1
1
1
1
1
1
1
1
1
1
1
1
1
1
1
1
1
1
1
1
1
1
1
1
1
1
1
1
1
1
1
1
1
1
1
1
1
1
1
1.23292
2.42772
2.68967
2.6902
2.69112
2.69135
2.69103
2.68973
1
1
1
1
1
1
1
1
1
1
1
1
1
1
1
1
1
1
1
1
1
1
1
1
1
1
1
1
1
1
1
1
1
1
1
1
1
1
1
1
1
1
1
1
1
1
1
1
1
1
1
1
1
1
1
1
1
1
1
1
1
1
1
1
1
1
1
1
1
1
1
1
1
1
1
1
1
1
1
1
1
1
1
1
1
1
1
1
1.00608
2.2837
2.68221
2.693
2.68894
2.68792
2.68702
2.68626
1
1
1
1
1
1
1
1
1
1
1
1
1
1
1
1
1
1
1
1
1
1
1
1
1
1
1
1
1
1
1
1
1
1
1
1
1
1
1
1
1
1
1
1
1
1
1
1
1
1
1
1
1
1
1
1
1
1
1
1
1
1
1
1
1
1
1
1
1
1
1
1
1
1
1
1
1
1
1
1
1
1
1
1
1
1
1
1
1.00001
2.10796
2.6686
2.69221
2.68873
2.68736
2.68555
2.68393
1
1
1
1
1
1
1
1
1
1
1
1
1
1
1
1
1
1
1
1
1
1
1
1
1
1
1
1
1
1
1
1
1
1
1
1
1
1
1
1
1
1
1
1
1
1
1
1
1
1
1
1
1
1
1
1
1
1
1
1
1
1
1
1
1
1
1
1
1
1
1
1
1
1
1
1
1
1
1
1
1
1
1
1
1
1
1
1
1
1.89852
2.64429
2.69618
2.69141
2.68901
2.68621
2.68352
1
1
1
1
1
1
1
1
1
1
1
1
1
1
1
1
1
1
1
1
1
1
1
1
1
1
1
1
1
1
1
1
1
1
1
1
1
1
1
1
1
1
1
1
1
1
1
1
1
1
1
1
1
1
1
1
1
1
1
1
1
1
1
1
1
1
1
1
1
1
1
1
1
1
1
1
1
1
1
1
1
1
1
1
1
1
1
1
1
1.66115
2.60046
2.69624
2.69096
2.68833
2.68531
2.68229
1
1
1
1
1
1
1
1
1
1
1
1
1
1
1
1
1
1
1
1
1
1
1
1
1
1
1
1
1
1
1
1
1
1
1
1
1
1
1
1
1
1
1
1
1
1
1
1
1
1
1
1
1
1
1
1
1
1
1
1
1
1
1
1
1
1
1
1
1
1
1
1
1
1
1
1
1
1
1
1
1
1
1
1
1
1
1
1
1
1.41942
2.52427
2.69614
2.69099
2.68822
2.68532
2.68239
1
1
1
1
1
1
1
1
1
1
1
1
1
1
1
1
1
1
1
1
1
1
1
1
1
1
1
1
1
1
1
1
1
1
1
1
1
1
1
1
1
1
1
1
1
1
1
1
1
1
1
1
1
1
1
1
1
1
1
1
1
1
1
1
1
1
1
1
1
1
1
1
1
1
1
1
1
1
1
1
1
1
1
1
1
1
1
1
1
1.21787
2.43354
2.69673
2.6925
2.689
2.68607
2.68324
1
1
1
1
1
1
1
1
1
1
1
1
1
1
1
1
1
1
1
1
1
1
1
1
1
1
1
1
1
1
1
1
1
1
1
1
1
1
1
1
1
1
1
1
1
1
1
1
1
1
1
1
1
1
1
1
1
1
1
1
1
1
1
1
1
1
1
1
1
1
1
1
1
1
1
1
1
1
1
1
1
1
1
1
1
1
1
1
1
1.01746
2.31739
2.69526
2.69682
2.69241
2.68973
2.68688
1
1
1
1
1
1
1
1
1
1
1
1
1
1
1
1
1
1
1
1
1
1
1
1
1
1
1
1
1
1
1
1
1
1
1
1
1
1
1
1
1
1
1
1
1
1
1
1
1
1
1
1
1
1
1
1
1
1
1
1
1
1
1
1
1
1
1
1
1
1
1
1
1
1
1
1
1
1
1
1
1
1
1
1
1
1
1
1
1
1.00003
2.20325
2.68995
2.70055
2.69613
2.69365
2.69068
1
1
1
1
1
1
1
1
1
1
1
1
1
1
1
1
1
1
1
1
1
1
1
1
1
1
1
1
1
1
1
1
1
1
1
1
1
1
1
1
1
1
1
1
1
1
1
1
1
1
1
1
1
1
1
1
1
1
1
1
1
1
1
1
1
1
1
1
1
1
1
1
1
1
1
1
1
1
1
1
1
1
1
1
1
1
1
1
1
1
2.08877
2.68424
2.70668
2.70178
2.69902
2.69568
1
1
1
1
1
1
1
1
1
1
1
1
1
1
1
1
1
1
1
1
1
1
1
1
1
1
1
1
1
1
1
1
1
1
1
1
1
1
1
1
1
1
1
1
1
1
1
1
1
1
1
1
1
1
1
1
1
1
1
1
1
1
1
1
1
1
1
1
1
1
1
1
1
1
1
1
1
1
1
1
1
1
1
1
1
1
1
1
1
1
1.98821
2.67752
2.71328
2.70734
2.70365
2.69952
1
1
1
1
1
1
1
1
1
1
1
1
1
1
1
1
1
1
1
1
1
1
1
1
1
1
1
1
1
1
1
1
1
1
1
1
1
1
1
1
1
1
1
1
1
1
1
1
1
1
1
1
1
1
1
1
1
1
1
1
1
1
1
1
1
1
1
1
1
1
1
1
1
1
1
1
1
1
1
1
1
1
1
1
1
1
1
1
1
1
1.90471
2.66933
2.71867
2.71187
2.70714
2.7021
1
1
1
1
1
1
1
1
1
1
1
1
1
1
1
1
1
1
1
1
1
1
1
1
1
1
1
1
1
1
1
1
1
1
1
1
1
1
1
1
1
1
1
1
1
1
1
1
1
1
1
1
1
1
1
1
1
1
1
1
1
1
1
1
1
1
1
1
1
1
1
1
1
1
1
1
1
1
1
1
1
1
1
1
1
1
1
1
1
1
1.8374
2.65938
2.72107
2.71375
2.70872
2.70333
1
1
1
1
1
1
1
1
1
1
1
1
1
1
1
1
1
1
1
1
1
1
1
1
1
1
1
1
1
1
1
1
1
1
1
1
1
1
1
1
1
1
1
1
1
1
1
1
1
1
1
1
1
1
1
1
1
1
1
1
1
1
1
1
1
1
1
1
1
1
1
1
1
1
1
1
1
1
1
1
1
1
1
1
1
1
1
1
1
1
1.7785
2.64699
2.72126
2.71405
2.70904
2.7036
1
1
1
1
1
1
1
1
1
1
1
1
1
1
1
1
1
1
1
1
1
1
1
1
1
1
1
1
1
1
1
1
1
1
1
1
1
1
1
1
1
1
1
1
1
1
1
1
1
1
1
1
1
1
1
1
1
1
1
1
1
1
1
1
1
1
1
1
1
1
1
1
1
1
1
1
1
1
1
1
1
1
1
1
1
1
1
1
1
1
1.72774
2.63279
2.71989
2.7137
2.7094
2.70442
1
1
1
1
1
1
1
1
1
1
1
1
1
1
1
1
1
1
1
1
1
1
1
1
1
1
1
1
1
1
1
1
1
1
1
1
1
1
1
1
1
1
1
1
1
1
1
1
1
1
1
1
1
1
1
1
1
1
1
1
1
1
1
1
1
1
1
1
1
1
1
1
1
1
1
1
1
1
1
1
1
1
1
1
1
1
1
1
1
1
1.68814
2.62003
2.71679
2.71221
2.70927
2.7053
1
1
1
1
1
1
1
1
1
1
1
1
1
1
1
1
1
1
1
1
1
1
1
1
1
1
1
1
1
1
1
1
1
1
1
1
1
1
1
1
1
1
1
1
1
1
1
1
1
1
1
1
1
1
1
1
1
1
1
1
1
1
1
1
1
1
1
1
1
1
1
1
1
1
1
1
1
1
1
1
1
1
1
1
1
1
1
1
1
1
1.66109
2.61018
2.71374
2.71067
2.70908
2.706
1
1
1
1
1
1
1
1
1
1
1
1
1
1
1
1
1
1
1
1
1
1
1
1
1
1
1
1
1
1
1
1
1
1
1
1
1
1
1
1
1
1
1
1
1
1
1
1
1
1
1
1
1
1
1
1
1
1
1
1
1
1
1
1
1
1
1
1
1
1
1
1
1
1
1
1
1
1
1
1
1
1
1
1
1
1
1
1
1
1
1.64815
2.6045
2.71126
2.70914
2.70841
2.70593
1.51021
0.927119
0.472172
0.437429
0.706838
0.971018
1.06301
1.13526
1.29234
1.36024
1.34862
1.33307
1.32808
1.35075
1.42653
1.52142
1.57925
1.59534
1.59091
1.58069
1.57236
1.57537
1.59171
1.604
1.60435
1.59726
1.58983
1.5926
1.60308
1.61663
1.62999
1.63512
1.63437
1.63139
1.63037
1.63421
1.64559
1.65783
1.66114
1.65991
1.65519
1.65234
1.65307
1.65601
1.65762
1.65698
1.6528
1.64386
1.64548
1.68501
2.16277
2.67522
2.68265
2.67855
2.67096
2.66362
2.6573
2.65018
2.64328
2.63781
2.63408
2.62925
2.62258
2.61849
2.6161
2.61551
2.61602
2.61436
2.60829
2.59839
2.58677
2.57521
2.56542
2.55866
2.55414
2.54711
2.53825
2.52952
2.52219
2.51649
2.51283
2.51137
2.50857
2.50134
2.49219
2.48254
2.4734
2.46584
2.46025
2.45742
2.45684
2.45591
2.45267
2.4477
2.44161
2.43449
2.42646
2.41792
2.40938
2.40105
2.39312
2.38633
2.38113
2.37701
2.3736
2.37063
2.36777
2.36471
2.36126