/*--------------------------------*- C++ -*----------------------------------*\
  =========                 |
  \\      /  F ield         | OpenFOAM: The Open Source CFD Toolbox
   \\    /   O peration     | Website:  https://openfoam.org
    \\  /    A nd           | Version:  7
     \\/     M anipulation  |
\*---------------------------------------------------------------------------*/
FoamFile
{
    version     2.0;
    format      ascii;
    class       volVectorField;
    location    "5";
    object      U;
}
// * * * * * * * * * * * * * * * * * * * * * * * * * * * * * * * * * * * * * //

dimensions      [0 1 -1 0 0 0 0];

internalField   nonuniform List<vector> 
19968
(
(3 9.65425e-18 0)
(3 1.81363e-16 0)
(3 6.76667e-16 0)
(3 9.25298e-16 0)
(3 1.04944e-15 0)
(3 1.38875e-15 0)
(3 1.26644e-15 0)
(3 8.70797e-16 0)
(3 -2.53677e-16 0)
(3 -4.68533e-16 0)
(3 8.17292e-17 0)
(3 9.05273e-16 0)
(3 1.12962e-15 0)
(3 9.37597e-16 0)
(3 1.40687e-15 0)
(3 1.83916e-15 0)
(3 1.8969e-15 0)
(3 1.64293e-15 0)
(3 1.22372e-15 0)
(3 1.23178e-15 0)
(3 1.4179e-15 0)
(3 1.6825e-15 0)
(3 1.58763e-15 0)
(3 1.6289e-15 0)
(3 1.52864e-15 0)
(3 1.24226e-15 0)
(3 3.49558e-16 0)
(3 -1.18479e-15 0)
(3 -1.84636e-15 0)
(3 -1.02189e-15 0)
(3 -2.72614e-16 0)
(3 5.2435e-16 0)
(3 1.34836e-15 0)
(3 1.80413e-15 0)
(3 1.84685e-15 0)
(3 1.71551e-15 0)
(3 1.4813e-15 0)
(3 1.58621e-15 0)
(3 1.55454e-15 0)
(3 5.58907e-16 0)
(3 6.14651e-16 0)
(3 8.0611e-16 0)
(3 -4.8535e-17 0)
(3 -8.53838e-16 0)
(3 -9.66922e-16 0)
(3 -6.14572e-16 0)
(3 -1.61183e-16 0)
(3 -3.76916e-16 0)
(2.80855 0.00228032 0)
(0.971134 0.00734271 0)
(0.760082 0.00541265 0)
(0.746452 0.00838593 0)
(0.728933 0.00882818 0)
(0.713046 0.0090595 0)
(0.697221 0.00904229 0)
(0.682053 0.00880969 0)
(0.667349 0.0086459 0)
(0.652662 0.00870597 0)
(0.637634 0.00890863 0)
(0.622226 0.00924942 0)
(0.606582 0.00955352 0)
(0.59122 0.00939323 0)
(0.57667 0.0089585 0)
(0.562525 0.00895369 0)
(0.547779 0.00940427 0)
(0.531985 0.00981828 0)
(0.515589 0.00991031 0)
(0.49926 0.00981295 0)
(0.483324 0.00977657 0)
(0.46775 0.00987887 0)
(0.452394 0.0100374 0)
(0.437121 0.01017 0)
(0.421765 0.010268 0)
(0.406128 0.0103614 0)
(0.390043 0.0104829 0)
(0.373469 0.0106315 0)
(0.356571 0.0107746 0)
(0.339623 0.0109073 0)
(0.322826 0.0110498 0)
(0.306239 0.0111933 0)
(0.289827 0.0113167 0)
(0.273488 0.0114256 0)
(0.257075 0.0115333 0)
(0.240439 0.0116455 0)
(0.223472 0.0117716 0)
(0.206119 0.0119236 0)
(0.18838 0.0121106 0)
(0.170291 0.0123385 0)
(0.151883 0.0126124 0)
(0.133156 0.0129297 0)
(0.11406 0.0132837 0)
(0.0945105 0.0136487 0)
(0.0744136 0.0140187 0)
(0.053662 0.0143663 0)
(0.0324078 0.0145006 0)
(0.0108841 0.0146319 0)
(3 -1.70781e-16 0)
(3 1.01637e-16 0)
(3 5.60741e-16 0)
(3 6.25625e-16 0)
(3 5.55266e-16 0)
(3 7.20625e-16 0)
(3 8.67189e-16 0)
(3 7.34326e-16 0)
(3 1.56361e-16 0)
(3 -1.56308e-16 0)
(3 3.59801e-16 0)
(3 2.02099e-15 0)
(3 2.63042e-15 0)
(3 3.09558e-15 0)
(3 3.44226e-15 0)
(3 3.22145e-15 0)
(3 2.50332e-15 0)
(3 1.12432e-15 0)
(3 1.20757e-15 0)
(3 1.09929e-15 0)
(3 1.01638e-15 0)
(3 1.41165e-15 0)
(3 1.38373e-15 0)
(3 1.80621e-15 0)
(3 2.22293e-15 0)
(3 2.00947e-15 0)
(3 4.92078e-16 0)
(3 -7.34828e-16 0)
(3 -1.03666e-15 0)
(3 -7.65815e-16 0)
(3 5.1355e-16 0)
(3 2.13449e-15 0)
(3 2.31067e-15 0)
(3 2.84295e-15 0)
(3 2.99312e-15 0)
(3 2.79073e-15 0)
(3 2.14655e-15 0)
(3 1.50308e-15 0)
(3 9.06954e-16 0)
(3 -2.59382e-16 0)
(3 -3.83925e-16 0)
(3 -4.21835e-17 0)
(3 4.97094e-17 0)
(3 -1.52779e-16 0)
(3 -1.74085e-16 0)
(3 3.07451e-16 0)
(3 -1.0837e-16 0)
(3 -6.96059e-16 0)
(2.82304 0.012931 0)
(0.976506 0.0323517 0)
(0.756491 0.0240713 0)
(0.740599 0.0238435 0)
(0.724292 0.0254583 0)
(0.708824 0.026358 0)
(0.693423 0.0265565 0)
(0.67847 0.0261532 0)
(0.663764 0.0258635 0)
(0.648969 0.0260732 0)
(0.63387 0.0266311 0)
(0.618517 0.0275905 0)
(0.603044 0.0285202 0)
(0.587835 0.0282454 0)
(0.573268 0.0272017 0)
(0.558898 0.0272172 0)
(0.543979 0.0284727 0)
(0.528116 0.0296061 0)
(0.511752 0.0298686 0)
(0.495473 0.0296891 0)
(0.479516 0.0297228 0)
(0.463853 0.0301064 0)
(0.448394 0.0305624 0)
(0.433054 0.0308894 0)
(0.417676 0.0311308 0)
(0.402031 0.0313919 0)
(0.385929 0.0317417 0)
(0.369327 0.0321656 0)
(0.352396 0.0325747 0)
(0.33542 0.0329655 0)
(0.318602 0.0334078 0)
(0.301999 0.0338764 0)
(0.28557 0.0342983 0)
(0.269218 0.0346753 0)
(0.252808 0.0350357 0)
(0.236216 0.0353917 0)
(0.219352 0.0357765 0)
(0.202167 0.036237 0)
(0.184655 0.036812 0)
(0.166836 0.037524 0)
(0.148735 0.0383871 0)
(0.130351 0.0393843 0)
(0.111645 0.0404878 0)
(0.0925352 0.0416262 0)
(0.0729138 0.0427849 0)
(0.0526525 0.0438844 0)
(0.0318523 0.0443604 0)
(0.0107323 0.0448691 0)
(3 -1.47682e-16 0)
(3 -2.99186e-16 0)
(3 -2.61159e-16 0)
(3 -2.91093e-16 0)
(3 -4.24797e-16 0)
(3 -5.13972e-16 0)
(3 -1.78964e-16 0)
(3 1.25741e-16 0)
(3 4.96362e-16 0)
(3 5.05942e-16 0)
(3 9.10761e-16 0)
(3 1.83485e-15 0)
(3 2.98003e-15 0)
(3 4.93736e-15 0)
(3 5.61093e-15 0)
(3 4.56244e-15 0)
(3 2.60987e-15 0)
(3 2.22272e-15 0)
(3 1.32141e-15 0)
(3 5.73872e-16 0)
(3 -1.09219e-16 0)
(3 -2.85234e-16 0)
(3 2.30608e-16 0)
(3 5.51162e-16 0)
(3 4.58749e-16 0)
(3 4.53919e-16 0)
(3 1.20526e-15 0)
(3 1.52149e-15 0)
(3 1.89389e-15 0)
(3 2.17581e-15 0)
(3 2.42221e-15 0)
(3 2.74785e-15 0)
(3 1.95809e-15 0)
(3 7.6678e-16 0)
(3 1.07195e-15 0)
(3 6.59114e-16 0)
(3 1.47102e-15 0)
(3 2.05076e-15 0)
(3 1.92613e-15 0)
(3 1.79581e-15 0)
(3 6.79409e-16 0)
(3 3.41953e-16 0)
(3 1.52224e-15 0)
(3 2.56353e-15 0)
(3 2.51455e-15 0)
(3 1.82734e-15 0)
(3 1.26087e-15 0)
(3 6.48438e-16 0)
(2.85933 0.0211375 0)
(0.994316 0.0542932 0)
(0.760977 0.0443147 0)
(0.744081 0.0413761 0)
(0.727336 0.043353 0)
(0.711545 0.0446772 0)
(0.696006 0.0452449 0)
(0.680819 0.0449668 0)
(0.665755 0.044819 0)
(0.650545 0.0452622 0)
(0.63509 0.0460238 0)
(0.619556 0.0473471 0)
(0.604066 0.0486867 0)
(0.588843 0.0483538 0)
(0.5741 0.0469526 0)
(0.559342 0.0471321 0)
(0.544112 0.0491265 0)
(0.52802 0.0508055 0)
(0.51152 0.0510856 0)
(0.495128 0.0507895 0)
(0.479007 0.0509609 0)
(0.46314 0.0517211 0)
(0.44746 0.0525337 0)
(0.431919 0.0530747 0)
(0.416375 0.0534837 0)
(0.400579 0.0539621 0)
(0.384316 0.0545897 0)
(0.367543 0.0553104 0)
(0.35043 0.0559704 0)
(0.33326 0.0565653 0)
(0.316238 0.057223 0)
(0.299417 0.0579196 0)
(0.282755 0.0585448 0)
(0.266167 0.0591051 0)
(0.249553 0.0596509 0)
(0.232825 0.0602013 0)
(0.21593 0.0608063 0)
(0.19883 0.0615352 0)
(0.181502 0.0624427 0)
(0.163937 0.0635596 0)
(0.146127 0.0649133 0)
(0.12806 0.066485 0)
(0.109697 0.0682467 0)
(0.090957 0.0701078 0)
(0.0717294 0.0720561 0)
(0.0518753 0.0739614 0)
(0.0314268 0.0748721 0)
(0.0106327 0.0759003 0)
(3 2.81294e-16 0)
(3 -7.66823e-18 0)
(3 -6.08954e-16 0)
(3 -8.50325e-16 0)
(3 -4.40366e-16 0)
(3 1.38518e-16 0)
(3 9.36647e-16 0)
(3 1.02774e-15 0)
(3 7.91752e-16 0)
(3 8.73232e-16 0)
(3 1.02455e-15 0)
(3 1.33954e-15 0)
(3 1.69876e-15 0)
(3 1.94348e-15 0)
(3 1.85498e-15 0)
(3 2.44335e-15 0)
(3 2.85038e-15 0)
(3 3.22707e-15 0)
(3 1.97781e-15 0)
(3 7.75693e-16 0)
(3 2.58326e-16 0)
(3 5.43631e-16 0)
(3 6.3863e-16 0)
(3 1.19678e-17 0)
(3 -9.97716e-17 0)
(3 4.19832e-16 0)
(3 1.25689e-15 0)
(3 2.09831e-15 0)
(3 2.5635e-15 0)
(3 2.31005e-15 0)
(3 1.59236e-15 0)
(3 1.34805e-15 0)
(3 1.39759e-15 0)
(3 9.99712e-16 0)
(3 7.08732e-16 0)
(3 5.54571e-16 0)
(3 1.52427e-15 0)
(3 2.68217e-15 0)
(3 3.05215e-15 0)
(3 3.62382e-15 0)
(3 3.25045e-15 0)
(3 2.59459e-15 0)
(3 2.63741e-15 0)
(3 2.74628e-15 0)
(3 2.14831e-15 0)
(3 1.87682e-15 0)
(3 1.59197e-15 0)
(3 1.7399e-15 0)
(2.9076 0.0253268 0)
(1.02003 0.0736413 0)
(0.763125 0.0646501 0)
(0.745898 0.0600255 0)
(0.729772 0.0620075 0)
(0.714281 0.0635955 0)
(0.699138 0.064459 0)
(0.684159 0.0644914 0)
(0.669099 0.0646535 0)
(0.65377 0.0653911 0)
(0.638216 0.0662343 0)
(0.622776 0.0676882 0)
(0.607561 0.0692998 0)
(0.592562 0.0691037 0)
(0.577803 0.0677192 0)
(0.562817 0.0682538 0)
(0.54742 0.0709577 0)
(0.531187 0.0730754 0)
(0.514584 0.0733039 0)
(0.498062 0.0729254 0)
(0.481746 0.0733457 0)
(0.465653 0.0746194 0)
(0.449717 0.0758914 0)
(0.433921 0.0766968 0)
(0.418145 0.0773201 0)
(0.402121 0.0780878 0)
(0.385607 0.0790654 0)
(0.368552 0.0801356 0)
(0.351115 0.0810781 0)
(0.333571 0.0818819 0)
(0.316119 0.0827325 0)
(0.298806 0.0836199 0)
(0.281589 0.0844023 0)
(0.264408 0.0850888 0)
(0.247215 0.0857504 0)
(0.229988 0.0864139 0)
(0.21273 0.0871451 0)
(0.195435 0.0880365 0)
(0.178083 0.0891615 0)
(0.16064 0.0905644 0)
(0.143079 0.0922989 0)
(0.125361 0.0943609 0)
(0.107433 0.0967379 0)
(0.0891808 0.0993431 0)
(0.0704567 0.10216 0)
(0.0510965 0.10501 0)
(0.0310145 0.106521 0)
(0.0105697 0.108271 0)
(3 1.04353e-16 0)
(3 1.5235e-16 0)
(3 -1.22858e-16 0)
(3 -5.89569e-16 0)
(3 -7.13448e-17 0)
(3 1.468e-15 0)
(3 1.70527e-15 0)
(3 2.33213e-15 0)
(3 2.53323e-15 0)
(3 2.74185e-15 0)
(3 2.30102e-15 0)
(3 1.9705e-15 0)
(3 1.09002e-15 0)
(3 -3.12724e-16 0)
(3 -3.27513e-16 0)
(3 4.61894e-16 0)
(3 1.44802e-15 0)
(3 1.78737e-15 0)
(3 2.10727e-15 0)
(3 1.56795e-15 0)
(3 1.32066e-15 0)
(3 1.19245e-15 0)
(3 8.34997e-16 0)
(3 4.61588e-16 0)
(3 -9.59184e-18 0)
(3 -1.68882e-16 0)
(3 -2.51814e-16 0)
(3 2.24344e-17 0)
(3 4.26528e-16 0)
(3 4.16251e-16 0)
(3 7.6013e-16 0)
(3 2.94964e-16 0)
(3 5.90759e-17 0)
(3 1.36566e-16 0)
(3 -1.27629e-16 0)
(3 6.68054e-16 0)
(3 1.59158e-15 0)
(3 1.47943e-15 0)
(3 1.51183e-15 0)
(3 1.78667e-15 0)
(3 1.99962e-15 0)
(3 2.63494e-15 0)
(3 2.57455e-15 0)
(3 2.43115e-15 0)
(3 2.79177e-15 0)
(3 2.43477e-15 0)
(3 1.27161e-15 0)
(3 9.0648e-16 0)
(2.95539 0.0183669 0)
(1.04927 0.0991212 0)
(0.765451 0.085505 0)
(0.748942 0.0787967 0)
(0.733926 0.0809922 0)
(0.719061 0.0826828 0)
(0.704455 0.0840482 0)
(0.689669 0.0848134 0)
(0.674506 0.0857513 0)
(0.658866 0.0869667 0)
(0.642971 0.0877673 0)
(0.627402 0.0889726 0)
(0.612386 0.0905949 0)
(0.597706 0.0906614 0)
(0.583141 0.0896271 0)
(0.568251 0.0906794 0)
(0.553032 0.09407 0)
(0.536963 0.0965847 0)
(0.520502 0.0967524 0)
(0.504056 0.0963387 0)
(0.487756 0.0971047 0)
(0.47167 0.0990411 0)
(0.455686 0.100923 0)
(0.439805 0.102082 0)
(0.423947 0.102984 0)
(0.407836 0.104127 0)
(0.3912 0.10555 0)
(0.373965 0.107061 0)
(0.35627 0.108383 0)
(0.338361 0.109485 0)
(0.320423 0.110604 0)
(0.302487 0.111755 0)
(0.284501 0.112768 0)
(0.266431 0.11364 0)
(0.248285 0.114446 0)
(0.230109 0.115203 0)
(0.211966 0.115973 0)
(0.193894 0.116855 0)
(0.17589 0.117941 0)
(0.157932 0.119299 0)
(0.140007 0.121043 0)
(0.122101 0.123235 0)
(0.10419 0.12593 0)
(0.0861794 0.129103 0)
(0.0679138 0.132733 0)
(0.0492271 0.136611 0)
(0.029841 0.138873 0)
(0.0102243 0.141517 0)
(3 8.13264e-17 0)
(3 4.96269e-16 0)
(3 1.26425e-15 0)
(3 1.75693e-15 0)
(3 1.98211e-15 0)
(3 1.69016e-15 0)
(3 1.71005e-15 0)
(3 2.18516e-15 0)
(3 3.14852e-15 0)
(3 3.06648e-15 0)
(3 2.33295e-15 0)
(3 1.45332e-15 0)
(3 9.26005e-16 0)
(3 7.58018e-16 0)
(3 3.29325e-16 0)
(3 -3.41843e-16 0)
(3 -7.12869e-16 0)
(3 -6.23828e-16 0)
(3 7.55695e-17 0)
(3 4.76609e-16 0)
(3 6.25138e-16 0)
(3 3.47711e-16 0)
(3 6.90724e-16 0)
(3 7.81769e-16 0)
(3 -1.5769e-16 0)
(3 -5.58963e-16 0)
(3 -1.32362e-15 0)
(3 -1.1528e-15 0)
(3 -1.30076e-15 0)
(3 -1.25746e-15 0)
(3 -1.28897e-15 0)
(3 -1.75398e-15 0)
(3 -2.07631e-15 0)
(3 -1.57281e-15 0)
(3 -9.20537e-16 0)
(3 4.53384e-17 0)
(3 4.50489e-16 0)
(3 8.78121e-16 0)
(3 4.74627e-16 0)
(3 9.34491e-16 0)
(3 2.1598e-15 0)
(3 2.29277e-15 0)
(3 2.60436e-15 0)
(3 2.42709e-15 0)
(3 2.07287e-15 0)
(3 6.61838e-16 0)
(3 5.26529e-16 0)
(3 5.65309e-16 0)
(3.00049 0.00260112 0)
(1.12226 0.115754 0)
(0.774912 0.101081 0)
(0.755899 0.0973805 0)
(0.741574 0.0997063 0)
(0.727242 0.101527 0)
(0.713399 0.103581 0)
(0.699206 0.105425 0)
(0.684371 0.107454 0)
(0.668731 0.109458 0)
(0.652645 0.110187 0)
(0.636936 0.11059 0)
(0.622053 0.111594 0)
(0.607759 0.111691 0)
(0.593545 0.111147 0)
(0.578974 0.112871 0)
(0.564102 0.11698 0)
(0.548286 0.119966 0)
(0.532005 0.120126 0)
(0.515707 0.119649 0)
(0.499554 0.120729 0)
(0.48368 0.123392 0)
(0.467872 0.126034 0)
(0.452094 0.127646 0)
(0.43633 0.128868 0)
(0.420313 0.130452 0)
(0.403746 0.132425 0)
(0.386528 0.134513 0)
(0.368769 0.136383 0)
(0.350685 0.137974 0)
(0.332441 0.139556 0)
(0.314052 0.141185 0)
(0.295454 0.142678 0)
(0.276619 0.144006 0)
(0.25759 0.14524 0)
(0.238454 0.146368 0)
(0.219308 0.147419 0)
(0.20021 0.148474 0)
(0.181166 0.149612 0)
(0.162164 0.150906 0)
(0.143214 0.152518 0)
(0.124343 0.154583 0)
(0.10558 0.157237 0)
(0.0868959 0.160586 0)
(0.0681678 0.164638 0)
(0.0492913 0.169297 0)
(0.0297844 0.172203 0)
(0.0102514 0.175693 0)
(3 1.06176e-16 0)
(3 2.54263e-16 0)
(3 5.35865e-16 0)
(3 1.13765e-15 0)
(3 9.54133e-16 0)
(3 5.95475e-16 0)
(3 4.70723e-16 0)
(3 5.67192e-16 0)
(3 8.48697e-16 0)
(3 5.34188e-16 0)
(3 6.42261e-16 0)
(3 5.48526e-16 0)
(3 3.03374e-16 0)
(3 2.87083e-17 0)
(3 -6.47634e-16 0)
(3 -1.17875e-15 0)
(3 -1.19355e-15 0)
(3 -8.35679e-16 0)
(3 -8.36601e-16 0)
(3 -9.79554e-16 0)
(3 -1.14614e-15 0)
(3 -1.51446e-16 0)
(3 6.29671e-16 0)
(3 2.96973e-16 0)
(3 2.77807e-16 0)
(3 -1.07291e-16 0)
(3 -7.45427e-16 0)
(3 -1.27321e-15 0)
(3 -2.0748e-15 0)
(3 -3.16904e-15 0)
(3 -3.72606e-15 0)
(3 -3.89967e-15 0)
(3 -3.8334e-15 0)
(3 -3.18149e-15 0)
(3 -1.82989e-15 0)
(3 -7.03108e-16 0)
(3 -5.46324e-16 0)
(3 1.41162e-16 0)
(3 3.34379e-16 0)
(3 4.54834e-16 0)
(3 6.96358e-16 0)
(3 8.16043e-17 0)
(3 -1.90577e-16 0)
(3 -4.52916e-16 0)
(3 -8.34668e-16 0)
(3 -4.71765e-16 0)
(3 1.12465e-15 0)
(3 1.82409e-15 0)
(3.00002 6.55785e-06 0)
(1.24376 0.139345 0)
(0.777314 0.123856 0)
(0.751392 0.119919 0)
(0.736614 0.12056 0)
(0.722039 0.121749 0)
(0.708321 0.124401 0)
(0.694389 0.127748 0)
(0.679906 0.131538 0)
(0.664606 0.134728 0)
(0.648835 0.135477 0)
(0.633462 0.134757 0)
(0.61894 0.134592 0)
(0.605144 0.13444 0)
(0.591377 0.134473 0)
(0.57728 0.137115 0)
(0.562953 0.142163 0)
(0.547586 0.145804 0)
(0.531672 0.146082 0)
(0.515721 0.14553 0)
(0.499931 0.146853 0)
(0.484572 0.150249 0)
(0.469333 0.153787 0)
(0.454057 0.155984 0)
(0.438784 0.157578 0)
(0.423277 0.159633 0)
(0.407233 0.162201 0)
(0.390516 0.16492 0)
(0.373202 0.167417 0)
(0.355469 0.169581 0)
(0.33747 0.171685 0)
(0.319221 0.173832 0)
(0.300648 0.175835 0)
(0.281727 0.17764 0)
(0.262514 0.179311 0)
(0.243111 0.180818 0)
(0.223626 0.182161 0)
(0.204125 0.183396 0)
(0.184622 0.184587 0)
(0.165111 0.185788 0)
(0.145616 0.187186 0)
(0.126181 0.188986 0)
(0.106861 0.191379 0)
(0.0876801 0.194652 0)
(0.0685451 0.198824 0)
(0.0494795 0.204077 0)
(0.0298102 0.207529 0)
(0.0103122 0.211799 0)
(3 -1.94974e-16 0)
(3 -3.53523e-16 0)
(3 -8.31465e-16 0)
(3 -7.94499e-16 0)
(3 -4.39832e-16 0)
(3 -5.29376e-16 0)
(3 -9.96764e-16 0)
(3 -1.51592e-15 0)
(3 -1.68586e-15 0)
(3 -1.69188e-15 0)
(3 -1.25536e-15 0)
(3 -6.95535e-16 0)
(3 -6.45977e-16 0)
(3 -6.29697e-16 0)
(3 -7.65727e-16 0)
(3 -2.9287e-16 0)
(3 2.25475e-16 0)
(3 -2.07666e-17 0)
(3 -1.42485e-16 0)
(3 -2.57089e-16 0)
(3 -5.36947e-16 0)
(3 -9.8599e-16 0)
(3 -8.043e-16 0)
(3 -5.8513e-16 0)
(3 -1.23795e-15 0)
(3 -1.48707e-15 0)
(3 -1.49347e-15 0)
(3 -1.3342e-15 0)
(3 -1.213e-15 0)
(3 -1.37847e-15 0)
(3 -1.46305e-15 0)
(3 -1.64895e-15 0)
(3 -2.32333e-15 0)
(3 -2.44241e-15 0)
(3 -2.72035e-15 0)
(3 -3.25495e-15 0)
(3 -3.48998e-15 0)
(3 -2.55875e-15 0)
(3 -1.05275e-15 0)
(3 -1.13949e-15 0)
(3 -1.28808e-15 0)
(3 -1.21326e-15 0)
(3 -8.82516e-16 0)
(3 -1.0943e-15 0)
(3 -2.62812e-16 0)
(3 5.4671e-16 0)
(3 8.63353e-16 0)
(3 1.71626e-15 0)
(3 1.38853e-08 0)
(1.44848 0.167877 0)
(0.793412 0.150372 0)
(0.754468 0.14684 0)
(0.73784 0.143663 0)
(0.721905 0.143359 0)
(0.707525 0.14595 0)
(0.693478 0.150378 0)
(0.679248 0.155664 0)
(0.664312 0.159862 0)
(0.648851 0.160709 0)
(0.63372 0.15892 0)
(0.619265 0.157283 0)
(0.60558 0.156526 0)
(0.592028 0.157012 0)
(0.578361 0.160556 0)
(0.564696 0.166568 0)
(0.549995 0.170979 0)
(0.534702 0.171457 0)
(0.519411 0.170666 0)
(0.504302 0.171943 0)
(0.489794 0.175854 0)
(0.475476 0.180316 0)
(0.460952 0.183252 0)
(0.446331 0.185266 0)
(0.431465 0.187797 0)
(0.416056 0.191013 0)
(0.39992 0.194481 0)
(0.383091 0.1978 0)
(0.365707 0.200808 0)
(0.347912 0.203742 0)
(0.329738 0.206742 0)
(0.311113 0.209625 0)
(0.292008 0.212293 0)
(0.272477 0.214785 0)
(0.252619 0.217051 0)
(0.232545 0.21905 0)
(0.212338 0.220801 0)
(0.192038 0.222342 0)
(0.171664 0.223695 0)
(0.151262 0.225036 0)
(0.13089 0.226635 0)
(0.110621 0.228693 0)
(0.0905245 0.231734 0)
(0.0705211 0.23572 0)
(0.0507998 0.241342 0)
(0.0305212 0.245195 0)
(0.0105834 0.250124 0)
(3 -4.28142e-17 0)
(3 -7.22819e-17 0)
(3 -2.1079e-16 0)
(3 -4.23128e-16 0)
(3 -4.9914e-16 0)
(3 -6.18974e-16 0)
(3 -9.11294e-16 0)
(3 -1.26352e-15 0)
(3 -1.37369e-15 0)
(3 -9.21035e-16 0)
(3 -9.22994e-16 0)
(3 -4.34327e-16 0)
(3 -1.02354e-16 0)
(3 3.04493e-16 0)
(3 9.8605e-16 0)
(3 1.05734e-15 0)
(3 7.33789e-16 0)
(3 7.5009e-18 0)
(3 -6.46361e-16 0)
(3 -7.26501e-16 0)
(3 -9.88877e-16 0)
(3 -1.29898e-15 0)
(3 -1.95024e-15 0)
(3 -2.15709e-15 0)
(3 -2.88469e-15 0)
(3 -2.878e-15 0)
(3 -2.37395e-15 0)
(3 -1.69601e-15 0)
(3 -7.39364e-16 0)
(3 -4.07598e-16 0)
(3 -4.87823e-16 0)
(3 -2.88266e-16 0)
(3 -4.01229e-16 0)
(3 -8.50719e-16 0)
(3 -1.13201e-15 0)
(3 -2.03327e-15 0)
(3 -2.31389e-15 0)
(3 -2.02439e-15 0)
(3 -1.92625e-15 0)
(3 -1.54027e-15 0)
(3 -1.24312e-15 0)
(3 -1.47865e-15 0)
(3 -1.1798e-15 0)
(3 -2.74879e-16 0)
(3 5.50422e-16 0)
(3 8.79236e-16 0)
(3 8.10711e-16 0)
(3 1.21377e-15 0)
(3 2.68412e-11 0)
(1.76059 0.188131 0)
(0.82429 0.177712 0)
(0.76113 0.178747 0)
(0.743534 0.169741 0)
(0.7256 0.16695 0)
(0.71007 0.168721 0)
(0.695499 0.173704 0)
(0.68134 0.18037 0)
(0.666608 0.185829 0)
(0.651163 0.187319 0)
(0.635809 0.185134 0)
(0.620851 0.18219 0)
(0.606491 0.180404 0)
(0.592399 0.180805 0)
(0.578502 0.184842 0)
(0.564977 0.191618 0)
(0.550562 0.1968 0)
(0.535501 0.197653 0)
(0.520468 0.196575 0)
(0.505614 0.197496 0)
(0.49157 0.201704 0)
(0.47799 0.207196 0)
(0.464114 0.211192 0)
(0.450084 0.213785 0)
(0.43593 0.216831 0)
(0.421389 0.220769 0)
(0.406191 0.22511 0)
(0.39029 0.229407 0)
(0.373754 0.233458 0)
(0.356693 0.237436 0)
(0.339145 0.241504 0)
(0.321039 0.245498 0)
(0.302324 0.24927 0)
(0.283034 0.252822 0)
(0.263235 0.256085 0)
(0.243019 0.258984 0)
(0.222469 0.261504 0)
(0.201642 0.263658 0)
(0.180574 0.265431 0)
(0.159328 0.26695 0)
(0.137978 0.268529 0)
(0.116609 0.270303 0)
(0.0953484 0.273072 0)
(0.0741208 0.276611 0)
(0.0533131 0.282371 0)
(0.0319828 0.286472 0)
(0.0110947 0.291925 0)
(3 -2.9817e-17 0)
(3 -3.27637e-16 0)
(3 -4.82919e-16 0)
(3 -5.07729e-16 0)
(3 -1.18888e-15 0)
(3 -9.09774e-16 0)
(3 -5.23339e-17 0)
(3 2.9167e-16 0)
(3 -1.6207e-16 0)
(3 -3.15641e-16 0)
(3 -2.18918e-16 0)
(3 -5.84447e-17 0)
(3 2.41417e-16 0)
(3 4.3179e-16 0)
(3 1.74561e-16 0)
(3 -2.93109e-16 0)
(3 -1.00346e-16 0)
(3 3.27931e-16 0)
(3 1.46627e-16 0)
(3 -5.67765e-16 0)
(3 -1.22699e-15 0)
(3 -1.27631e-15 0)
(3 -1.32063e-15 0)
(3 -7.96388e-16 0)
(3 -3.51395e-16 0)
(3 3.50368e-17 0)
(3 1.2824e-16 0)
(3 1.18838e-16 0)
(3 -3.25952e-16 0)
(3 -4.4874e-16 0)
(3 3.75764e-16 0)
(3 6.98059e-16 0)
(3 1.27142e-15 0)
(3 1.48238e-15 0)
(3 1.79473e-15 0)
(3 2.42437e-16 0)
(3 -7.61145e-16 0)
(3 -1.86509e-15 0)
(3 -2.5193e-15 0)
(3 -2.00789e-15 0)
(3 -1.24296e-15 0)
(3 -1.08734e-15 0)
(3 -6.66042e-16 0)
(3 7.3102e-16 0)
(3 1.24699e-15 0)
(3 1.70385e-15 0)
(3 2.16344e-15 0)
(3 1.60816e-15 0)
(3 5.1412e-14 0)
(2.18165 0.193426 0)
(0.86583 0.21556 0)
(0.760569 0.213042 0)
(0.746183 0.20121 0)
(0.728606 0.195613 0)
(0.713105 0.19549 0)
(0.698753 0.199903 0)
(0.685408 0.206962 0)
(0.671822 0.213457 0)
(0.657224 0.216089 0)
(0.642195 0.214427 0)
(0.62712 0.210886 0)
(0.612223 0.208018 0)
(0.597489 0.207734 0)
(0.583133 0.211584 0)
(0.569502 0.218658 0)
(0.555154 0.224546 0)
(0.539927 0.226051 0)
(0.524567 0.224788 0)
(0.509273 0.224864 0)
(0.49483 0.228657 0)
(0.481281 0.234748 0)
(0.467488 0.239757 0)
(0.453455 0.242797 0)
(0.43944 0.246025 0)
(0.425314 0.250432 0)
(0.410754 0.255556 0)
(0.395617 0.260851 0)
(0.379913 0.266059 0)
(0.363706 0.271266 0)
(0.34703 0.276632 0)
(0.329793 0.282024 0)
(0.311879 0.287257 0)
(0.293241 0.29229 0)
(0.273871 0.297034 0)
(0.253812 0.301377 0)
(0.233143 0.305243 0)
(0.211954 0.30859 0)
(0.190315 0.311333 0)
(0.16831 0.313501 0)
(0.146027 0.315435 0)
(0.123537 0.317139 0)
(0.101021 0.319717 0)
(0.0784219 0.322614 0)
(0.056319 0.328241 0)
(0.0337475 0.33237 0)
(0.0116789 0.338213 0)
(3 4.47174e-17 0)
(3 8.63667e-17 0)
(3 1.79404e-17 0)
(3 -6.53886e-17 0)
(3 3.40666e-17 0)
(3 -5.35671e-17 0)
(3 -3.20897e-16 0)
(3 -4.17611e-16 0)
(3 -5.45246e-16 0)
(3 -8.46208e-16 0)
(3 -8.00615e-16 0)
(3 -7.64684e-16 0)
(3 -6.03611e-16 0)
(3 -6.11851e-16 0)
(3 -9.92353e-16 0)
(3 -1.38874e-15 0)
(3 -1.43979e-15 0)
(3 -6.08402e-16 0)
(3 5.42746e-16 0)
(3 3.95313e-16 0)
(3 1.29705e-16 0)
(3 7.11095e-16 0)
(3 1.27131e-15 0)
(3 1.16628e-15 0)
(3 8.16658e-16 0)
(3 6.97429e-16 0)
(3 8.47013e-16 0)
(3 6.59826e-16 0)
(3 6.76487e-16 0)
(3 5.8293e-16 0)
(3 8.62749e-16 0)
(3 1.10694e-15 0)
(3 1.02682e-15 0)
(3 7.47918e-16 0)
(3 -4.25978e-16 0)
(3 -1.4431e-15 0)
(3 -1.16115e-15 0)
(3 -1.08819e-15 0)
(3 -5.37748e-16 0)
(3 1.72878e-16 0)
(3 2.06123e-16 0)
(3 3.58176e-16 0)
(3 3.7886e-16 0)
(3 6.9484e-16 0)
(3 6.02945e-16 0)
(3 1.01812e-15 0)
(3 1.48759e-15 0)
(3 1.34354e-15 0)
(3 5.31279e-16 0)
(2.70597 0.168455 0)
(0.970788 0.260216 0)
(0.78545 0.238989 0)
(0.777567 0.225403 0)
(0.757885 0.220972 0)
(0.740686 0.218993 0)
(0.723792 0.222414 0)
(0.708494 0.22956 0)
(0.694013 0.237444 0)
(0.67909 0.242452 0)
(0.663702 0.242929 0)
(0.648238 0.240312 0)
(0.632693 0.237241 0)
(0.617032 0.236331 0)
(0.601672 0.239704 0)
(0.58731 0.24692 0)
(0.572667 0.253924 0)
(0.556933 0.257 0)
(0.540715 0.25646 0)
(0.524356 0.255849 0)
(0.508601 0.258778 0)
(0.494125 0.265052 0)
(0.47969 0.271136 0)
(0.464798 0.274814 0)
(0.449874 0.278026 0)
(0.435036 0.282536 0)
(0.420043 0.288128 0)
(0.404655 0.29414 0)
(0.388848 0.300242 0)
(0.372687 0.306466 0)
(0.356243 0.312974 0)
(0.339456 0.3197 0)
(0.322173 0.326443 0)
(0.304269 0.333112 0)
(0.285646 0.339585 0)
(0.266265 0.3457 0)
(0.246132 0.351308 0)
(0.225269 0.356311 0)
(0.203664 0.360581 0)
(0.181307 0.364057 0)
(0.158239 0.367092 0)
(0.134483 0.369461 0)
(0.110311 0.372482 0)
(0.0857229 0.375077 0)
(0.0614992 0.38058 0)
(0.0368205 0.384593 0)
(0.0127174 0.390805 0)
(3 -1.98266e-17 0)
(3 1.23295e-16 0)
(3 2.6765e-16 0)
(3 2.57726e-16 0)
(3 2.51193e-16 0)
(3 1.51108e-16 0)
(3 -4.7109e-16 0)
(3 -1.24189e-15 0)
(3 -4.93008e-16 0)
(3 2.75463e-16 0)
(3 4.10538e-16 0)
(3 -5.09248e-16 0)
(3 -1.05742e-15 0)
(3 -1.56458e-15 0)
(3 -1.68194e-15 0)
(3 -1.81587e-15 0)
(3 -2.01458e-15 0)
(3 -1.5728e-15 0)
(3 -7.98702e-16 0)
(3 8.25782e-17 0)
(3 7.39996e-16 0)
(3 1.31109e-15 0)
(3 1.437e-15 0)
(3 1.2028e-15 0)
(3 1.06853e-15 0)
(3 8.66737e-16 0)
(3 3.51145e-16 0)
(3 -2.48371e-16 0)
(3 -2.81317e-16 0)
(3 3.66949e-17 0)
(3 6.17019e-16 0)
(3 5.52999e-16 0)
(3 4.30814e-16 0)
(3 -4.35731e-16 0)
(3 -7.47809e-16 0)
(3 -4.5056e-16 0)
(3 -8.55331e-17 0)
(3 7.18356e-16 0)
(3 1.19541e-15 0)
(3 1.39916e-15 0)
(3 1.47578e-15 0)
(3 1.50645e-15 0)
(3 6.62966e-16 0)
(3 3.35142e-16 0)
(3 -7.81776e-16 0)
(3 -8.92693e-16 0)
(3 -1.10459e-15 0)
(3 -4.35755e-16 0)
(3 -2.1977e-16 0)
(3.01935 0.00919285 0)
(1.16393 0.281607 0)
(0.81081 0.236008 0)
(0.798313 0.249025 0)
(0.781756 0.251903 0)
(0.765299 0.251576 0)
(0.748477 0.253298 0)
(0.732632 0.258077 0)
(0.718138 0.264382 0)
(0.704175 0.26924 0)
(0.690036 0.270697 0)
(0.675597 0.269282 0)
(0.660663 0.266865 0)
(0.645164 0.265655 0)
(0.629535 0.26809 0)
(0.614825 0.274648 0)
(0.600461 0.282318 0)
(0.585121 0.287365 0)
(0.568804 0.288714 0)
(0.552009 0.288135 0)
(0.535293 0.289835 0)
(0.519751 0.295654 0)
(0.504721 0.302888 0)
(0.488989 0.30807 0)
(0.472913 0.311765 0)
(0.456905 0.316438 0)
(0.440921 0.322513 0)
(0.42467 0.329283 0)
(0.408059 0.336263 0)
(0.39117 0.343422 0)
(0.374124 0.350949 0)
(0.356926 0.358891 0)
(0.339399 0.367099 0)
(0.321338 0.375489 0)
(0.302541 0.383961 0)
(0.28286 0.392361 0)
(0.262218 0.400483 0)
(0.240605 0.408137 0)
(0.218011 0.415078 0)
(0.194449 0.421007 0)
(0.170061 0.426151 0)
(0.144876 0.43003 0)
(0.119096 0.434078 0)
(0.0927289 0.436715 0)
(0.0663836 0.441984 0)
(0.0396248 0.445529 0)
(0.0135243 0.451784 0)
(3 -5.35255e-17 0)
(3 2.13678e-17 0)
(3 1.63733e-16 0)
(3 2.68612e-16 0)
(3 3.9032e-16 0)
(3 6.72917e-16 0)
(3 8.639e-16 0)
(3 7.67088e-16 0)
(3 6.48914e-16 0)
(3 8.51838e-16 0)
(3 9.66146e-16 0)
(3 5.64415e-16 0)
(3 -6.37607e-17 0)
(3 -7.63559e-16 0)
(3 -7.12825e-16 0)
(3 -5.9369e-16 0)
(3 -3.61667e-16 0)
(3 -3.02e-16 0)
(3 -2.52744e-16 0)
(3 3.89471e-16 0)
(3 9.67587e-16 0)
(3 7.0619e-16 0)
(3 3.61904e-16 0)
(3 3.58024e-16 0)
(3 4.77203e-16 0)
(3 4.89106e-16 0)
(3 2.94355e-16 0)
(3 -4.94931e-16 0)
(3 -6.67687e-16 0)
(3 -6.42007e-17 0)
(3 3.22119e-16 0)
(3 1.31679e-16 0)
(3 -4.78817e-17 0)
(3 -7.77748e-17 0)
(3 -2.29764e-16 0)
(3 4.76924e-16 0)
(3 4.77782e-16 0)
(3 6.97904e-16 0)
(3 1.11481e-15 0)
(3 1.13401e-15 0)
(3 9.22586e-16 0)
(3 7.51477e-16 0)
(3 5.2751e-17 0)
(3 -5.15993e-16 0)
(3 -1.02093e-15 0)
(3 -1.20799e-15 0)
(3 -9.99469e-16 0)
(3 -2.74504e-16 0)
(3 1.41313e-16 0)
(3.00026 9.84873e-06 0)
(1.58804 0.311526 0)
(0.82595 0.276167 0)
(0.781943 0.281126 0)
(0.767657 0.285269 0)
(0.753511 0.284931 0)
(0.73985 0.286303 0)
(0.726554 0.289427 0)
(0.714106 0.293929 0)
(0.702295 0.298375 0)
(0.690384 0.301102 0)
(0.677981 0.301779 0)
(0.664806 0.301433 0)
(0.650721 0.301416 0)
(0.636081 0.303622 0)
(0.621918 0.309224 0)
(0.608615 0.316878 0)
(0.595108 0.323551 0)
(0.580666 0.327108 0)
(0.565505 0.32763 0)
(0.549967 0.328467 0)
(0.53503 0.333091 0)
(0.521088 0.340638 0)
(0.50653 0.347355 0)
(0.491117 0.351841 0)
(0.47545 0.35646 0)
(0.459783 0.362574 0)
(0.443899 0.369745 0)
(0.42758 0.377316 0)
(0.410869 0.38515 0)
(0.39393 0.393441 0)
(0.376885 0.402369 0)
(0.359637 0.411873 0)
(0.341979 0.421861 0)
(0.323703 0.432303 0)
(0.30462 0.443022 0)
(0.284622 0.453747 0)
(0.26366 0.464159 0)
(0.241669 0.473889 0)
(0.218457 0.482389 0)
(0.194027 0.490003 0)
(0.167933 0.496259 0)
(0.140316 0.503101 0)
(0.110438 0.50861 0)
(0.0793111 0.515607 0)
(0.0471497 0.519628 0)
(0.015805 0.52568 0)
(3 -4.00817e-20 0)
(3 1.90558e-16 0)
(3 3.07629e-16 0)
(3 6.18306e-16 0)
(3 1.02241e-15 0)
(3 8.90329e-16 0)
(3 8.84277e-16 0)
(3 9.75594e-16 0)
(3 8.84453e-16 0)
(3 6.57559e-16 0)
(3 5.327e-16 0)
(3 6.86631e-16 0)
(3 7.05716e-16 0)
(3 3.89488e-16 0)
(3 7.29198e-16 0)
(3 1.63894e-15 0)
(3 1.74118e-15 0)
(3 1.74734e-15 0)
(3 1.44033e-15 0)
(3 1.1035e-15 0)
(3 -4.08453e-16 0)
(3 -8.53592e-16 0)
(3 -1.88574e-15 0)
(3 -2.08684e-15 0)
(3 -1.68402e-15 0)
(3 -1.12585e-15 0)
(3 -4.37648e-16 0)
(3 1.07108e-16 0)
(3 4.31578e-16 0)
(3 5.39224e-16 0)
(3 3.75708e-16 0)
(3 4.71938e-16 0)
(3 4.44611e-16 0)
(3 4.95075e-16 0)
(3 6.58588e-16 0)
(3 8.04379e-16 0)
(3 8.59819e-16 0)
(3 7.06128e-16 0)
(3 3.14488e-16 0)
(3 2.34215e-16 0)
(3 -4.35891e-16 0)
(3 -1.11867e-15 0)
(3 -1.07324e-15 0)
(3 -6.88349e-16 0)
(3 -3.3916e-16 0)
(3 4.44135e-16 0)
(3 1.04176e-15 0)
(3 1.51961e-15 0)
(3 1.18775e-15 0)
(3 1.7362e-08 0)
(2.42303 0.273131 0)
(0.926238 0.334639 0)
(0.793527 0.317986 0)
(0.782067 0.312722 0)
(0.766921 0.314474 0)
(0.753877 0.316007 0)
(0.740839 0.318236 0)
(0.72816 0.321276 0)
(0.716119 0.324943 0)
(0.704462 0.328349 0)
(0.692663 0.330829 0)
(0.68031 0.332637 0)
(0.667101 0.33424 0)
(0.653134 0.336557 0)
(0.63917 0.341004 0)
(0.626049 0.347662 0)
(0.6136 0.354887 0)
(0.600787 0.360528 0)
(0.587073 0.363252 0)
(0.572655 0.364436 0)
(0.558152 0.368133 0)
(0.544671 0.37565 0)
(0.53126 0.384265 0)
(0.516719 0.390911 0)
(0.501502 0.396464 0)
(0.486167 0.403064 0)
(0.470764 0.411006 0)
(0.45498 0.419618 0)
(0.438712 0.42858 0)
(0.422065 0.438001 0)
(0.40521 0.448158 0)
(0.388224 0.459215 0)
(0.370787 0.471009 0)
(0.35286 0.483618 0)
(0.333972 0.496941 0)
(0.313888 0.510826 0)
(0.292336 0.524999 0)
(0.269182 0.539272 0)
(0.243949 0.552984 0)
(0.216701 0.566421 0)
(0.187112 0.578832 0)
(0.15607 0.591543 0)
(0.123632 0.602766 0)
(0.0901427 0.612602 0)
(0.055077 0.618269 0)
(0.017492 0.622357 0)
(3 1.37168e-16 0)
(3 9.12564e-17 0)
(3 2.00162e-16 0)
(3 2.77965e-16 0)
(3 2.69605e-16 0)
(3 -4.00009e-17 0)
(3 -2.98663e-16 0)
(3 -3.14625e-16 0)
(3 -4.30092e-17 0)
(3 8.00287e-17 0)
(3 -9.70048e-17 0)
(3 2.48793e-16 0)
(3 5.36146e-16 0)
(3 7.86194e-16 0)
(3 8.4836e-16 0)
(3 8.0444e-16 0)
(3 1.08439e-15 0)
(3 1.16884e-15 0)
(3 4.71426e-16 0)
(3 -2.23379e-16 0)
(3 -8.52747e-16 0)
(3 -1.18127e-15 0)
(3 -1.63817e-15 0)
(3 -1.24379e-15 0)
(3 -3.55876e-16 0)
(3 -1.84204e-16 0)
(3 1.42311e-17 0)
(3 6.40773e-16 0)
(3 8.29346e-16 0)
(3 1.12838e-15 0)
(3 1.23668e-15 0)
(3 1.11276e-15 0)
(3 1.24533e-15 0)
(3 2.12541e-15 0)
(3 2.28098e-15 0)
(3 1.79768e-15 0)
(3 1.81518e-15 0)
(3 1.96632e-15 0)
(3 1.07836e-15 0)
(3 -6.51508e-16 0)
(3 -1.08771e-15 0)
(3 -5.98778e-16 0)
(3 -3.04229e-16 0)
(3 3.81799e-16 0)
(3 5.11473e-16 0)
(3 4.30268e-16 0)
(3 6.74703e-16 0)
(3 7.98455e-17 0)
(3 1.01959e-16 0)
(3 -5.5898e-09 0)
(3.02789 0.0158146 0)
(1.2682 0.378971 0)
(0.839543 0.324551 0)
(0.819314 0.336255 0)
(0.806085 0.337323 0)
(0.79168 0.339947 0)
(0.777143 0.343206 0)
(0.762588 0.346112 0)
(0.748704 0.349169 0)
(0.735708 0.352715 0)
(0.723202 0.356576 0)
(0.710597 0.360697 0)
(0.697344 0.364782 0)
(0.683269 0.368416 0)
(0.668887 0.37232 0)
(0.655051 0.377611 0)
(0.642232 0.384338 0)
(0.62998 0.391418 0)
(0.617159 0.397085 0)
(0.603401 0.400347 0)
(0.589211 0.403798 0)
(0.575687 0.41065 0)
(0.563031 0.42027 0)
(0.549666 0.429509 0)
(0.535233 0.437002 0)
(0.520409 0.444477 0)
(0.505663 0.453268 0)
(0.49078 0.463119 0)
(0.475506 0.47357 0)
(0.459646 0.48454 0)
(0.443522 0.496272 0)
(0.427282 0.50921 0)
(0.41066 0.523249 0)
(0.393608 0.538552 0)
(0.375689 0.555121 0)
(0.356721 0.573031 0)
(0.33639 0.592108 0)
(0.314676 0.612285 0)
(0.291276 0.632764 0)
(0.266294 0.652984 0)
(0.239433 0.67146 0)
(0.210433 0.687462 0)
(0.179055 0.702531 0)
(0.142096 0.7211 0)
(0.0960382 0.743759 0)
(0.0365428 0.76379 0)
(3 -9.14982e-17 0)
(3 -3.72369e-17 0)
(3 1.87797e-16 0)
(3 -4.5166e-17 0)
(3 -3.75113e-16 0)
(3 -5.01078e-16 0)
(3 -4.64065e-16 0)
(3 -4.11005e-16 0)
(3 -4.59257e-16 0)
(3 -6.63036e-16 0)
(3 -6.48114e-16 0)
(3 -9.58106e-16 0)
(3 -1.08161e-15 0)