/*--------------------------------*- C++ -*----------------------------------*\
  =========                 |
  \\      /  F ield         | OpenFOAM: The Open Source CFD Toolbox
   \\    /   O peration     | Website:  https://openfoam.org
    \\  /    A nd           | Version:  7
     \\/     M anipulation  |
\*---------------------------------------------------------------------------*/
FoamFile
{
    version     2.0;
    format      ascii;
    class       volScalarField;
    location    "8.1";
    object      rho;
}
// * * * * * * * * * * * * * * * * * * * * * * * * * * * * * * * * * * * * * //

dimensions      [1 -3 0 0 0 0 0];

internalField   nonuniform List<scalar> 
19968
(
1.40001
1.40001
1.40001
1.40001
1.40001
1.40001
1.40001
1.40001
1.40001
1.40001
1.40001
1.40001
1.40001
1.40001
1.40001
1.40001
1.40001
1.40001
1.40001
1.40001
1.40001
1.40001
1.40001
1.40001
1.40001
1.40001
1.40001
1.40001
1.40001
1.40001
1.40001
1.40001
1.40001
1.40001
1.40001
1.40001
1.40001
1.40001
1.40001
1.40001
1.40001
1.40001
1.40001
1.40001
1.40001
1.40001
1.40001
1.40001
1.72898
4.59964
5.41829
5.42891
5.45675
5.47941
5.50246
5.52469
5.54653
5.56752
5.58683
5.6042
5.62069
5.63817
5.65703
5.67643
5.69591
5.71482
5.73241
5.74889
5.76514
5.78146
5.79726
5.81178
5.82487
5.83697
5.84885
5.86102
5.87342
5.88562
5.89728
5.90847
5.9195
5.9306
5.94169
5.95241
5.96233
5.97121
5.97892
5.98548
5.99092
5.99535
5.99897
6.00207
6.00491
6.00745
6.00967
6.01131
1.40001
1.40001
1.40001
1.40001
1.40001
1.40001
1.40001
1.40001
1.40001
1.40001
1.40001
1.40001
1.40001
1.40001
1.40001
1.40001
1.40001
1.40001
1.40001
1.40001
1.40001
1.40001
1.40001
1.40001
1.40001
1.40001
1.40001
1.40001
1.40001
1.40001
1.40001
1.40001
1.40001
1.40001
1.40001
1.40001
1.40001
1.40001
1.40001
1.40001
1.40001
1.40001
1.40001
1.40001
1.40001
1.40001
1.40001
1.40001
1.70925
4.56892
5.41239
5.43095
5.45739
5.48035
5.50289
5.52462
5.54616
5.56705
5.58629
5.60374
5.62024
5.63767
5.65634
5.6757
5.69511
5.71387
5.7313
5.74766
5.76379
5.77999
5.79567
5.81014
5.82322
5.83538
5.84734
5.85961
5.8721
5.88434
5.89602
5.90718
5.91813
5.92912
5.94008
5.95066
5.96048
5.96928
5.97694
5.98344
5.9888
5.99313
5.99665
5.99967
6.00246
6.00497
6.00715
6.00876
1.40001
1.40001
1.40001
1.40001
1.40001
1.40001
1.40001
1.40001
1.40001
1.40001
1.40001
1.40001
1.40001
1.40001
1.40001
1.40001
1.40001
1.40001
1.40001
1.40001
1.40001
1.40001
1.40001
1.40001
1.40001
1.40001
1.40001
1.40001
1.40001
1.40001
1.40001
1.40001
1.40001
1.40001
1.40001
1.40001
1.40001
1.40001
1.40001
1.40001
1.40001
1.40001
1.40001
1.40001
1.40001
1.40001
1.40001
1.40001
1.66608
4.50968
5.41262
5.42959
5.45571
5.47875
5.50078
5.52213
5.54354
5.5646
5.58407
5.60192
5.61862
5.6361
5.65461
5.67381
5.69301
5.71148
5.72868
5.74491
5.76098
5.77709
5.79266
5.80705
5.82011
5.83231
5.84438
5.85677
5.86938
5.88171
5.89341
5.90453
5.91538
5.92623
5.93703
5.94746
5.95717
5.96588
5.97351
5.98001
5.98537
5.98969
5.99318
5.99615
5.99889
6.00136
6.0035
6.00506
1.40001
1.40001
1.40001
1.40001
1.40001
1.40001
1.40001
1.40001
1.40001
1.40001
1.40001
1.40001
1.40001
1.40001
1.40001
1.40001
1.40001
1.40001
1.40001
1.40001
1.40001
1.40001
1.40001
1.40001
1.40001
1.40001
1.40001
1.40001
1.40001
1.40001
1.40001
1.40001
1.40001
1.40001
1.40001
1.40001
1.40001
1.40001
1.40001
1.40001
1.40001
1.40001
1.40001
1.40001
1.40001
1.40001
1.40001
1.40001
1.60387
4.41354
5.4134
5.43027
5.454
5.4762
5.49739
5.51837
5.53976
5.56121
5.58111
5.59943
5.61637
5.63388
5.65208
5.67091
5.68971
5.70775
5.72466
5.74078
5.75684
5.77289
5.78835
5.80264
5.81566
5.82789
5.84005
5.85261
5.86537
5.87782
5.88955
5.90059
5.91125
5.9218
5.93226
5.94236
5.95175
5.96023
5.96768
5.97407
5.97938
5.98367
5.98718
5.99021
5.99303
5.9956
5.99778
5.99941
1.40001
1.40001
1.40001
1.40001
1.40001
1.40001
1.40001
1.40001
1.40001
1.40001
1.40001
1.40001
1.40001
1.40001
1.40001
1.40001
1.40001
1.40001
1.40001
1.40001
1.40001
1.40001
1.40001
1.40001
1.40001
1.40001
1.40001
1.40001
1.40001
1.40001
1.40001
1.40001
1.40001
1.40001
1.40001
1.40001
1.40001
1.40001
1.40001
1.40001
1.40001
1.40001
1.40001
1.40001
1.40001
1.40001
1.40001
1.40001
1.52868
4.28988
5.41805
5.43122
5.45137
5.47202
5.49229
5.51315
5.53482
5.55678
5.57735
5.59638
5.61369
5.63107
5.64862
5.66667
5.68479
5.70227
5.71894
5.73511
5.75131
5.76741
5.78283
5.79706
5.81005
5.8223
5.83458
5.84731
5.86028
5.87292
5.88477
5.8958
5.90632
5.91661
5.92675
5.93651
5.9456
5.9538
5.96098
5.96707
5.97206
5.976
5.97915
5.98185
5.98438
5.98672
5.98871
5.99021
1.40001
1.40001
1.40001
1.40001
1.40001
1.40001
1.40001
1.40001
1.40001
1.40001
1.40001
1.40001
1.40001
1.40001
1.40001
1.40001
1.40001
1.40001
1.40001
1.40001
1.40001
1.40001
1.40001
1.40001
1.40001
1.40001
1.40001
1.40001
1.40001
1.40001
1.40001
1.40001
1.40001
1.40001
1.40001
1.40001
1.40001
1.40001
1.40001
1.40001
1.40001
1.40001
1.40001
1.40001
1.40001
1.40001
1.40001
1.40001
1.40787
4.09271
5.41932
5.43244
5.44946
5.46941
5.48897
5.50935
5.53083
5.55287
5.57412
5.59404
5.61185
5.62879
5.64505
5.66149
5.67828
5.69488
5.71133
5.72757
5.74386
5.75987
5.77504
5.78898
5.80171
5.81373
5.82584
5.83847
5.85141
5.86404
5.87588
5.88683
5.89714
5.90711
5.91687
5.9263
5.93517
5.94328
5.95049
5.95666
5.96173
5.96573
5.96892
5.97163
5.97413
5.97643
5.97834
5.9798
1.40001
1.40001
1.40001
1.40001
1.40001
1.40001
1.40001
1.40001
1.40001
1.40001
1.40001
1.40001
1.40001
1.40001
1.40001
1.40001
1.40001
1.40001
1.40001
1.40001
1.40001
1.40001
1.40001
1.40001
1.40001
1.40001
1.40001
1.40001
1.40001
1.40001
1.40001
1.40001
1.40001
1.40001
1.40001
1.40001
1.40001
1.40001
1.40001
1.40001
1.40001
1.40001
1.40001
1.40001
1.40001
1.40001
1.40001
1.40001
1.40005
3.7998
5.38398
5.4133
5.43053
5.4516
5.47182
5.4927
5.51467
5.53739
5.5598
5.58091
5.59967
5.61684
5.63253
5.64801
5.66399
5.68006
5.69649
5.71303
5.72968
5.74591
5.76114
5.77506
5.78777
5.79982
5.81196
5.82463
5.83762
5.85034
5.86228
5.87327
5.88349
5.89322
5.90267
5.91184
5.92059
5.92872
5.93602
5.94229
5.94742
5.95142
5.95456
5.95718
5.95956
5.96177
5.96356
5.96498
1.40001
1.40001
1.40001
1.40001
1.40001
1.40001
1.40001
1.40001
1.40001
1.40001
1.40001
1.40001
1.40001
1.40001
1.40001
1.40001
1.40001
1.40001
1.40001
1.40001
1.40001
1.40001
1.40001
1.40001
1.40001
1.40001
1.40001
1.40001
1.40001
1.40001
1.40001
1.40001
1.40001
1.40001
1.40001
1.40001
1.40001
1.40001
1.40001
1.40001
1.40001
1.40001
1.40001
1.40001
1.40001
1.40001
1.40001
1.40001
1.40001
3.41408
5.33125
5.40127
5.42118
5.44376
5.46403
5.48448
5.50602
5.52855
5.55096
5.57207
5.59091
5.60794
5.62323
5.63798
5.65324
5.66853
5.68432
5.70038
5.71672
5.73268
5.74763
5.76129
5.77379
5.78562
5.79749
5.80985
5.82254
5.83503
5.84682
5.85767
5.86766
5.87704
5.88605
5.89481
5.90329
5.91134
5.91868
5.925
5.9301
5.93399
5.93697
5.9394
5.94157
5.94361
5.94522
5.94656
1.40001
1.40001
1.40001
1.40001
1.40001
1.40001
1.40001
1.40001
1.40001
1.40001
1.40001
1.40001
1.40001
1.40001
1.40001
1.40001
1.40001
1.40001
1.40001
1.40001
1.40001
1.40001
1.40001
1.40001
1.40001
1.40001
1.40001
1.40001
1.40001
1.40001
1.40001
1.40001
1.40001
1.40001
1.40001
1.40001
1.40001
1.40001
1.40001
1.40001
1.40001
1.40001
1.40001
1.40001
1.40001
1.40001
1.40001
1.40001
1.40001
2.94811
5.24336
5.39325
5.41366
5.43752
5.45742
5.47719
5.4979
5.51964
5.54118
5.56167
5.58029
5.59721
5.61245
5.62685
5.64154
5.65595
5.67055
5.68538
5.70063
5.7157
5.73005
5.74329
5.75545
5.76688
5.77823
5.78997
5.80206
5.81409
5.82555
5.83616
5.84588
5.85486
5.86336
5.87162
5.87975
5.88768
5.89509
5.90155
5.90675
5.91068
5.91362
5.91597
5.91799
5.91989
5.92134
5.92257
1.40001
1.40001
1.40001
1.40001
1.40001
1.40001
1.40001
1.40001
1.40001
1.40001
1.40001
1.40001
1.40001
1.40001
1.40001
1.40001
1.40001
1.40001
1.40001
1.40001
1.40001
1.40001
1.40001
1.40001
1.40001
1.40001
1.40001
1.40001
1.40001
1.40001
1.40001
1.40001
1.40001
1.40001
1.40001
1.40001
1.40001
1.40001
1.40001
1.40001
1.40001
1.40001
1.40001
1.40001
1.40001
1.40001
1.40001
1.40001
1.40001
2.42051
5.0644
5.39489
5.4149
5.4396
5.4594
5.47827
5.49693
5.51594
5.5346
5.55294
5.57035
5.58676
5.6021
5.6165
5.63086
5.64442
5.65755
5.67078
5.68459
5.69848
5.71192
5.72442
5.73586
5.74633
5.75645
5.76682
5.77761
5.78853
5.79915
5.80915
5.81841
5.82697
5.83502
5.84283
5.85062
5.85837
5.86573
5.87215
5.87725
5.88096
5.88362
5.8856
5.88717
5.88865
5.88968
5.89062
1.40001
1.40001
1.40001
1.40001
1.40001
1.40001
1.40001
1.40001
1.40001
1.40001
1.40001
1.40001
1.40001
1.40001
1.40001
1.40001
1.40001
1.40001
1.40001
1.40001
1.40001
1.40001
1.40001
1.40001
1.40001
1.40001
1.40001
1.40001
1.40001
1.40001
1.40001
1.40001
1.40001
1.40001
1.40001
1.40001
1.40001
1.40001
1.40001
1.40001
1.40001
1.40001
1.40001
1.40001
1.40001
1.40001
1.40001
1.40001
1.40001
1.89058
4.74481
5.41011
5.4085
5.43296
5.44979
5.46841
5.48661
5.50528
5.52342
5.54093
5.55749
5.57327
5.58858
5.60325
5.61776
5.63113
5.64324
5.65498
5.66738
5.6803
5.69314
5.70517
5.71592
5.72544
5.73422
5.74297
5.75206
5.76134
5.77043
5.77902
5.78694
5.79416
5.80078
5.80704
5.8133
5.81972
5.82611
5.832
5.83697
5.84081
5.84368
5.84575
5.84723
5.84846
5.84918
5.8499
1.40001
1.40001
1.40001
1.40001
1.40001
1.40001
1.40001
1.40001
1.40001
1.40001
1.40001
1.40001
1.40001
1.40001
1.40001
1.40001
1.40001
1.40001
1.40001
1.40001
1.40001
1.40001
1.40001
1.40001
1.40001
1.40001
1.40001
1.40001
1.40001
1.40001
1.40001
1.40001
1.40001
1.40001
1.40001
1.40001
1.40001
1.40001
1.40001
1.40001
1.40001
1.40001
1.40001
1.40001
1.40001
1.40001
1.40001
1.40001
1.40001
1.4255
4.10443
5.40898
5.41634
5.43298
5.44802
5.46484
5.48192
5.49947
5.51602
5.53146
5.54589
5.55965
5.57347
5.58728
5.60088
5.61324
5.62382
5.63361
5.6441
5.65551
5.6672
5.67845
5.68835
5.69681
5.70416
5.71123
5.71857
5.72621
5.73382
5.74112
5.74794
5.75419
5.75982
5.76499
5.77
5.7751
5.78028
5.78515
5.78925
5.7921
5.79348
5.79351
5.79282
5.79218
5.79158
5.79144
1.40001
1.40001
1.40001
1.40001
1.40001
1.40001
1.40001
1.40001
1.40001
1.40001
1.40001
1.40001
1.40001
1.40001
1.40001
1.40001
1.40001
1.40001
1.40001
1.40001
1.40001
1.40001
1.40001
1.40001
1.40001
1.40001
1.40001
1.40001
1.40001
1.40001
1.40001
1.40001
1.40001
1.40001
1.40001
1.40001
1.40001
1.40001
1.40001
1.40001
1.40001
1.40001
1.40001
1.40001
1.40001
1.40001
1.40001
1.40001
1.40001
1.40005
3.21109
5.24908
5.36793
5.39123
5.41153
5.42947
5.44744
5.46577
5.48347
5.4996
5.51406
5.52746
5.54061
5.55399
5.56712
5.57905
5.58934
5.59864
5.60828
5.61911
5.63043
5.6415
5.65106
5.65871
5.66482
5.6703
5.67592
5.68179
5.68765
5.69323
5.69839
5.703
5.70684
5.70976
5.7118
5.71327
5.71461
5.71605
5.7176
5.71889
5.71947
5.71931
5.71867
5.71843
5.71813
5.71808
1.40001
1.40001
1.40001
1.40001
1.40001
1.40001
1.40001
1.40001
1.40001
1.40001
1.40001
1.40001
1.40001
1.40001
1.40001
1.40001
1.40001
1.40001
1.40001
1.40001
1.40001
1.40001
1.40001
1.40001
1.40001
1.40001
1.40001
1.40001
1.40001
1.40001
1.40001
1.40001
1.40001
1.40001
1.40001
1.40001
1.40001
1.40001
1.40001
1.40001
1.40001
1.40001
1.40001
1.40001
1.40001
1.40001
1.40001
1.40001
1.40001
1.4
2.17508
4.89001
5.37714
5.38199
5.40185
5.41831
5.4345
5.45076
5.46718
5.48244
5.49573
5.50746
5.51862
5.53007
5.54176
5.55263
5.56199
5.57031
5.5784
5.5875
5.59728
5.60692
5.61511
5.62093
5.62475
5.62754
5.63022
5.63305
5.63594
5.63852
5.64076
5.64264
5.64405
5.6446
5.64378
5.64192
5.63971
5.63806
5.63698
5.63565
5.63257
5.62744
5.61976
5.61141
5.60343
5.59615
1.40001
1.40001
1.40001
1.40001
1.40001
1.40001
1.40001
1.40001
1.40001
1.40001
1.40001
1.40001
1.40001
1.40001
1.40001
1.40001
1.40001
1.40001
1.40001
1.40001
1.40001
1.40001
1.40001
1.40001
1.40001
1.40001
1.40001
1.40001
1.40001
1.40001
1.40001
1.40001
1.40001
1.40001
1.40001
1.40001
1.40001
1.40001
1.40001
1.40001
1.40001
1.40001
1.40001
1.40001
1.40001
1.40001
1.40001
1.40001
1.40001
1.40001
1.44321
3.96953
5.39348
5.39602
5.40568
5.41406
5.42369
5.43469
5.4466
5.45835
5.46889
5.47814
5.48695
5.49603
5.50576
5.51515
5.52313
5.53022
5.53709
5.54439
5.55237
5.56007
5.56652
5.57064
5.57238
5.57262
5.57213
5.57151
5.57087
5.56969
5.56792
5.56571
5.56334
5.55992
5.55411
5.54595
5.53558
5.52375
5.51061
5.49561
5.47837
5.4597
5.44357
5.43053
5.4258
5.42321
1.40001
1.40001
1.40001
1.40001
1.40001
1.40001
1.40001
1.40001
1.40001
1.40001
1.40001
1.40001
1.40001
1.40001
1.40001
1.40001
1.40001
1.40001
1.40001
1.40001
1.40001
1.40001
1.40001
1.40001
1.40001
1.40001
1.40001
1.40001
1.40001
1.40001
1.40001
1.40001
1.40001
1.40001
1.40001
1.40001
1.40001
1.40001
1.40001
1.40001
1.40001
1.40001
1.40001
1.40001
1.40001
1.40001
1.40001
1.40001
1.40001
1.40001
1.40006
2.61046
5.08989
5.35734
5.36282
5.37269
5.38402
5.39632
5.40913
5.42194
5.43362
5.44361
5.45232
5.46025
5.4678
5.47507
5.4813
5.48629
5.49108
5.49613
5.50166
5.50705
5.51146
5.51376
5.51358
5.51099
5.50679
5.50211
5.49709
5.49117
5.48372
5.47495
5.46539
5.45479
5.44217
5.42654
5.40729
5.38475
5.35975
5.33334
5.30596
5.2782
5.24396
5.20571
5.15281
5.17302
1.40001
1.40001
1.40001
1.40001
1.40001
1.40001
1.40001
1.40001
1.40001
1.40001
1.40001
1.40001
1.40001
1.40001
1.40001
1.40001
1.40001
1.40001
1.40001
1.40001
1.40001
1.40001
1.40001
1.40001
1.40001
1.40001
1.40001
1.40001
1.40001
1.40001
1.40001
1.40001
1.40001
1.40001
1.40001
1.40001
1.40001
1.40001
1.40001
1.40001
1.40001
1.40001
1.40001
1.40001
1.40001
1.40001
1.40001
1.40001
1.40001
1.40001
1.40001
1.55671
4.38572
5.37532
5.36066
5.3627
5.36962
5.37797
5.38759
5.39808
5.40852
5.41785
5.42544
5.43154
5.4365
5.44082
5.44436
5.44637
5.44811
5.45057
5.45352
5.45638
5.45812
5.45833
5.45603
5.45071
5.44303
5.43427
5.42511
5.41483
5.4021
5.38657
5.36886
5.3496
5.32822
5.30318
5.27237
5.23432
5.18713
5.12994
5.05588
4.9592
4.81313
4.58943
4.18649
3.29461
1.40001
1.40001
1.40001
1.40001
1.40001
1.40001
1.40001
1.40001
1.40001
1.40001
1.40001
1.40001
1.40001
1.40001
1.40001
1.40001
1.40001
1.40001
1.40001
1.40001
1.40001
1.40001
1.40001
1.40001
1.40001
1.40001
1.40001
1.40001
1.40001
1.40001
1.40001
1.40001
1.40001
1.40001
1.40001
1.40001
1.40001
1.40001
1.40001
1.40001
1.40001
1.40001
1.40001
1.40001
1.40001
1.40001
1.40001
1.40001
1.40001
1.40001
1.4
1.40117
3.24718
5.20972
5.31019
5.32819
5.34227
5.35265
5.36186
5.37007
5.37766
5.3851
5.3926
5.3996
5.40499
5.40805
5.40931
5.40922
5.40872
5.40887
5.40935
5.4095
5.40893
5.40714
5.40308
5.39596
5.38549
5.37314
5.36013
5.34609
5.32938
5.30869
5.28404
5.25644
5.22549
5.19023
5.14717
5.09442
5.02649
4.94265
4.83056
4.6875
4.48153
4.2184
3.68006
2.92002
1.40001
1.40001
1.40001
1.40001
1.40001
1.40001
1.40001
1.40001
1.40001
1.40001
1.40001
1.40001
1.40001
1.40001
1.40001
1.40001
1.40001
1.40001
1.40001
1.40001
1.40001
1.40001
1.40001
1.40001
1.40001
1.40001
1.40001
1.40001
1.40001
1.40001
1.40001
1.40001
1.40001
1.40001
1.40001
1.40001
1.40001
1.40001
1.40001
1.40001
1.40001
1.40001
1.40001
1.40001
1.40001
1.40001
1.40001
1.40001
1.40001
1.40001
1.40001
1.4
1.98614
4.75374
5.31421
5.31699
5.33178
5.34157
5.35022
5.35664
5.36207
5.36667
5.37187
5.37752
5.38149
5.38243
5.38104
5.3783
5.37505
5.37221
5.36954
5.36626
5.36245
5.35742
5.35048
5.34085
5.32785
5.31189
5.29423
5.27523
5.25362
5.22795
5.19711
5.16194
5.12137
5.07561
5.02051
4.95443
4.87063
4.76663
4.63361
4.46222
4.24456
3.92314
3.48885
2.97135
1.40001
1.40001
1.40001
1.40001
1.40001
1.40001
1.40001
1.40001
1.40001
1.40001
1.40001
1.40001
1.40001
1.40001
1.40001
1.40001
1.40001
1.40001
1.40001
1.40001
1.40001
1.40001
1.40001
1.40001
1.40001
1.40001
1.40001
1.40001
1.40001
1.40001
1.40001
1.40001
1.40001
1.40001
1.40001
1.40001
1.40001
1.40001
1.40001
1.40001
1.40001
1.40001
1.40001
1.40001
1.40001
1.40001
1.40001
1.40001
1.40001
1.40001
1.40001
1.4
1.42662
3.58567
5.21956
5.29896
5.31595
5.32573
5.33456
5.34252
5.34843
5.34979
5.35061
5.35254
5.35375
5.35225
5.34867
5.34458
5.33999
5.335
5.3293
5.3227
5.31496
5.30553
5.29483
5.28264
5.26763
5.24911
5.22741
5.2032
5.17594
5.14512
5.10897
5.06791
5.01992
4.96536
4.90072
4.82384
4.72968
4.61414
4.47254
4.29393
4.07475
3.78882
3.44681
3.08234
1.40001
1.40001
1.40001
1.40001
1.40001
1.40001
1.40001
1.40001
1.40001
1.40001
1.40001
1.40001
1.40001
1.40001
1.40001
1.40001
1.40001
1.40001
1.40001
1.40001
1.40001
1.40001
1.40001
1.40001
1.40001
1.40001
1.40001
1.40001
1.40001
1.40001
1.40001
1.40001
1.40001
1.40001
1.40001
1.40001
1.40001
1.40001
1.40001
1.40001
1.40001
1.40001
1.40001
1.40001
1.40001
1.40001
1.40001
1.40001
1.40001
1.40001
1.40001
1.40001
1.4
2.122
4.82341
5.2951
5.29597
5.30826
5.31578
5.32341
5.32834
5.3291
5.32986
5.33084
5.33016
5.32583
5.31964
5.31368
5.30726
5.30003
5.29164
5.28214
5.27058
5.25682
5.24177
5.22576
5.20763
5.18662
5.1617
5.13318
5.10065
5.06454
5.02338
4.97725
4.92403
4.8632
4.79229
4.7088
4.60934
4.48969
4.35007
4.17505
3.97705
3.73463
3.46554
3.18407
1.40001
1.40001
1.40001
1.40001
1.40001
1.40001
1.40001
1.40001
1.40001
1.40001
1.40001
1.40001
1.40001
1.40001
1.40001
1.40001
1.40001
1.40001
1.40001
1.40001
1.40001
1.40001
1.40001
1.40001
1.40001
1.40001
1.40001
1.40001
1.40001
1.40001
1.40001
1.40001
1.40001
1.40001
1.40001
1.40001
1.40001
1.40001
1.40001
1.40001
1.40001
1.40001
1.40001
1.40001
1.40001
1.40001
1.40001
1.40001
1.40001
1.40001
1.40001
1.40001
1.4
1.43755
3.61461
5.21795
5.28308
5.29345
5.29945
5.30331
5.30437
5.30307
5.30294
5.3041
5.30388
5.29916
5.29174
5.28424
5.27589
5.26638
5.25591
5.24431
5.22971
5.21244
5.19295
5.17206
5.1494
5.12494
5.09717
5.06561
5.0292
4.98845
4.94276
4.89222
4.83532
4.77084
4.69679
4.61081
4.5106
4.39196
4.25724
4.09475
3.92069
3.7216
3.50005
3.27266
1.40001
1.40001
1.40001
1.40001
1.40001
1.40001
1.40001
1.40001
1.40001
1.40001
1.40001
1.40001
1.40001
1.40001
1.40001
1.40001
1.40001
1.40001
1.40001
1.40001
1.40001
1.40001
1.40001
1.40001
1.40001
1.40001
1.40001
1.40001
1.40001
1.40001
1.40001
1.40001
1.40001
1.40001
1.40001
1.40001
1.40001
1.40001
1.40001
1.40001
1.40001
1.40001
1.40001
1.40001
1.40001
1.40001
1.40001
1.40001
1.40001
1.40001
1.40001
1.40001
1.40001
1.40004
2.02282
4.75874
5.29634
5.27796
5.28044
5.28205
5.27869
5.27377
5.27163
5.27264
5.27298
5.26945
5.26186
5.25312
5.24245
5.22995
5.21754
5.20443
5.18831
5.16991
5.14815
5.12338
5.09592
5.06669
5.03528
5.00103
4.96192
4.91804
4.86925
4.81571
4.75639
4.68986
4.61461
4.52877
4.43156
4.31705
4.18901
4.04247
3.88868
3.72255
3.53242
3.34245
1.40001
1.40001
1.40001
1.40001
1.40001
1.40001
1.40001
1.40001
1.40001
1.40001
1.40001
1.40001
1.40001
1.40001
1.40001
1.40001
1.40001
1.40001
1.40001
1.40001
1.40001
1.40001
1.40001
1.40001
1.40001
1.40001
1.40001
1.40001
1.40001
1.40001
1.40001
1.40001
1.40001
1.40001
1.40001
1.40001
1.40001
1.40001
1.40001
1.40001
1.40001
1.40001
1.40001
1.40001
1.40001
1.40001
1.40001
1.40001
1.40001
1.40001
1.40001
1.40001
1.40001
1.40001
1.42544
3.35321
5.14242
5.25282
5.24898
5.25242
5.25169
5.24872
5.24699
5.24728
5.24735
5.24425
5.23661
5.2268
5.21389
5.1973
5.18181
5.16644
5.14884
5.1301
5.10759
5.08058
5.04919
5.01502
4.97934
4.94195
4.90023
4.85401
4.80323
4.74792
4.68738
4.62018
4.54525
4.46068
4.36912
4.25953
4.14128
4.00943
3.8731
3.72506
3.55941
3.40067
1.40001
1.40001
1.40001
1.40001
1.40001
1.40001
1.40001
1.40001
1.40001
1.40001
1.40001
1.40001
1.40001
1.40001
1.40001
1.40001
1.40001
1.40001
1.40001
1.40001
1.40001
1.40001
1.40001
1.40001
1.40001
1.40001
1.40001
1.40001
1.40001
1.40001
1.40001
1.40001
1.40001
1.40001
1.40001
1.40001
1.40001
1.40001
1.40001
1.40001
1.40001
1.40001
1.40001
1.40001
1.40001
1.40001
1.40001
1.40001
1.40001
1.40001
1.40001
1.40001
1.40001
1.40001
1.40002
1.72609
4.51725
5.27846
5.25012
5.24163
5.23155
5.22379
5.21864
5.2156
5.21336
5.20962
5.20193
5.19226
5.17872
5.1596
5.14109
5.12389
5.10499
5.08655
5.06493
5.03851
5.00612
4.96895
4.92953
4.8886
4.84423
4.79648
4.74493
4.68908
4.62851
4.56178
4.48825
4.40514
4.31789
4.21413
4.10775
3.98851
3.86473
3.7298
3.5905
3.44869
1.40001
1.40001
1.40001
1.40001
1.40001
1.40001
1.40001
1.40001
1.40001
1.40001
1.40001
1.40001
1.40001
1.40001
1.40001
1.40001
1.40001
1.40001
1.40001
1.40001
1.40001
1.40001
1.40001
1.40001
1.40001
1.40001
1.40001
1.40001
1.40001
1.40001
1.40001
1.40001
1.40001
1.40001
1.40001
1.40001
1.40001
1.40001
1.40001
1.40001
1.40001
1.40001
1.40001
1.40001
1.40001
1.40001
1.40001
1.40001
1.40001
1.40001
1.40001
1.40001
1.40001
1.40001
1.40001
1.40583
2.91239
5.02185
5.19237
5.20467
5.20313
5.19642
5.18978
5.18407
5.179
5.17312
5.16432
5.15477
5.14176
5.12233
5.10198
5.0828
5.06217
5.04308
5.02167
4.99645
4.96484
4.92731
4.88587
4.84159
4.79483
4.74596
4.69415
4.63831
4.57855
4.51296
4.44194
4.36039
4.27558
4.17983
4.08293
3.97369
3.86099
3.74342
3.62216
3.4889
1.40001
1.40001
1.40001
1.40001
1.40001
1.40001
1.40001
1.40001
1.40001
1.40001
1.40001
1.40001
1.40001
1.40001
1.40001
1.40001
1.40001
1.40001
1.40001
1.40001
1.40001
1.40001
1.40001
1.40001
1.40001
1.40001
1.40001
1.40001
1.40001
1.40001
1.40001
1.40001
1.40001
1.40001
1.40001
1.40001
1.40001
1.40001
1.40001
1.40001
1.40001
1.40001
1.40001
1.40001
1.40001
1.40001
1.40001
1.40001
1.40001
1.40001
1.40001
1.40001
1.40001
1.40001
1.40001
1.40001
1.54993
3.95714
5.19518
5.18791
5.18026
5.17336
5.16805
5.16221
5.15512
5.14651
5.13539
5.12354
5.10955
5.08908
5.06737
5.04566
5.02285
5.00145
4.97848
4.95334
4.92332
4.88732
4.84642
4.80104
4.75269
4.70337
4.65179
4.59632
4.53758
4.47317
4.40449
4.32498
4.24287
4.15458
4.06272
3.96261
3.86263
3.75842
3.64674
3.5248
1.40001
1.40001
1.40001
1.40001
1.40001
1.40001
1.40001
1.40001
1.40001
1.40001
1.40001
1.40001
1.40001
1.40001
1.40001
1.40001
1.40001
1.40001
1.40001
1.40001
1.40001
1.40001
1.40001
1.40001
1.40001
1.40001
1.40001
1.40001
1.40001
1.40001
1.40001
1.40001
1.40001
1.40001
1.40001
1.40001
1.40001
1.40001
1.40001
1.40001
1.40001
1.40001
1.40001
1.40001
1.40001
1.40001
1.40001
1.40001
1.40001
1.40001
1.40001
1.40001
1.40001
1.40001
1.40001
1.40001
1.40109
2.11124
4.76073
5.17697
5.15052
5.14894
5.14381
5.13771
5.12962
5.11906
5.1059
5.09113
5.0765
5.05654
5.03447
5.01113
4.98627
4.96209
4.9366
4.91015
4.88142
4.84641
4.80673
4.7627
4.71488
4.66647
4.61522
4.5605
4.50305
4.43991
4.37385
4.29793
4.21909
4.13607
4.04801
3.95836
3.86672
3.76913
3.66729
3.55987
1.40001
1.40001
1.40001
1.40001
1.40001
1.40001
1.40001
1.40001
1.40001
1.40001
1.40001
1.40001
1.40001
1.40001
1.40001
1.40001
1.40001
1.40001
1.40001
1.40001
1.40001
1.40001
1.40001
1.40001
1.40001
1.40001
1.40001
1.40001
1.40001
1.40001
1.40001
1.40001
1.40001
1.40001
1.40001
1.40001
1.40001
1.40001
1.40001
1.40001
1.40001
1.40001
1.40001
1.40001
1.40001
1.40001
1.40001
1.40001
1.40001
1.40001
1.40001
1.40001
1.40001
1.40001
1.40001
1.40001
1.40001
1.43024
3.09492
5.03845
5.12944
5.12964
5.12759
5.12063
5.11132
5.09833
5.08225
5.06381
5.04689
5.02638
5.00363
4.97985
4.95428
4.92794
4.90044
4.872
4.84309
4.80877
4.76947
4.72697
4.681
4.63279
4.58343
4.5308
4.47519
4.41334
4.34934
4.27794
4.20264
4.1236
4.04054
3.95877
3.87075
3.77964
3.68876
3.59282
1.40001
1.40001
1.40001
1.40001
1.40001
1.40001
1.40001
1.40001
1.40001
1.40001
1.40001
1.40001
1.40001
1.40001
1.40001
1.40001
1.40001
1.40001
1.40001
1.40001
1.40001
1.40001
1.40001
1.40001
1.40001
1.40001
1.40001
1.40001
1.40001
1.40001
1.40001
1.40001
1.40001
1.40001
1.40001
1.40001
1.40001
1.40001
1.40001
1.40001
1.40001
1.40001
1.40001
1.40001
1.40001
1.40001
1.40001
1.40001
1.40001
1.40001
1.40001
1.40001
1.40001
1.40001
1.40001
1.40001
1.40001
1.40007
1.57797
3.78806
5.09118
5.13406
5.12007
5.11217
5.10032
5.08478
5.06577
5.04445
5.02436
5.00184
4.97704
4.95226
4.92659
4.899
4.8703
4.84028
4.81013
4.77577
4.7365
4.69442
4.64915
4.60136
4.55285
4.50236
4.44883
4.39008
4.32843
4.26195
4.19053
4.1161
4.0387
3.96115
3.87696
3.79386
3.71012
3.62221
1.40001
1.40001
1.40001
1.40001
1.40001
1.40001
1.40001
1.40001
1.40001
1.40001
1.40001
1.40001
1.40001
1.40001
1.40001
1.40001
1.40001
1.40001
1.40001
1.40001
1.40001
1.40001
1.40001
1.40001
1.40001
1.40001
1.40001
1.40001
1.40001
1.40001
1.40001
1.40001
1.40001
1.40001
1.40001
1.40001
1.40001
1.40001
1.40001
1.40001
1.40001
1.40001
1.40001
1.40001
1.40001
1.40001
1.40001
1.40001
1.40001
1.40001
1.40001
1.40001
1.40001
1.40001
1.40001
1.40001
1.40001
1.40001
1.40167
1.80109
4.48883
5.17645
5.14569
5.11829
5.09225
5.06859
5.04491
5.02129
4.99915
4.97595
4.95109
4.92574
4.90046
4.8736
4.84474
4.81425
4.78233
4.74746
4.70703
4.66466
4.61978
4.57316
4.52544
4.47597
4.42486
4.36994
4.31155
4.24952
4.1821
4.11244
4.04068
3.96577
3.88708
3.81029
3.7316
3.64963
1.40001
1.40001
1.40001
1.40001
1.40001
1.40001
1.40001
1.40001
1.40001
1.40001
1.40001
1.40001
1.40001
1.40001
1.40001
1.40001
1.40001
1.40001
1.40001
1.40001
1.40001
1.40001
1.40001
1.40001
1.40001
1.40001
1.40001
1.40001
1.40001
1.40001
1.40001
1.40001
1.40001
1.40001
1.40001
1.40001
1.40001
1.40001
1.40001
1.40001
1.40001
1.40001
1.40001
1.40001
1.40001
1.40001
1.40001
1.40001
1.40001
1.40001
1.40001
1.40001
1.40001
1.40001
1.40001
1.40001
1.40001
1.40001
1.40001
1.40877
2.57773
4.90535
5.1042
5.07527
5.05539
5.03525
5.01584
4.99516
4.97418
4.9522
4.92937
4.90496
4.87889
4.85247
4.82389
4.79304
4.75971
4.7236
4.68249
4.63938
4.59431
4.5483
4.50132
4.45263
4.40329
4.35103
4.29592
4.2377
4.17426
4.1093
4.04257
3.97061
3.89803
3.82579
3.75123
3.67442
1.40001
1.40001
1.40001
1.40001
1.40001
1.40001
1.40001
1.40001
1.40001
1.40001
1.40001
1.40001
1.40001
1.40001
1.40001
1.40001
1.40001
1.40001
1.40001
1.40001
1.40001
1.40001
1.40001
1.40001
1.40001
1.40001
1.40001
1.40001
1.40001
1.40001
1.40001
1.40001
1.40001
1.40001
1.40001
1.40001
1.40001
1.40001
1.40001
1.40001
1.40001
1.40001
1.40001
1.40001
1.40001
1.40001
1.40001
1.40001
1.40001
1.40001
1.40001
1.40001
1.40001
1.40001
1.40001
1.40001
1.40001
1.40001
1.40001
1.40002
1.48029
3.21206
4.98479
5.03777
5.02555
5.02068
5.00846
4.9921
4.97174
4.94864
4.92367
4.89744
4.86965
4.84076
4.8126
4.77945
4.74455
4.7066
4.66444
4.62025
4.57473
4.52868
4.48245
4.43453
4.38623
4.33613
4.2839
4.22875
4.16897
4.10794
4.04458
3.97599
3.90864
3.83955
3.76844
3.69643
1.40001
1.40001
1.40001
1.40001
1.40001
1.40001
1.40001
1.40001
1.40001
1.40001
1.40001
1.40001
1.40001
1.40001
1.40001
1.40001
1.40001
1.40001
1.40001
1.40001
1.40001
1.40001
1.40001
1.40001
1.40001
1.40001
1.40001
1.40001
1.40001
1.40001
1.40001
1.40001
1.40001
1.40001
1.40001
1.40001
1.40001
1.40001
1.40001
1.40001
1.40001
1.40001
1.40001
1.40001
1.40001
1.40001
1.40001
1.40001
1.40001
1.40001
1.40001
1.40001
1.40001
1.40001
1.40001
1.40001
1.40001
1.40001
1.40001
1.40001
1.40043
1.60202
3.59596
4.98311
5.01145
5.00664
4.99797
4.98338
4.96499
4.94345
4.9189
4.89203
4.8633
4.8326
4.80216
4.76825
4.73191
4.6926
4.65016
4.60585
4.56042
4.51441
4.46832
4.42115
4.37302
4.32424
4.27429
4.22154
4.16477
4.10666
4.04558
3.98041
3.917
3.85032
3.78235
3.71472
1.40001
1.40001
1.40001
1.40001
1.40001
1.40001
1.40001
1.40001
1.40001
1.40001
1.40001
1.40001
1.40001
1.40001
1.40001
1.40001
1.40001
1.40001
1.40001
1.40001
1.40001
1.40001
1.40001
1.40001
1.40001
1.40001
1.40001
1.40001
1.40001
1.40001
1.40001
1.40001
1.40001
1.40001
1.40001
1.40001
1.40001
1.40001
1.40001
1.40001
1.40001
1.40001
1.40001
1.40001
1.40001
1.40001
1.40001
1.40001
1.40001
1.40001
1.40001
1.40001
1.40001
1.40001
1.40001
1.40001
1.40001
1.40001
1.40001
1.40001
1.40001
1.40228
1.72461
3.91229
5.01022
5.009
4.9938
4.97575
4.95607
4.93419
4.91025
4.88432
4.85614
4.82538
4.79372
4.75974
4.72307
4.68358
4.6416
4.59795
4.55322
4.50774
4.46202
4.41535
4.36722
4.31852
4.26923
4.21774
4.16307
4.1067
4.04707
3.98464
3.92365
3.85904
3.79426
3.731
1.40001
1.40001
1.40001
1.40001
1.40001
1.40001
1.40001
1.40001
1.40001
1.40001
1.40001
1.40001
1.40001
1.40001
1.40001
1.40001
1.40001
1.40001
1.40001
1.40001
1.40001
1.40001
1.40001
1.40001
1.40001
1.40001
1.40001
1.40001
1.40001
1.40001
1.40001
1.40001
1.40001
1.40001
1.40001
1.40001
1.40001
1.40001
1.40001
1.40001
1.40001
1.40001
1.40001
1.40001
1.40001
1.40001
1.40001
1.40001
1.40001
1.40001
1.40001
1.40001
1.40001
1.40001
1.40001
1.40001
1.40001
1.40001
1.40001
1.40001
1.40001
1.40001
1.40573
1.86132
4.19376
5.0192
5.00235
4.97855
4.95352
4.92817
4.90174
4.87465
4.84555
4.81491
4.78326
4.7493
4.71293
4.67423
4.63371
4.59183
4.54874
4.50455
4.45969
4.41363
4.36582
4.31715
4.2676
4.21618
4.16234
4.10652
4.04807
3.98794
3.92903
3.86792
3.80762
3.74974
1.40001
1.40001
1.40001
1.40001
1.40001
1.40001
1.40001
1.40001
1.40001
1.40001
1.40001
1.40001
1.40001
1.40001
1.40001
1.40001
1.40001
1.40001
1.40001
1.40001
1.40001
1.40001
1.40001
1.40001
1.40001
1.40001
1.40001
1.40001
1.40001
1.40001
1.40001
1.40001
1.40001
1.40001
1.40001
1.40001
1.40001
1.40001
1.40001
1.40001
1.40001
1.40001
1.40001
1.40001
1.40001
1.40001
1.40001
1.40001
1.40001
1.40001
1.40001
1.40001
1.40001
1.40001
1.40001
1.40001
1.40001
1.40001
1.40001
1.40001
1.40001
1.40001
1.40002
1.4115
2.01563
4.40185
5.03058
5.00317
4.97129
4.93771
4.90635
4.87449
4.84104
4.80788
4.7744
4.73973
4.70376
4.66635
4.6277
4.58796
4.54694
4.50445
4.46055
4.41505
4.36774
4.31924
4.26907
4.21726
4.16375
4.10814
4.05157
3.99506
3.93991
3.88448
3.83319
3.78589
1.40001
1.40001
1.40001
1.40001
1.40001
1.40001
1.40001
1.40001
1.40001
1.40001
1.40001
1.40001
1.40001
1.40001
1.40001
1.40001
1.40001
1.40001
1.40001
1.40001
1.40001
1.40001
1.40001
1.40001
1.40001
1.40001
1.40001
1.40001
1.40001
1.40001
1.40001
1.40001
1.40001
1.40001
1.40001
1.40001
1.40001
1.40001
1.40001
1.40001
1.40001
1.40001
1.40001
1.40001
1.40001
1.40001
1.40001
1.40001
1.40001
1.40001
1.40001
1.40001
1.40001
1.40001
1.40001
1.40001
1.40001
1.40001
1.40001
1.40001
1.40001
1.40001
1.40001
1.40004
1.42051
2.16549
4.58735
5.02836
4.9959
4.95985
4.91948
4.88127
4.84397
4.80762
4.771
4.73473
4.6981
4.66088
4.62303
4.58447
4.54473
4.50338
4.46032
4.41551
4.36905
4.32124
4.27111
4.21953
4.16752
4.11484
4.06351
4.0139
3.96902
3.92861
3.89771
3.87824
1.40001
1.40001
1.40001
1.40001
1.40001
1.40001
1.40001
1.40001
1.40001
1.40001
1.40001
1.40001
1.40001
1.40001
1.40001
1.40001
1.40001
1.40001
1.40001
1.40001
1.40001
1.40001
1.40001
1.40001
1.40001
1.40001
1.40001
1.40001
1.40001
1.40001
1.40001
1.40001
1.40001
1.40001
1.40001
1.40001
1.40001
1.40001
1.40001
1.40001