/*--------------------------------*- C++ -*----------------------------------*\
  =========                 |
  \\      /  F ield         | OpenFOAM: The Open Source CFD Toolbox
   \\    /   O peration     | Website:  https://openfoam.org
    \\  /    A nd           | Version:  7
     \\/     M anipulation  |
\*---------------------------------------------------------------------------*/
FoamFile
{
    version     2.0;
    format      ascii;
    class       volVectorField;
    location    "8.1";
    object      U;
}
// * * * * * * * * * * * * * * * * * * * * * * * * * * * * * * * * * * * * * //

dimensions      [0 1 -1 0 0 0 0];

internalField   nonuniform List<vector> 
19968
(
(3 4.32382e-18 0)
(3 -4.63618e-16 0)
(3 -6.07966e-16 0)
(3 -1.30127e-16 0)
(3 1.05957e-16 0)
(3 6.85136e-16 0)
(3 1.02658e-15 0)
(3 7.90841e-16 0)
(3 8.55052e-16 0)
(3 1.08262e-15 0)
(3 9.55919e-16 0)
(3 6.97387e-16 0)
(3 7.93802e-16 0)
(3 1.35337e-15 0)
(3 1.27894e-15 0)
(3 1.1462e-15 0)
(3 7.40201e-16 0)
(3 2.67683e-16 0)
(3 3.06885e-16 0)
(3 6.98738e-16 0)
(3 1.00746e-15 0)
(3 6.05754e-16 0)
(3 4.57578e-16 0)
(3 1.68365e-16 0)
(3 -2.83705e-16 0)
(3 -3.08889e-16 0)
(3 4.24184e-16 0)
(3 8.19451e-16 0)
(3 9.62778e-16 0)
(3 8.97062e-16 0)
(3 5.80254e-16 0)
(3 4.39063e-16 0)
(3 1.54341e-16 0)
(3 -4.55972e-16 0)
(3 -6.47788e-16 0)
(3 -1.17358e-15 0)
(3 -1.27454e-15 0)
(3 -1.10032e-15 0)
(3 -9.77412e-16 0)
(3 -1.13084e-15 0)
(3 -1.4962e-15 0)
(3 -2.22157e-15 0)
(3 -2.60714e-15 0)
(3 -2.19711e-15 0)
(3 -2.51275e-15 0)
(3 -2.62414e-15 0)
(3 -1.69102e-15 0)
(3 -1.0752e-15 0)
(2.7888 0.00238591 0)
(0.964165 0.00741843 0)
(0.75939 0.00514938 0)
(0.746154 0.00823572 0)
(0.729119 0.00875939 0)
(0.713651 0.00931988 0)
(0.69759 0.00949692 0)
(0.681637 0.00914156 0)
(0.666088 0.00858145 0)
(0.651163 0.00826183 0)
(0.636739 0.00845569 0)
(0.622256 0.00918505 0)
(0.607092 0.00992355 0)
(0.591544 0.00975683 0)
(0.576544 0.00898139 0)
(0.561942 0.00881656 0)
(0.546865 0.00930095 0)
(0.53103 0.0097589 0)
(0.514833 0.00991403 0)
(0.498615 0.00994045 0)
(0.482517 0.00995325 0)
(0.466691 0.00996386 0)
(0.451215 0.0100405 0)
(0.435947 0.0102022 0)
(0.420624 0.0103659 0)
(0.405031 0.0104772 0)
(0.389049 0.0105713 0)
(0.372668 0.0106896 0)
(0.35601 0.0108229 0)
(0.339251 0.0109459 0)
(0.32249 0.0110577 0)
(0.305714 0.0111713 0)
(0.288866 0.0112898 0)
(0.271934 0.0114082 0)
(0.254956 0.011526 0)
(0.237962 0.0116477 0)
(0.220913 0.0117793 0)
(0.203708 0.0119269 0)
(0.18624 0.0120977 0)
(0.168447 0.012296 0)
(0.150313 0.0125238 0)
(0.131834 0.0127822 0)
(0.112974 0.0130768 0)
(0.0936703 0.0134012 0)
(0.0738568 0.0137655 0)
(0.0534347 0.0141824 0)
(0.0324489 0.0144742 0)
(0.0111388 0.0149104 0)
(3 1.5496e-16 0)
(3 -7.14129e-17 0)
(3 -4.49351e-17 0)
(3 4.37306e-16 0)
(3 8.75918e-16 0)
(3 1.89126e-15 0)
(3 2.07854e-15 0)
(3 1.71155e-15 0)
(3 9.75805e-16 0)
(3 5.9188e-16 0)
(3 2.88545e-16 0)
(3 1.98872e-16 0)
(3 7.93035e-16 0)
(3 9.17178e-16 0)
(3 7.24352e-16 0)
(3 5.3917e-16 0)
(3 2.68933e-16 0)
(3 -6.26546e-16 0)
(3 -1.13879e-15 0)
(3 -9.51865e-16 0)
(3 -1.64438e-16 0)
(3 -2.934e-16 0)
(3 -1.64974e-15 0)
(3 -1.72096e-15 0)
(3 -5.00067e-16 0)
(3 -4.18325e-16 0)
(3 1.91785e-16 0)
(3 1.42321e-15 0)
(3 1.31479e-15 0)
(3 1.14283e-15 0)
(3 8.03663e-16 0)
(3 1.7495e-16 0)
(3 -7.78789e-16 0)
(3 -2.82699e-15 0)
(3 -3.27232e-15 0)
(3 -3.4747e-15 0)
(3 -3.68626e-15 0)
(3 -4.07015e-15 0)
(3 -3.98935e-15 0)
(3 -4.37187e-15 0)
(3 -4.58294e-15 0)
(3 -4.61784e-15 0)
(3 -3.43165e-15 0)
(3 -2.05633e-15 0)
(3 -1.77225e-15 0)
(3 -1.46886e-15 0)
(3 -7.75123e-16 0)
(3 2.15e-16 0)
(2.80378 0.0133771 0)
(0.969355 0.0322311 0)
(0.755862 0.0233969 0)
(0.740172 0.0234356 0)
(0.724228 0.0253459 0)
(0.709166 0.0269891 0)
(0.69372 0.027592 0)
(0.678304 0.026984 0)
(0.662969 0.0258767 0)
(0.647896 0.0251482 0)
(0.633178 0.0256419 0)
(0.61861 0.0275891 0)
(0.603615 0.0295824 0)
(0.58833 0.029249 0)
(0.573459 0.0273732 0)
(0.558629 0.0269403 0)
(0.543396 0.0282791 0)
(0.527498 0.0295133 0)
(0.511344 0.0299328 0)
(0.4952 0.0301011 0)
(0.479117 0.0302912 0)
(0.463211 0.0304398 0)
(0.4476 0.0306923 0)
(0.43221 0.0311311 0)
(0.416808 0.0315726 0)
(0.401167 0.0318848 0)
(0.385145 0.0321562 0)
(0.368725 0.0324925 0)
(0.352034 0.0328701 0)
(0.335248 0.0332237 0)
(0.318467 0.0335537 0)
(0.301678 0.0339001 0)
(0.284826 0.0342749 0)
(0.26789 0.0346639 0)
(0.250902 0.0350578 0)
(0.233892 0.0354587 0)
(0.216834 0.0358754 0)
(0.199649 0.0363239 0)
(0.182248 0.0368335 0)
(0.164574 0.0374284 0)
(0.146607 0.0381221 0)
(0.128341 0.0389148 0)
(0.109751 0.0398127 0)
(0.0907918 0.0407904 0)
(0.0714197 0.0418642 0)
(0.0515599 0.0430836 0)
(0.0312318 0.0439145 0)
(0.0107062 0.0451258 0)
(3 -1.03943e-16 0)
(3 -2.06849e-16 0)
(3 -1.73681e-16 0)
(3 -3.9801e-16 0)
(3 1.74512e-17 0)
(3 2.24729e-16 0)
(3 -4.60836e-16 0)
(3 -1.06979e-15 0)
(3 -1.71974e-15 0)
(3 -2.00175e-15 0)
(3 -1.93226e-15 0)
(3 -1.74202e-15 0)
(3 -1.34526e-15 0)
(3 -1.04514e-15 0)
(3 -1.14915e-15 0)
(3 -6.18181e-16 0)
(3 4.0835e-16 0)
(3 9.54292e-16 0)
(3 7.91688e-16 0)
(3 -9.19305e-17 0)
(3 -3.91091e-16 0)
(3 -6.49724e-16 0)
(3 -1.33427e-15 0)
(3 -1.24699e-15 0)
(3 -9.31173e-16 0)
(3 -9.40864e-16 0)
(3 -1.04972e-15 0)
(3 -7.48065e-16 0)
(3 -9.63717e-16 0)
(3 -2.29827e-16 0)
(3 4.63684e-16 0)
(3 5.75486e-16 0)
(3 4.27236e-16 0)
(3 -4.57907e-16 0)
(3 -8.18542e-16 0)
(3 -1.58129e-15 0)
(3 -2.31481e-15 0)
(3 -3.59641e-15 0)
(3 -4.22161e-15 0)
(3 -4.09922e-15 0)
(3 -4.00551e-15 0)
(3 -2.38929e-15 0)
(3 -1.56377e-15 0)
(3 -1.58194e-15 0)
(3 -6.29787e-16 0)
(3 9.81723e-16 0)
(3 1.89265e-15 0)
(3 1.4163e-15 0)
(2.84175 0.0221311 0)
(0.986853 0.0539992 0)
(0.760687 0.0434419 0)
(0.743772 0.0411443 0)
(0.727125 0.0435656 0)
(0.711656 0.0457221 0)
(0.696227 0.0465904 0)
(0.680862 0.0458586 0)
(0.665383 0.0445165 0)
(0.649888 0.0436875 0)
(0.634613 0.0444783 0)
(0.619747 0.0473536 0)
(0.604724 0.0502017 0)
(0.589522 0.0497079 0)
(0.574637 0.0470976 0)
(0.559434 0.0466365 0)
(0.54391 0.0487685 0)
(0.527768 0.0506114 0)
(0.511463 0.0511344 0)
(0.495234 0.0513938 0)
(0.479055 0.0518231 0)
(0.462982 0.0522103 0)
(0.447135 0.0526937 0)
(0.431495 0.0534038 0)
(0.415874 0.0541115 0)
(0.400046 0.0546472 0)
(0.383856 0.055137 0)
(0.367281 0.0557185 0)
(0.350444 0.0563444 0)
(0.333518 0.0569166 0)
(0.316609 0.0574424 0)
(0.299713 0.05799 0)
(0.282778 0.0585827 0)
(0.265777 0.0592021 0)
(0.24873 0.0598375 0)
(0.231664 0.0604948 0)
(0.214569 0.0611862 0)
(0.197386 0.0619295 0)
(0.180036 0.0627617 0)
(0.162451 0.0637146 0)
(0.144589 0.0648099 0)
(0.126429 0.0660505 0)
(0.107957 0.0674484 0)
(0.0891509 0.0689662 0)
(0.0699974 0.0706155 0)
(0.050456 0.0725034 0)
(0.0305015 0.0737362 0)
(0.0104558 0.07558 0)
(3 -1.96668e-16 0)
(3 -5.87127e-17 0)
(3 3.60629e-17 0)
(3 -2.2387e-16 0)
(3 -6.39903e-16 0)
(3 -7.84923e-16 0)
(3 -9.84481e-16 0)
(3 -8.28425e-16 0)
(3 -6.97819e-16 0)
(3 -7.74113e-16 0)
(3 -1.07756e-15 0)
(3 -1.24981e-15 0)
(3 -1.48456e-15 0)
(3 -1.32337e-15 0)
(3 -5.48752e-16 0)
(3 2.53082e-16 0)
(3 1.69956e-15 0)
(3 1.59365e-15 0)
(3 1.47665e-15 0)
(3 5.52954e-16 0)
(3 -2.33557e-16 0)
(3 -8.34569e-16 0)
(3 -1.10152e-15 0)
(3 -1.06461e-15 0)
(3 -1.35268e-15 0)
(3 -1.65443e-15 0)
(3 -1.39279e-15 0)
(3 -1.382e-15 0)
(3 -1.07457e-15 0)
(3 -1.03568e-15 0)
(3 -8.4849e-16 0)
(3 1.64751e-16 0)
(3 4.4167e-16 0)
(3 7.81612e-16 0)
(3 4.95273e-16 0)
(3 -7.30821e-16 0)
(3 -2.847e-15 0)
(3 -3.15546e-15 0)
(3 -3.2588e-15 0)
(3 -2.0514e-15 0)
(3 -1.30643e-15 0)
(3 -8.76435e-16 0)
(3 -1.17236e-15 0)
(3 -9.79962e-16 0)
(3 -7.14824e-16 0)
(3 -3.83059e-16 0)
(3 4.59709e-16 0)
(3 3.01379e-16 0)
(2.89212 0.0256043 0)
(1.01186 0.0727285 0)
(0.762449 0.0638556 0)
(0.744978 0.0600943 0)
(0.728894 0.0627277 0)
(0.713724 0.0650072 0)
(0.698829 0.0658793 0)
(0.683844 0.0652635 0)
(0.668412 0.0641736 0)
(0.65265 0.0634884 0)
(0.636991 0.0644713 0)
(0.62202 0.0678797 0)
(0.607207 0.0712061 0)
(0.592302 0.0707126 0)
(0.57754 0.0678689 0)
(0.562145 0.0676241 0)
(0.546491 0.0705035 0)
(0.530197 0.0728571 0)
(0.51376 0.0734036 0)
(0.49742 0.0737462 0)
(0.481125 0.0745018 0)
(0.464873 0.0752663 0)
(0.44877 0.0760742 0)
(0.432847 0.0770749 0)
(0.416961 0.0780548 0)
(0.400888 0.0788525 0)
(0.384457 0.0796124 0)
(0.367632 0.080472 0)
(0.350523 0.0813593 0)
(0.333292 0.0821514 0)
(0.316043 0.0828588 0)
(0.298789 0.0835714 0)
(0.281489 0.0843247 0)
(0.264122 0.0851035 0)
(0.246713 0.0859048 0)
(0.229313 0.0867462 0)
(0.211953 0.0876498 0)
(0.194621 0.0886376 0)
(0.177266 0.0897539 0)
(0.159818 0.0910374 0)
(0.142202 0.0925198 0)
(0.124355 0.0942092 0)
(0.106229 0.0961191 0)
(0.0877783 0.0982024 0)
(0.0689659 0.100435 0)
(0.0497679 0.102996 0)
(0.0300821 0.104607 0)
(0.0103522 0.10704 0)
(3 9.99221e-17 0)
(3 7.59377e-16 0)
(3 7.5002e-16 0)
(3 7.39687e-16 0)
(3 5.04666e-16 0)
(3 1.34315e-16 0)
(3 5.44389e-16 0)
(3 1.04719e-15 0)
(3 1.21727e-15 0)
(3 9.16342e-16 0)
(3 2.71691e-16 0)
(3 -3.77849e-16 0)
(3 -5.62689e-16 0)
(3 -3.34878e-16 0)
(3 3.41546e-16 0)
(3 1.06006e-15 0)
(3 8.85297e-16 0)
(3 1.1892e-15 0)
(3 9.28664e-16 0)
(3 9.07757e-16 0)
(3 4.12334e-16 0)
(3 2.13228e-16 0)
(3 2.05816e-16 0)
(3 5.83806e-17 0)
(3 -1.95688e-16 0)
(3 -2.35345e-16 0)
(3 3.15335e-16 0)
(3 4.92105e-16 0)
(3 -1.2126e-17 0)
(3 -5.58537e-16 0)
(3 -4.09615e-16 0)
(3 -3.56372e-16 0)
(3 -1.49174e-16 0)
(3 -2.44487e-16 0)
(3 5.84672e-17 0)
(3 2.55806e-17 0)
(3 -1.61193e-15 0)
(3 -1.91017e-15 0)
(3 -2.0683e-15 0)
(3 -1.31049e-15 0)
(3 -8.18402e-16 0)
(3 -9.89494e-16 0)
(3 -1.58159e-15 0)
(3 -1.57877e-15 0)
(3 -1.54604e-15 0)
(3 -1.65491e-15 0)
(3 -1.7458e-15 0)
(3 -1.24248e-15 0)
(2.94303 0.0296631 0)
(1.03998 0.0987329 0)
(0.763479 0.0854028 0)
(0.747091 0.0795408 0)
(0.732411 0.0821545 0)
(0.718199 0.0842188 0)
(0.704182 0.0851983 0)
(0.689716 0.0851592 0)
(0.674423 0.084968 0)
(0.658427 0.0848505 0)
(0.642316 0.0859319 0)
(0.627048 0.089353 0)
(0.612353 0.0926782 0)
(0.597809 0.0922671 0)
(0.583309 0.089631 0)
(0.568026 0.0898592 0)
(0.552553 0.0934747 0)
(0.536372 0.0963215 0)
(0.520008 0.0968782 0)
(0.503734 0.0972886 0)
(0.487523 0.098426 0)
(0.471313 0.0997196 0)
(0.455155 0.101005 0)
(0.4391 0.102377 0)
(0.423056 0.103686 0)
(0.406816 0.10484 0)
(0.390189 0.105993 0)
(0.373118 0.107253 0)
(0.35569 0.108522 0)
(0.338046 0.10966 0)
(0.320284 0.110668 0)
(0.302424 0.111641 0)
(0.284439 0.112618 0)
(0.266313 0.113581 0)
(0.248078 0.114531 0)
(0.22981 0.115487 0)
(0.211593 0.116475 0)
(0.19348 0.117516 0)
(0.175477 0.118667 0)
(0.157549 0.119994 0)
(0.139633 0.121573 0)
(0.121663 0.123456 0)
(0.103591 0.125686 0)
(0.0853665 0.128235 0)
(0.0669241 0.131004 0)
(0.0482528 0.134257 0)
(0.0291117 0.136273 0)
(0.0100423 0.139301 0)
(3 2.20942e-16 0)
(3 2.805e-16 0)
(3 6.16946e-16 0)
(3 7.54243e-16 0)
(3 6.74809e-16 0)
(3 6.15546e-16 0)
(3 6.52364e-16 0)
(3 9.51675e-17 0)
(3 1.15068e-16 0)
(3 2.31872e-16 0)
(3 7.46414e-16 0)
(3 5.14092e-16 0)
(3 1.56006e-16 0)
(3 5.76095e-16 0)
(3 5.74709e-16 0)
(3 9.27386e-16 0)
(3 1.37514e-16 0)
(3 -2.30367e-16 0)
(3 -2.12122e-16 0)
(3 -2.59544e-16 0)
(3 -2.67553e-16 0)
(3 2.54634e-16 0)
(3 9.4457e-16 0)
(3 8.91769e-16 0)
(3 8.83078e-16 0)
(3 1.12488e-15 0)
(3 1.32484e-15 0)
(3 1.51258e-15 0)
(3 1.85962e-15 0)
(3 1.85638e-15 0)
(3 1.77411e-15 0)
(3 1.93524e-15 0)
(3 1.6383e-15 0)
(3 9.61414e-16 0)
(3 5.30614e-16 0)
(3 2.94953e-16 0)
(3 -5.72027e-17 0)
(3 -1.13149e-15 0)
(3 -9.55371e-16 0)
(3 -8.80506e-16 0)
(3 -1.11481e-15 0)
(3 -1.17645e-15 0)
(3 -1.20756e-15 0)
(3 -1.60906e-15 0)
(3 -2.84328e-15 0)
(3 -3.31085e-15 0)
(3 -3.81e-15 0)
(3 -3.6993e-15 0)
(3.00063 0.00313712 0)
(1.10839 0.116319 0)
(0.775687 0.099365 0)
(0.757207 0.0977669 0)
(0.742521 0.100565 0)
(0.728231 0.102515 0)
(0.714536 0.103877 0)
(0.700454 0.104793 0)
(0.685491 0.105907 0)
(0.669516 0.106986 0)
(0.653105 0.10835 0)
(0.637445 0.111212 0)
(0.622684 0.113799 0)
(0.608451 0.113189 0)
(0.594245 0.110954 0)
(0.579271 0.111809 0)
(0.564179 0.116162 0)
(0.548265 0.119558 0)
(0.532066 0.12014 0)
(0.515941 0.120523 0)
(0.499934 0.121967 0)
(0.483946 0.123866 0)
(0.467937 0.125792 0)
(0.45194 0.127655 0)
(0.435915 0.129361 0)
(0.41969 0.130967 0)
(0.403062 0.132657 0)
(0.385943 0.134479 0)
(0.368391 0.13631 0)
(0.350521 0.138008 0)
(0.332418 0.139558 0)
(0.314109 0.14104 0)
(0.295573 0.142487 0)
(0.276793 0.143881 0)
(0.25779 0.145219 0)
(0.238639 0.146519 0)
(0.21944 0.147791 0)
(0.200285 0.149033 0)
(0.18123 0.150287 0)
(0.162283 0.151628 0)
(0.143413 0.153177 0)
(0.124575 0.155051 0)
(0.105741 0.157336 0)
(0.0868861 0.160081 0)
(0.0679312 0.163113 0)
(0.048906 0.166859 0)
(0.029438 0.169151 0)
(0.010166 0.17266 0)
(3 -1.84683e-16 0)
(3 -1.98185e-16 0)
(3 -2.1615e-17 0)
(3 6.71273e-17 0)
(3 -2.01223e-16 0)
(3 -1.88229e-16 0)
(3 -1.35233e-16 0)
(3 -2.08432e-16 0)
(3 -3.19594e-17 0)
(3 4.45315e-16 0)
(3 9.04842e-16 0)
(3 1.2474e-15 0)
(3 1.06284e-15 0)
(3 8.56848e-16 0)
(3 1.76466e-16 0)
(3 -3.50606e-16 0)
(3 -7.97662e-16 0)
(3 -1.3164e-15 0)
(3 -1.5793e-16 0)
(3 6.2825e-16 0)
(3 7.68682e-16 0)
(3 9.59474e-16 0)
(3 7.46823e-16 0)
(3 3.69688e-16 0)
(3 7.46413e-16 0)
(3 1.20157e-15 0)
(3 8.98734e-16 0)
(3 4.11348e-16 0)
(3 7.16642e-16 0)
(3 1.14132e-15 0)
(3 1.02463e-15 0)
(3 1.46506e-15 0)
(3 1.72524e-15 0)
(3 1.71868e-15 0)
(3 6.7473e-16 0)
(3 -3.9609e-16 0)
(3 -9.94732e-16 0)
(3 -1.1475e-15 0)
(3 -1.20071e-15 0)
(3 -1.43575e-15 0)
(3 -1.35581e-15 0)
(3 -1.49388e-15 0)
(3 -1.60044e-15 0)
(3 -1.40225e-15 0)
(3 -1.51738e-15 0)
(3 -2.09977e-15 0)
(3 -2.05461e-15 0)
(3 -1.75509e-15 0)
(3.00004 1.14774e-05 0)
(1.22277 0.137182 0)
(0.777326 0.120688 0)
(0.75251 0.122087 0)
(0.73737 0.123064 0)
(0.722874 0.123793 0)
(0.709323 0.125052 0)
(0.695466 0.12691 0)
(0.680813 0.129614 0)
(0.665163 0.132345 0)
(0.649051 0.134228 0)
(0.633652 0.136084 0)
(0.619318 0.137407 0)
(0.605707 0.136343 0)
(0.591989 0.134491 0)
(0.577521 0.136068 0)
(0.563049 0.14128 0)
(0.547676 0.145424 0)
(0.531885 0.146187 0)
(0.516124 0.146513 0)
(0.500516 0.14817 0)
(0.485013 0.150691 0)
(0.469491 0.153397 0)
(0.453919 0.155881 0)
(0.438293 0.15804 0)
(0.422497 0.160137 0)
(0.406324 0.162426 0)
(0.389642 0.164881 0)
(0.37247 0.167335 0)
(0.354897 0.169649 0)
(0.337002 0.171794 0)
(0.31882 0.173821 0)
(0.300348 0.175753 0)
(0.281575 0.177575 0)
(0.262511 0.179287 0)
(0.243206 0.180905 0)
(0.223747 0.182428 0)
(0.204229 0.183833 0)
(0.184736 0.185144 0)
(0.165313 0.18644 0)
(0.145962 0.187872 0)
(0.126653 0.189621 0)
(0.107366 0.191803 0)
(0.0881014 0.194586 0)
(0.0687721 0.197699 0)
(0.0494794 0.201817 0)
(0.0297321 0.204316 0)
(0.0102823 0.208236 0)
(3 -1.83402e-16 0)
(3 -5.30958e-16 0)
(3 -6.42458e-16 0)
(3 -6.3635e-16 0)
(3 -4.89976e-16 0)
(3 -1.43648e-16 0)
(3 1.33419e-16 0)
(3 4.16578e-16 0)
(3 8.40657e-16 0)
(3 7.92212e-16 0)
(3 8.43004e-16 0)
(3 1.39125e-15 0)
(3 1.94612e-15 0)
(3 1.33366e-15 0)
(3 8.50474e-16 0)
(3 2.43292e-16 0)
(3 -7.92499e-17 0)
(3 -2.40632e-16 0)
(3 1.358e-15 0)
(3 2.50858e-15 0)
(3 2.68774e-15 0)
(3 2.27727e-15 0)
(3 2.06937e-15 0)
(3 1.86039e-15 0)
(3 2.22203e-15 0)
(3 1.44446e-15 0)
(3 5.08459e-16 0)
(3 -7.36325e-16 0)
(3 -8.697e-16 0)
(3 -2.48287e-16 0)
(3 4.2702e-16 0)
(3 7.50282e-16 0)
(3 1.51852e-15 0)
(3 2.07832e-15 0)
(3 1.5998e-15 0)
(3 9.14768e-16 0)
(3 -1.07126e-17 0)
(3 -2.25095e-16 0)
(3 -6.05308e-16 0)
(3 -4.76042e-16 0)
(3 -2.54333e-16 0)
(3 -9.5482e-16 0)
(3 -1.71183e-15 0)
(3 -1.80789e-15 0)
(3 1.49917e-16 0)
(3 7.74289e-16 0)
(3 6.82061e-16 0)
(3 -4.39959e-16 0)
(3 2.05368e-08 0)
(1.42024 0.166614 0)
(0.791466 0.146683 0)
(0.754036 0.149001 0)
(0.737463 0.146044 0)
(0.722067 0.145056 0)
(0.708156 0.146072 0)
(0.694238 0.14885 0)
(0.679784 0.153144 0)
(0.664481 0.15747 0)
(0.648723 0.159784 0)
(0.633636 0.160424 0)
(0.619637 0.160199 0)
(0.606435 0.158545 0)
(0.593058 0.157083 0)
(0.579119 0.159385 0)
(0.565425 0.165405 0)
(0.550877 0.17037 0)
(0.535805 0.171467 0)
(0.520728 0.171654 0)
(0.505793 0.173254 0)
(0.491054 0.176192 0)
(0.476319 0.179691 0)
(0.461437 0.182939 0)
(0.446412 0.185641 0)
(0.431211 0.188268 0)
(0.415635 0.191235 0)
(0.399489 0.194461 0)
(0.382733 0.197718 0)
(0.365442 0.200879 0)
(0.347695 0.203903 0)
(0.329541 0.206802 0)
(0.310995 0.209572 0)
(0.292056 0.212185 0)
(0.272724 0.214636 0)
(0.253028 0.216928 0)
(0.233029 0.219045 0)
(0.212821 0.220934 0)
(0.192515 0.222588 0)
(0.172206 0.224072 0)
(0.151938 0.225545 0)
(0.131707 0.227247 0)
(0.111501 0.229296 0)
(0.0913493 0.23203 0)
(0.0711657 0.235054 0)
(0.0511369 0.239416 0)
(0.0306752 0.242056 0)
(0.0105992 0.246308 0)
(3 2.33418e-16 0)
(3 2.96027e-16 0)
(3 2.05399e-16 0)
(3 9.98715e-17 0)
(3 3.81119e-16 0)
(3 5.19102e-16 0)
(3 4.0357e-16 0)
(3 6.22221e-16 0)
(3 7.03574e-16 0)
(3 7.47406e-16 0)
(3 5.72342e-16 0)
(3 6.55868e-16 0)
(3 9.54694e-16 0)
(3 9.67449e-16 0)
(3 8.23994e-16 0)
(3 9.97333e-17 0)
(3 -2.49597e-16 0)
(3 1.62191e-16 0)
(3 2.37581e-16 0)
(3 2.01638e-16 0)
(3 1.97078e-16 0)
(3 1.81625e-16 0)
(3 3.12683e-17 0)
(3 -1.72127e-17 0)
(3 -4.57527e-16 0)
(3 -1.06592e-15 0)
(3 -1.7331e-15 0)
(3 -1.89122e-15 0)
(3 -1.54228e-15 0)
(3 -3.89182e-16 0)
(3 5.83957e-16 0)
(3 8.12979e-16 0)
(3 3.86953e-16 0)
(3 2.98406e-16 0)
(3 -8.23305e-17 0)
(3 -1.65939e-16 0)
(3 1.46415e-16 0)
(3 -4.84858e-16 0)
(3 -8.65515e-16 0)
(3 -6.23183e-16 0)
(3 -3.4813e-16 0)
(3 -1.19589e-16 0)
(3 -1.96416e-16 0)
(3 -6.32139e-16 0)
(3 2.22627e-16 0)
(3 1.00078e-15 0)
(3 1.2711e-15 0)
(3 -8.63649e-17 0)
(3 4.03461e-11 0)
(1.727 0.18774 0)
(0.821186 0.174281 0)
(0.760906 0.18016 0)
(0.74349 0.171682 0)
(0.726147 0.168144 0)
(0.710947 0.168415 0)
(0.696227 0.171789 0)
(0.681598 0.177654 0)
(0.666408 0.18363 0)
(0.65067 0.186557 0)
(0.635463 0.186285 0)
(0.62113 0.184704 0)
(0.607423 0.18242 0)
(0.593545 0.181012 0)
(0.579379 0.183629 0)
(0.56585 0.190167 0)
(0.551756 0.19588 0)
(0.537101 0.197514 0)
(0.522404 0.197655 0)
(0.507791 0.199006 0)
(0.493492 0.202148 0)
(0.479404 0.206469 0)
(0.465227 0.21073 0)
(0.450889 0.214183 0)
(0.436458 0.21742 0)
(0.421775 0.221146 0)
(0.406545 0.225289 0)
(0.390618 0.229516 0)
(0.374037 0.233691 0)
(0.356887 0.237788 0)
(0.33922 0.241788 0)
(0.321056 0.245642 0)
(0.302396 0.249298 0)
(0.283232 0.252732 0)
(0.263564 0.25593 0)
(0.243417 0.258861 0)
(0.222853 0.261454 0)
(0.201988 0.263675 0)
(0.180944 0.265567 0)
(0.159808 0.267268 0)
(0.138605 0.269054 0)
(0.117335 0.271001 0)
(0.0960751 0.273647 0)
(0.07475 0.276429 0)
(0.0536539 0.280898 0)
(0.0321512 0.28361 0)
(0.0110905 0.288129 0)
(3 5.35069e-18 0)
(3 1.82294e-16 0)
(3 2.13401e-16 0)
(3 5.71901e-18 0)
(3 -2.0067e-16 0)
(3 -3.25991e-16 0)
(3 -4.28628e-16 0)
(3 -2.88597e-16 0)
(3 -4.25001e-17 0)
(3 4.15847e-16 0)
(3 4.98503e-16 0)
(3 5.85124e-16 0)
(3 3.89122e-16 0)
(3 1.36382e-16 0)
(3 -4.69958e-17 0)
(3 -6.10021e-17 0)
(3 -1.67164e-16 0)
(3 -3.68389e-16 0)
(3 -7.39599e-16 0)
(3 -1.37311e-15 0)
(3 -1.30436e-15 0)
(3 -1.26928e-15 0)
(3 -1.72506e-15 0)
(3 -2.16441e-15 0)
(3 -2.43684e-15 0)
(3 -2.28603e-15 0)
(3 -1.98534e-15 0)
(3 -1.5868e-15 0)
(3 -1.43373e-15 0)
(3 -1.45102e-15 0)
(3 -1.48812e-15 0)
(3 -1.39442e-15 0)
(3 -1.61233e-15 0)
(3 -2.13989e-15 0)
(3 -1.72556e-15 0)
(3 -1.62145e-15 0)
(3 -5.78273e-16 0)
(3 -4.58377e-16 0)
(3 -3.9165e-16 0)
(3 -4.78096e-16 0)
(3 -2.26614e-16 0)
(3 -8.15394e-17 0)
(3 4.98009e-16 0)
(3 2.45706e-16 0)
(3 8.56627e-16 0)
(3 2.31928e-15 0)
(3 3.5807e-15 0)
(3 2.03721e-15 0)
(3 7.48618e-14 0)
(2.14194 0.194318 0)
(0.859682 0.212845 0)
(0.759236 0.213414 0)
(0.744916 0.202551 0)
(0.728062 0.19672 0)
(0.712937 0.195295 0)
(0.698519 0.198267 0)
(0.684762 0.204696 0)
(0.670784 0.211736 0)
(0.655953 0.215397 0)
(0.641165 0.214911 0)
(0.62675 0.212657 0)
(0.612499 0.21003 0)
(0.597973 0.208384 0)
(0.58329 0.210636 0)
(0.569584 0.217021 0)
(0.555721 0.223144 0)
(0.541169 0.225453 0)
(0.526318 0.225732 0)
(0.511309 0.22657 0)
(0.496558 0.229301 0)
(0.482287 0.233956 0)
(0.46818 0.239089 0)
(0.453979 0.243244 0)
(0.439822 0.246865 0)
(0.42566 0.251114 0)
(0.411153 0.25609 0)
(0.396012 0.261322 0)
(0.380235 0.266591 0)
(0.363921 0.271899 0)
(0.347111 0.27722 0)
(0.32978 0.282463 0)
(0.31187 0.287532 0)
(0.293321 0.292375 0)
(0.27408 0.296956 0)
(0.254128 0.301214 0)
(0.2335 0.305043 0)
(0.21231 0.308358 0)
(0.190712 0.311138 0)
(0.168824 0.313469 0)
(0.146697 0.315654 0)
(0.124331 0.317692 0)
(0.101847 0.320326 0)
(0.0791966 0.32278 0)
(0.0567877 0.327214 0)
(0.0340111 0.329909 0)
(0.0116904 0.334654 0)
(3 -6.94532e-17 0)
(3 5.27872e-17 0)
(3 9.51735e-17 0)
(3 1.52024e-17 0)
(3 -3.42025e-16 0)
(3 -3.42352e-16 0)
(3 -3.07465e-16 0)
(3 -1.12037e-16 0)
(3 1.22988e-16 0)
(3 2.68614e-17 0)
(3 3.17585e-16 0)
(3 1.62113e-16 0)
(3 -2.57741e-16 0)
(3 -3.56646e-16 0)
(3 -1.83085e-16 0)
(3 1.99574e-16 0)
(3 -2.88014e-16 0)
(3 -5.31169e-16 0)
(3 -9.54903e-16 0)
(3 -9.10933e-16 0)
(3 -6.12404e-16 0)
(3 -6.92532e-16 0)
(3 -6.528e-16 0)
(3 -7.2761e-16 0)
(3 -6.20549e-16 0)
(3 -4.10698e-16 0)
(3 -6.20415e-16 0)
(3 -1.02923e-15 0)
(3 -1.65058e-15 0)
(3 -1.99934e-15 0)
(3 -2.13927e-15 0)
(3 -2.59353e-15 0)
(3 -2.14309e-15 0)
(3 -8.53829e-16 0)
(3 -1.37194e-16 0)
(3 8.14133e-17 0)
(3 4.0618e-18 0)
(3 1.97907e-16 0)
(3 5.3344e-16 0)
(3 4.91884e-16 0)
(3 7.18044e-17 0)
(3 8.94834e-18 0)
(3 1.13582e-16 0)
(3 4.86647e-16 0)
(3 1.58347e-15 0)
(3 1.33041e-15 0)
(3 1.35327e-15 0)
(3 1.32675e-15 0)
(3 5.31279e-16 0)
(2.66796 0.176096 0)
(0.95936 0.260003 0)
(0.783264 0.239665 0)
(0.7757 0.226668 0)
(0.756963 0.222051 0)
(0.740472 0.218784 0)
(0.723787 0.221078 0)
(0.708232 0.227705 0)
(0.693358 0.235912 0)
(0.67808 0.241419 0)
(0.662755 0.242389 0)
(0.647741 0.240985 0)
(0.632672 0.239165 0)
(0.617226 0.237771 0)
(0.601534 0.239459 0)
(0.586872 0.245301 0)
(0.572656 0.251883 0)
(0.557768 0.255626 0)
(0.542223 0.257026 0)
(0.526151 0.257877 0)
(0.510052 0.260025 0)
(0.494573 0.264591 0)
(0.479682 0.270425 0)
(0.464805 0.275343 0)
(0.449969 0.279178 0)
(0.435268 0.283523 0)
(0.420461 0.288929 0)
(0.405164 0.294875 0)
(0.389305 0.300976 0)
(0.373045 0.307259 0)
(0.356474 0.313762 0)
(0.339557 0.320385 0)
(0.322186 0.326979 0)
(0.304255 0.333442 0)
(0.285669 0.339689 0)
(0.266355 0.345615 0)
(0.246274 0.351068 0)
(0.225443 0.355918 0)
(0.203909 0.360103 0)
(0.181697 0.363654 0)
(0.158823 0.366916 0)
(0.135248 0.369738 0)
(0.111165 0.372968 0)
(0.0865759 0.375493 0)
(0.0620825 0.380023 0)
(0.037181 0.382728 0)
(0.0127431 0.387768 0)
(3 -6.15087e-17 0)
(3 -5.94651e-17 0)
(3 -1.36346e-16 0)
(3 -1.78333e-16 0)
(3 -1.8166e-16 0)
(3 -1.95174e-16 0)
(3 -1.63284e-16 0)
(3 -9.72354e-17 0)
(3 3.60343e-17 0)
(3 -2.1831e-16 0)
(3 -7.21293e-16 0)
(3 -7.97817e-16 0)
(3 -7.33585e-16 0)
(3 -6.12303e-16 0)
(3 -7.10429e-16 0)
(3 -7.38551e-16 0)
(3 -8.41069e-16 0)
(3 -8.93058e-16 0)
(3 -1.05521e-15 0)
(3 -1.01398e-15 0)
(3 -9.17671e-16 0)
(3 -1.09365e-15 0)
(3 -6.69548e-16 0)
(3 2.28765e-17 0)
(3 3.91992e-16 0)
(3 3.92202e-16 0)
(3 1.58765e-16 0)
(3 -7.2023e-17 0)
(3 -1.0861e-15 0)
(3 -1.42539e-15 0)
(3 -1.35807e-15 0)
(3 -1.3227e-15 0)
(3 -8.16443e-16 0)
(3 3.14548e-16 0)
(3 1.15354e-15 0)
(3 1.52453e-15 0)
(3 1.3541e-15 0)
(3 1.16083e-15 0)
(3 8.77986e-16 0)
(3 5.84752e-16 0)
(3 2.06078e-16 0)
(3 -2.61751e-17 0)
(3 -3.18168e-16 0)
(3 -1.426e-16 0)
(3 -6.03541e-17 0)
(3 -2.7708e-16 0)
(3 -4.69739e-16 0)
(3 6.89662e-16 0)
(3 9.63361e-16 0)
(3.02133 0.0110115 0)
(1.14614 0.282489 0)
(0.810413 0.235451 0)
(0.798515 0.248367 0)
(0.782846 0.25111 0)
(0.766897 0.25096 0)
(0.749856 0.252548 0)
(0.733369 0.257024 0)
(0.718256 0.263342 0)
(0.703798 0.268191 0)
(0.68948 0.269573 0)
(0.675293 0.268868 0)
(0.660795 0.268085 0)
(0.645584 0.267461 0)
(0.629726 0.268512 0)
(0.614451 0.273099 0)
(0.600112 0.279498 0)
(0.58556 0.284811 0)
(0.570135 0.288282 0)
(0.55373 0.290129 0)
(0.536813 0.291777 0)
(0.520215 0.295767 0)
(0.504455 0.302106 0)
(0.488853 0.308309 0)
(0.473086 0.312956 0)
(0.45737 0.317532 0)
(0.441667 0.323328 0)
(0.425616 0.330027 0)
(0.409022 0.336998 0)
(0.392064 0.344188 0)
(0.374917 0.351737 0)
(0.357577 0.359643 0)
(0.339892 0.367759 0)
(0.321684 0.375974 0)
(0.302795 0.384203 0)
(0.283099 0.392343 0)
(0.262496 0.400213 0)
(0.240949 0.407602 0)
(0.218466 0.414348 0)
(0.195072 0.420232 0)
(0.170905 0.425531 0)
(0.145958 0.429909 0)
(0.120318 0.434278 0)
(0.0939934 0.437244 0)
(0.0673942 0.44183 0)
(0.0403179 0.444344 0)
(0.0136561 0.449438 0)
(3 -1.67872e-17 0)
(3 -5.05215e-16 0)
(3 -7.14925e-16 0)
(3 -7.172e-16 0)
(3 -5.9243e-16 0)
(3 -7.20077e-16 0)
(3 -7.2197e-16 0)
(3 -9.10629e-16 0)
(3 -1.0686e-15 0)
(3 -1.07998e-15 0)
(3 -1.03303e-15 0)
(3 -8.74502e-16 0)
(3 -3.54606e-16 0)
(3 2.01916e-17 0)
(3 9.69506e-18 0)
(3 3.69841e-17 0)
(3 1.18395e-17 0)
(3 -5.40165e-17 0)
(3 -2.2519e-16 0)
(3 -1.11986e-15 0)
(3 -1.55511e-15 0)
(3 -1.74609e-15 0)
(3 -1.73218e-15 0)
(3 -1.68558e-16 0)
(3 1.00685e-15 0)
(3 1.28816e-15 0)
(3 8.2706e-16 0)
(3 6.16403e-16 0)
(3 2.63017e-16 0)
(3 -1.34616e-16 0)
(3 -3.20802e-16 0)
(3 -4.22457e-16 0)
(3 -4.52003e-16 0)
(3 -4.57404e-16 0)
(3 5.6011e-16 0)
(3 9.17784e-16 0)
(3 1.23092e-15 0)
(3 1.36225e-15 0)
(3 1.31687e-15 0)
(3 1.09115e-15 0)
(3 8.76663e-16 0)
(3 8.00461e-16 0)
(3 8.51809e-16 0)
(3 8.64755e-16 0)
(3 3.38389e-16 0)
(3 3.16651e-16 0)
(3 5.92525e-16 0)
(3 1.07563e-15 0)
(3 6.34218e-16 0)
(3.00033 1.08176e-05 0)
(1.55775 0.311762 0)
(0.824127 0.275361 0)
(0.783798 0.279336 0)
(0.769815 0.285029 0)
(0.755124 0.286884 0)
(0.740457 0.288606 0)
(0.72613 0.290579 0)
(0.712995 0.293931 0)
(0.700846 0.297737 0)
(0.688808 0.300024 0)
(0.676645 0.300855 0)
(0.664071 0.301927 0)
(0.650576 0.303239 0)
(0.636027 0.304829 0)
(0.621361 0.308302 0)
(0.607571 0.313831 0)
(0.594389 0.320033 0)
(0.580901 0.325542 0)
(0.566364 0.329096 0)
(0.550881 0.330875 0)
(0.535122 0.333998 0)
(0.520071 0.340087 0)
(0.505476 0.347246 0)
(0.490517 0.352936 0)
(0.475306 0.357709 0)
(0.460025 0.363488 0)
(0.444483 0.370555 0)
(0.428341 0.378185 0)
(0.411648 0.386062 0)
(0.394654 0.394368 0)
(0.377488 0.403267 0)
(0.360071 0.412699 0)
(0.342221 0.422561 0)
(0.323758 0.432747 0)
(0.30458 0.443175 0)
(0.284614 0.453615 0)
(0.263761 0.463685 0)
(0.24196 0.473156 0)
(0.218983 0.481513 0)
(0.19484 0.489136 0)
(0.169091 0.495826 0)
(0.141772 0.503014 0)
(0.112138 0.509155 0)
(0.0808594 0.515789 0)
(0.0483275 0.519138 0)
(0.0161232 0.524066 0)
(3 5.25788e-17 0)
(3 1.22379e-17 0)
(3 -4.02407e-17 0)
(3 -5.69699e-17 0)
(3 -4.7503e-17 0)
(3 -1.00661e-16 0)
(3 5.99143e-17 0)
(3 -1.23556e-16 0)
(3 -7.32117e-16 0)
(3 -8.94699e-16 0)
(3 -6.77535e-16 0)
(3 -2.60509e-16 0)
(3 -6.6028e-17 0)
(3 1.81936e-16 0)
(3 6.91195e-16 0)
(3 7.91192e-16 0)
(3 6.53727e-16 0)
(3 -7.97041e-17 0)
(3 -4.71495e-16 0)
(3 -7.5278e-16 0)
(3 -1.19774e-15 0)
(3 -1.36809e-15 0)
(3 -1.80974e-15 0)
(3 -1.24201e-15 0)
(3 -9.00583e-16 0)
(3 -8.97834e-16 0)
(3 -1.19012e-16 0)
(3 5.19289e-16 0)
(3 6.85903e-16 0)
(3 3.72597e-16 0)
(3 5.99948e-17 0)
(3 6.5603e-17 0)
(3 -2.24818e-16 0)
(3 -5.4561e-16 0)
(3 -1.16079e-16 0)
(3 9.40238e-17 0)
(3 8.68589e-16 0)
(3 1.37556e-15 0)
(3 2.47479e-15 0)
(3 2.71607e-15 0)
(3 2.44938e-15 0)
(3 2.62312e-15 0)
(3 3.3789e-15 0)
(3 3.60302e-15 0)
(3 2.11931e-15 0)
(3 1.73037e-15 0)
(3 7.08507e-16 0)
(3 9.55414e-16 0)
(3 -1.18952e-16 0)
(3 1.89833e-08 0)
(2.38702 0.281122 0)
(0.917406 0.334235 0)
(0.794103 0.311958 0)
(0.782336 0.313384 0)
(0.767625 0.3172 0)
(0.753901 0.319591 0)
(0.740385 0.320008 0)
(0.727296 0.320917 0)
(0.71498 0.323656 0)
(0.703095 0.326761 0)
(0.691226 0.329212 0)
(0.679293 0.332056 0)
(0.66681 0.335367 0)
(0.653227 0.338061 0)
(0.638988 0.340788 0)
(0.625136 0.345015 0)
(0.612301 0.351061 0)
(0.600162 0.35802 0)
(0.587395 0.363776 0)
(0.573394 0.366828 0)
(0.558574 0.369631 0)
(0.543943 0.37531 0)
(0.530065 0.383381 0)
(0.515987 0.39102 0)
(0.50135 0.397139 0)
(0.486467 0.403524 0)
(0.471426 0.411318 0)
(0.455901 0.42015 0)
(0.439626 0.429312 0)
(0.422829 0.43884 0)
(0.405793 0.449007 0)
(0.388593 0.459919 0)
(0.371099 0.471612 0)
(0.352919 0.483963 0)
(0.333929 0.496993 0)
(0.313876 0.510654 0)
(0.292447 0.524563 0)
(0.269473 0.538587 0)
(0.244497 0.552134 0)
(0.217507 0.565437 0)
(0.188424 0.578157 0)
(0.157874 0.591198 0)
(0.125927 0.603236 0)
(0.0923929 0.61306 0)
(0.0568037 0.618239 0)
(0.0181639 0.621256 0)
(3 3.18727e-18 0)
(3 1.94533e-16 0)
(3 9.40939e-17 0)
(3 6.02464e-17 0)
(3 1.83914e-17 0)
(3 2.55873e-16 0)
(3 5.75002e-16 0)
(3 6.12074e-16 0)
(3 8.55777e-16 0)
(3 1.12954e-15 0)
(3 1.0837e-15 0)
(3 5.72579e-16 0)
(3 -9.7471e-17 0)
(3 -5.56403e-16 0)
(3 -4.52368e-16 0)
(3 5.14148e-16 0)
(3 9.97858e-16 0)
(3 6.41295e-16 0)
(3 5.27362e-17 0)
(3 -2.86953e-18 0)
(3 -3.22408e-16 0)
(3 -4.89036e-16 0)
(3 -6.47269e-16 0)
(3 -1.2717e-15 0)
(3 -1.37469e-15 0)
(3 -8.5969e-16 0)
(3 -5.04944e-16 0)
(3 1.52302e-16 0)
(3 6.47914e-16 0)
(3 5.72915e-16 0)
(3 4.71872e-16 0)
(3 2.25138e-16 0)
(3 2.37688e-16 0)
(3 3.19679e-17 0)
(3 2.28533e-17 0)
(3 3.51806e-16 0)
(3 7.5729e-16 0)
(3 1.3969e-15 0)
(3 2.56889e-15 0)
(3 3.48793e-15 0)
(3 4.12637e-15 0)
(3 4.53715e-15 0)
(3 3.77381e-15 0)
(3 2.30219e-15 0)
(3 1.61681e-15 0)
(3 1.13367e-15 0)
(3 4.48611e-16 0)
(3 6.03067e-17 0)
(3 -8.22647e-17 0)
(3 -7.6421e-09 0)
(3.02893 0.0176904 0)
(1.25023 0.377285 0)
(0.840472 0.3164 0)
(0.824005 0.335441 0)
(0.806928 0.342247 0)
(0.791872 0.344256 0)
(0.777262 0.344328 0)
(0.762621 0.344431 0)
(0.748384 0.346749 0)
(0.734931 0.350847 0)
(0.721916 0.355149 0)
(0.709269 0.359737 0)
(0.696716 0.364909 0)
(0.683374 0.369539 0)
(0.669058 0.37288 0)
(0.654611 0.376274 0)
(0.641004 0.381489 0)
(0.628782 0.388864 0)
(0.616973 0.396559 0)
(0.604075 0.402011 0)
(0.590044 0.405519 0)
(0.575673 0.410754 0)
(0.561981 0.419121 0)
(0.548625 0.428712 0)
(0.534677 0.437105 0)
(0.520277 0.444789 0)
(0.505883 0.453439 0)
(0.491345 0.463534 0)
(0.47604 0.474337 0)
(0.459981 0.485567 0)
(0.443472 0.497407 0)
(0.426828 0.510146 0)
(0.410161 0.524012 0)
(0.392994 0.538991 0)
(0.375233 0.555276 0)
(0.356443 0.57303 0)
(0.336257 0.592001 0)
(0.314641 0.611977 0)
(0.291488 0.632273 0)
(0.266872 0.652243 0)
(0.240738 0.670824 0)
(0.212477 0.686956 0)
(0.18185 0.70271 0)
(0.144969 0.72138 0)
(0.0985487 0.743842 0)
(0.0375158 0.76302 0)
(3 2.84364e-17 0)
(3 9.8689e-17 0)
(3 2.99736e-16 0)
(3 4.71885e-16 0)
(3 2.99186e-16 0)
(3 2.15864e-16 0)
(3 2.2356e-16 0)