/*--------------------------------*- C++ -*----------------------------------*\
  =========                 |
  \\      /  F ield         | OpenFOAM: The Open Source CFD Toolbox
   \\    /   O peration     | Website:  https://openfoam.org
    \\  /    A nd           | Version:  7
     \\/     M anipulation  |
\*---------------------------------------------------------------------------*/
FoamFile
{
    version     2.0;
    format      ascii;
    class       volScalarField;
    location    "15";
    object      p;
}
// * * * * * * * * * * * * * * * * * * * * * * * * * * * * * * * * * * * * * //

dimensions      [0 2 -2 0 0 0 0];

internalField   nonuniform List<scalar> 
8800
(
0.389522
0.341757
0.303105
0.274147
0.253329
0.238557
0.22802
0.22058
0.215757
0.213612
0.21467
0.218603
0.225
0.234094
0.246692
0.264292
0.288975
0.322845
0.365323
0.424017
0.220697
0.228377
0.23595
0.239288
0.23783
0.232816
0.226395
0.22038
0.215695
0.212814
0.212378
0.214622
0.21883
0.22452
0.231081
0.237192
0.240707
0.239901
0.23436
0.225592
0.199018
0.205206
0.209404
0.212453
0.214608
0.215315
0.214309
0.212276
0.210256
0.209225
0.209966
0.212068
0.214571
0.216468
0.216831
0.215428
0.2129
0.209354
0.204729
0.20095
0.193089
0.195777
0.198652
0.2012
0.20298
0.204272
0.205119
0.205306
0.205012
0.204846
0.205338
0.20618
0.206687
0.206438
0.20554
0.204185
0.202128
0.199345
0.19681
0.195304
0.18758
0.189036
0.191043
0.193357
0.195395
0.19694
0.198064
0.198931
0.199556
0.20001
0.200349
0.200444
0.20016
0.199505
0.198431
0.196796
0.194708
0.192502
0.191
0.190189
0.182583
0.183513
0.185044
0.186988
0.189007
0.190895
0.192453
0.19364
0.194557
0.195241
0.195609
0.195549
0.195057
0.1941
0.192638
0.190859
0.188992
0.18726
0.186212
0.185709
0.177961
0.178587
0.179945
0.18178
0.183645
0.185467
0.187235
0.188801
0.190031
0.190925
0.191345
0.191194
0.190469
0.18927
0.187814
0.186217
0.184496
0.18292
0.182076
0.181771
0.174389
0.174747
0.17588
0.177531
0.179197
0.180776
0.182268
0.183694
0.185024
0.186106
0.186633
0.186531
0.185986
0.185139
0.184035
0.182696
0.181201
0.17985
0.179224
0.179086
0.172276
0.172473
0.173225
0.174449
0.175801
0.177245
0.178742
0.180215
0.181591
0.182783
0.183496
0.183593
0.183205
0.182449
0.1815
0.1805
0.179439
0.178562
0.178191
0.178124
0.170406
0.170534
0.170931
0.171593
0.17246
0.173467
0.174603
0.175917
0.177329
0.178687
0.179626
0.179989
0.17994
0.179708
0.17924
0.178733
0.178296
0.177938
0.177762
0.17771
0.167746
0.167836
0.168106
0.168569
0.169185
0.170037
0.171186
0.172514
0.173996
0.175543
0.176775
0.177455
0.177688
0.177581
0.177505
0.177394
0.177211
0.177057
0.176963
0.17692
0.16434
0.164398
0.164641
0.165093
0.165684
0.16646
0.16754
0.168911
0.170548
0.172373
0.173961
0.174995
0.175565
0.175859
0.175993
0.176036
0.175988
0.175908
0.175865
0.175838
0.160469
0.160499
0.160729
0.161212
0.1619
0.162691
0.163852
0.165339
0.167179
0.169339
0.171379
0.172857
0.173807
0.174393
0.174768
0.17493
0.174934
0.174901
0.1749
0.174885
0.156288
0.156309
0.156521
0.157011
0.157718
0.158729
0.159992
0.161676
0.163835
0.166468
0.169062
0.171041
0.172414
0.173306
0.173797
0.174148
0.174271
0.174326
0.174364
0.174353
0.151701
0.151731
0.15194
0.152436
0.153205
0.154287
0.155765
0.157755
0.16036
0.163611
0.166897
0.169474
0.171315
0.172561
0.173363
0.173851
0.174121
0.174272
0.174339
0.174326
0.14649
0.146516
0.146762
0.147287
0.148147
0.149396
0.151152
0.153564
0.156766
0.160811
0.164949
0.168247
0.170596
0.17226
0.173366
0.174072
0.174504
0.174749
0.174844
0.174827
0.140438
0.140467
0.140764
0.141385
0.142388
0.14388
0.146017
0.148991
0.15297
0.158025
0.163223
0.167379
0.170434
0.172545
0.17398
0.174922
0.175514
0.175849
0.175972
0.175952
0.133309
0.133345
0.133707
0.134484
0.135722
0.137551
0.140217
0.143933
0.148915
0.155255
0.161779
0.16702
0.170832
0.173507
0.175329
0.176536
0.177303
0.177737
0.17789
0.177862
0.124824
0.124874
0.125337
0.126301
0.127873
0.130209
0.13357
0.138254
0.144529
0.152492
0.160662
0.167202
0.171951
0.175286
0.177569
0.179087
0.18005
0.180591
0.180786
0.18075
0.114614
0.114684
0.115282
0.116524
0.118545
0.121544
0.125834
0.131802
0.139751
0.149753
0.159938
0.168048
0.173927
0.178061
0.180897
0.18279
0.183994
0.184667
0.184903
0.184856
0.102125
0.10222
0.103006
0.104644
0.107298
0.111197
0.116767
0.124443
0.134534
0.147078
0.159718
0.169719
0.176955
0.182046
0.185545
0.18789
0.189383
0.190211
0.190503
0.190444
0.086564
0.086691
0.0877547
0.0899825
0.093548
0.098736
0.10606
0.115991
0.128834
0.144532
0.16013
0.172383
0.181234
0.187471
0.191774
0.194671
0.196528
0.197543
0.197896
0.197823
0.0667854
0.0669704
0.0684665
0.071592
0.0765025
0.0835497
0.0933147
0.106278
0.122654
0.142216
0.161322
0.176209
0.186962
0.194573
0.199858
0.203445
0.205763
0.207034
0.20746
0.207364
0.0409967
0.0412914
0.043518
0.0481106
0.0551492
0.064994
0.0782508
0.0952844
0.116112
0.140302
0.163467
0.181368
0.194317
0.203558
0.210053
0.214524
0.217446
0.219058
0.219587
0.219458
0.00602351
0.00656333
0.0102957
0.0176693
0.0283291
0.0425576
0.0608073
0.0831883
0.10948
0.139049
0.166761
0.188001
0.20342
0.214558
0.222536
0.228158
0.231914
0.233995
0.234652
0.234477
-0.0441545
-0.04243
-0.0348186
-0.0217817
-0.00481393
0.0161565
0.0412848
0.0704286
0.103166
0.138741
0.171352
0.196154
0.214248
0.227526
0.237285
0.244403
0.249363
0.252224
0.253112
0.252864
-0.119403
-0.109932
-0.0925383
-0.0692639
-0.042822
-0.0128811
0.0206572
0.0575988
0.0975047
0.139659
0.177644
0.206456
0.227702
0.243642
0.25578
0.265142
0.272144
0.276571
0.278177
0.278217
-0.1997
-0.178514
-0.150678
-0.117099
-0.0809656
-0.04196
2.89583e-05
0.044915
0.0923808
0.141849
0.186248
0.220165
0.245579
0.265115
0.280493
0.292816
0.302614
0.310143
0.313317
0.313519
-0.262885
-0.239359
-0.20332
-0.16154
-0.116909
-0.0695313
-0.0195073
0.0330224
0.0877438
0.144117
0.19438
0.232722
0.261552
0.283855
0.301522
0.315737
0.32702
0.335671
0.338533
0.339015
-0.314121
-0.288463
-0.247694
-0.20001
-0.148843
-0.0946542
-0.0377083
0.0216659
0.0830134
0.145691
0.201135
0.243134
0.274478
0.298514
0.317353
0.332396
0.344261
0.352849
0.356097
0.356605
-0.355715
-0.329361
-0.285169
-0.233097
-0.176843
-0.117153
-0.0543905
0.0109243
0.0781564
0.146478
0.206437
0.251377
0.284526
0.309642
0.329093
0.344426
0.356381
0.364896
0.368344
0.368829
-0.391084
-0.364342
-0.317735
-0.262088
-0.201716
-0.13744
-0.0697464
0.00074444
0.0732262
0.146626
0.210662
0.258225
0.292909
0.318848
0.338647
0.354009
0.365869
0.374215
0.377834
0.378306
-0.422148
-0.395254
-0.346798
-0.288277
-0.224437
-0.15621
-0.0841806
-0.00906742
0.068202
0.146363
0.214246
0.264221
0.300256
0.326869
0.34693
0.362314
0.374084
0.382264
0.385917
0.386388
-0.450383
-0.423352
-0.373382
-0.312438
-0.245618
-0.173958
-0.0980911
-0.0187971
0.0628952
0.145521
0.21707
0.269441
0.306873
0.334231
0.354629
0.370101
0.38183
0.389828
0.393485
0.393987
-0.476613
-0.449451
-0.398224
-0.33517
-0.265794
-0.19113
-0.111841
-0.028757
0.0570227
0.143952
0.219254
0.274174
0.313148
0.341369
0.362194
0.377828
0.389563
0.397458
0.401019
0.401592
-0.501526
-0.47417
-0.421795
-0.356904
-0.28527
-0.207952
-0.125619
-0.0390894
0.0505576
0.141708
0.220844
0.278494
0.319222
0.348488
0.36988
0.385776
0.397575
0.405398
0.408843
0.409427
-0.525357
-0.497763
-0.444347
-0.377942
-0.304282
-0.224611
-0.139541
-0.0498372
0.0434339
0.138678
0.221739
0.282385
0.32515
0.355704
0.377844
0.394125
0.40607
0.413856
0.417158
0.417692
-0.548469
-0.520516
-0.466275
-0.398435
-0.322988
-0.241224
-0.153689
-0.0611205
0.0355083
0.134734
0.221847
0.285778
0.330897
0.363026
0.386134
0.402955
0.415136
0.422942
0.426091
0.426524
-0.57089
-0.542624
-0.48766
-0.418457
-0.341444
-0.257841
-0.168132
-0.0729813
0.0267557
0.12981
0.221046
0.288548
0.336388
0.370416
0.394757
0.412307
0.424838
0.432688
0.435712
0.435983
-0.592682
-0.564011
-0.508463
-0.438064
-0.359687
-0.274473
-0.182851
-0.0853959
0.017172
0.123838
0.219191
0.290524
0.341491
0.377816
0.403686
0.422163
0.435159
0.44308
0.445986
0.446079
-0.613906
-0.58492
-0.528655
-0.457253
-0.377696
-0.291072
-0.197787
-0.0983252
0.00676158
0.116766
0.216155
0.291488
0.345972
0.385054
0.412827
0.432471
0.446048
0.454045
0.456799
0.456722
-0.634611
-0.6052
-0.548287
-0.475997
-0.395411
-0.307589
-0.212886
-0.111708
-0.00442365
0.108587
0.211825
0.291232
0.349538
0.391884
0.422059
0.443178
0.45742
0.465434
0.467925
0.467704
-0.654635
-0.624815
-0.567318
-0.49426
-0.41279
-0.323955
-0.228075
-0.12545
-0.0163035
0.0993378
0.206111
0.289539
0.351898
0.398022
0.431249
0.454288
0.469258
0.477107
0.479219
0.478836
-0.673942
-0.643761
-0.585723
-0.511986
-0.429771
-0.340098
-0.243248
-0.139459
-0.028781
0.0890719
0.198984
0.286219
0.352707
0.403043
0.440138
0.465908
0.481764
0.488954
0.490307
0.489765
-0.692598
-0.661976
-0.603471
-0.529138
-0.446289
-0.355934
-0.258316
-0.153618
-0.0417412
0.0778923
0.190442
0.281145
0.351595
0.406349
0.448186
0.478091
0.495693
0.501454
0.500851
0.500088
-0.710443
-0.67946
-0.620511
-0.545656
-0.462289
-0.371389
-0.273185
-0.167813
-0.0550492
0.0659311
0.180559
0.274235
0.348288
0.407207
0.454382
0.49033
0.512241
0.517294
0.512248
0.509908
-0.727573
-0.696213
-0.636871
-0.561568
-0.477808
-0.38651
-0.28791
-0.182101
-0.0687704
0.0531255
0.169232
0.265261
0.342497
0.404834
0.457061
0.500717
0.531041
0.541998
0.533919
0.51169
-0.74394
-0.712245
-0.652668
-0.577047
-0.493118
-0.401606
-0.302888
-0.196952
-0.0834419
0.0388111
0.155745
0.253338
0.33335
0.398047
0.452985
0.503655
0.541652
0.552985
0.53794
0.511716
-0.759402
-0.727749
-0.667739
-0.591842
-0.507948
-0.416349
-0.317895
-0.212036
-0.0987299
0.0233244
0.140332
0.238367
0.320461
0.386533
0.437977
0.488263
0.521849
0.522289
0.453425
0.410105
-0.773387
-0.743613
-0.681708
-0.605401
-0.521634
-0.4303
-0.332658
-0.227144
-0.114419
0.00683196
0.123045
0.220339
0.303182
0.371097
0.413285
0.443029
0.461955
0.419986
0.343731
0.29374
-0.826005
-0.756674
-0.694342
-0.619208
-0.53554
-0.444771
-0.347247
-0.242516
-0.130814
-0.0110116
0.103467
0.198967
0.279482
0.352959
0.366293
0.373183
0.345362
0.278991
0.192673
0.14436
-0.785208
-0.770899
-0.712127
-0.638789
-0.5554
-0.465295
-0.369111
-0.265699
-0.155942
-0.0390288
0.0712682
0.162323
0.235071
0.297305
0.304546
0.184849
0.0684352
-0.0115364
-0.095383
-0.0505245
-0.812909
-0.785694
-0.727247
-0.653668
-0.570955
-0.481376
-0.385317
-0.282972
-0.174869
-0.0606186
0.0457562
0.131693
0.197145
0.230359
0.177645
0.0112475
-0.141863
-0.249852
-0.367865
-0.29624
-0.833771
-0.803104
-0.74443
-0.670471
-0.588037
-0.49881
-0.403212
-0.302114
-0.195948
-0.0848382
0.0169747
0.0965563
0.15216
0.157798
0.0380474
-0.182081
-0.373139
-0.520057
-0.691264
-0.626037
-0.853554
-0.821594
-0.761994
-0.687484
-0.605094
-0.516215
-0.421441
-0.321694
-0.217624
-0.109993
-0.0134967
0.0591825
0.10112
0.0679076
-0.122552
-0.379106
-0.626109
-0.848916
-1.09946
-1.08461
-0.872093
-0.84019
-0.780005
-0.705041
-0.622692
-0.534227
-0.44037
-0.342064
-0.240315
-0.136503
-0.0458233
0.0195397
0.0449138
-0.0317378
-0.277787
-0.561309
-0.858094
-1.12635
-1.45608
-1.83268
-0.890515
-0.858956
-0.79865
-0.723464
-0.641168
-0.55309
-0.46008
-0.363222
-0.263862
-0.164006
-0.0792653
-0.0217462
-0.0134626
-0.13957
-0.415564
-0.704566
-1.00272
-1.25455
-1.35966
-1.52361
-0.909379
-0.878218
-0.818163
-0.742975
-0.660859
-0.573255
-0.481179
-0.385922
-0.289221
-0.193746
-0.115489
-0.066769
-0.0795232
-0.264302
-0.536626
-0.810182
-1.05347
-1.20651
-1.2362
-1.26633
-0.929037
-0.898243
-0.838486
-0.76357
-0.68177
-0.594791
-0.50385
-0.410455
-0.316777
-0.226288
-0.155146
-0.116102
-0.159787
-0.382509
-0.643434
-0.895231
-1.09186
-1.17146
-1.19216
-1.19565
-0.949634
-0.919098
-0.859704
-0.785111
-0.703747
-0.617575
-0.527965
-0.43669
-0.34642
-0.261535
-0.197968
-0.170686
-0.243674
-0.494537
-0.741648
-0.977302
-1.14677
-1.17419
-1.16921
-1.16698
-0.971013
-0.940741
-0.881653
-0.807478
-0.726675
-0.641443
-0.553346
-0.464447
-0.3779
-0.299167
-0.243743
-0.23054
-0.328681
-0.604634
-0.832775
-1.04013
-1.15492
-1.15968
-1.15084
-1.14703
-0.9929
-0.962876
-0.904143
-0.83048
-0.750317
-0.666159
-0.57974
-0.493455
-0.410868
-0.338692
-0.292441
-0.290715
-0.427723
-0.709603
-0.91744
-1.03107
-1.11044
-1.1139
-1.12176
-1.12249
-1.01466
-0.985168
-0.926929
-0.853759
-0.774303
-0.691353
-0.606768
-0.523253
-0.444836
-0.379444
-0.343444
-0.352238
-0.542206
-0.814512
-1.03095
-1.0139
-1.04846
-1.11026
-1.13233
-1.13716
-1.03577
-1.00677
-0.949548
-0.876844
-0.798179
-0.716479
-0.63388
-0.553188
-0.479054
-0.420274
-0.39483
-0.418317
-0.673385
-0.943386
-1.24903
-1.41289
-1.30225
-1.2446
-1.22874
-1.22743
-1.05564
-1.02737
-0.970968
-0.899023
-0.821308
-0.74094
-0.660283
-0.582369
-0.512368
-0.459791
-0.445166
-0.488784
-0.807442
-1.11844
-1.3615
-1.51102
-1.45451
-1.48876
-1.47882
-1.45254
-1.07313
-1.04594
-0.990585
-0.919436
-0.842694
-0.763792
-0.68511
-0.609729
-0.543349
-0.496367
-0.492246
-0.554299
-0.923992
-1.21548
-1.10639
-0.86882
-1.27359
-1.74499
-1.83546
-1.80925
-1.08714
-1.06139
-1.00735
-0.937034
-0.861302
-0.78391
-0.707155
-0.634145
-0.57022
-0.527558
-0.529234
-0.60104
-1.05526
-1.58713
-2.02053
-2.32993
-2.56952
-2.33656
-2.04499
-2.00771
-1.09635
-1.07245
-1.02004
-0.95055
-0.875878
-0.800001
-0.725137
-0.654162
-0.591456
-0.548404
-0.548394
-0.639891
-1.19944
-2.09968
-3.30255
-4.01942
-4.19755
-3.84111
-3.29041
-2.99664
-1.0996
-1.07776
-1.02709
-0.958654
-0.884993
-0.810738
-0.737967
-0.668765
-0.605356
-0.556464
-0.546764
-0.612663
-1.14284
-1.93498
-2.93111
-3.60815
-3.75445
-3.45421
-3.0456
-2.82763
-1.09471
-1.07546
-1.02682
-0.959334
-0.887038
-0.814881
-0.74463
-0.677013
-0.612314
-0.550929
-0.505844
-0.498565
-0.696747
-1.01461
-1.24104
-1.28171
-1.06909
-0.731442
-0.441991
-0.309155
-1.0794
-1.06243
-1.0165
-0.950607
-0.880412
-0.811065
-0.744207
-0.679674
-0.613594
-0.534888
-0.444325
-0.35886
-0.168192
0.159233
0.607124
1.08378
1.54391
1.87153
2.04279
2.08785
-1.0515
-1.03692
-0.993968
-0.930875
-0.863737
-0.798666
-0.737633
-0.679818
-0.617792
-0.528057
-0.393461
-0.209626
0.0716407
0.595616
1.27353
1.90629
2.38603
2.66613
2.78802
2.81475
-1.00909
-0.996773
-0.957341
-0.89853
-0.836361
-0.777972
-0.726297
-0.682772
-0.638173
-0.555753
-0.391503
-0.145578
0.112128
0.563904
1.16897
1.69889
2.08031
2.29714
2.39477
2.42063
-0.948684
-0.938458
-0.904685
-0.853289
-0.798932
-0.750104
-0.712053
-0.690857
-0.691176
-0.685904
-0.575743
-0.284416
0.0500682
0.362194
0.823807
1.22916
1.52644
1.70715
1.79524
1.82025
-0.873814
-0.865505
-0.839138
-0.797236
-0.753313
-0.716727
-0.696834
-0.711574
-0.798849
-1.01788
-1.15028
-0.801885
-0.301773
0.035566
0.416026
0.754117
1.0074
1.16438
1.24106
1.24926
-0.788558
-0.782562
-0.762606
-0.731512
-0.699557
-0.675873
-0.674674
-0.731123
-0.947287
-1.51061
-2.11613
-1.64666
-0.933892
-0.475943
-0.0403664
0.294032
0.515262
0.633158
0.681842
0.690279
-0.685634
-0.682959
-0.670889
-0.651023
-0.630808
-0.618398
-0.628716
-0.699718
-0.949837
-1.58436
-2.269
-1.86214
-1.1872
-0.67906
-0.250016
0.0465746
0.217587
0.303077
0.344192
0.352648
-0.575682
-0.575035
-0.567695
-0.55518
-0.542703
-0.536019
-0.547134
-0.605846
-0.804988
-1.29109
-1.74859
-1.47574
-0.984061
-0.545459
-0.228865
-0.0453662
0.043682
0.0846986
0.102078
0.105747
-0.463405
-0.462883
-0.458019
-0.449289
-0.440065
-0.433804
-0.437571
-0.470116
-0.579931
-0.840419
-1.04545
-0.864287
-0.555146
-0.291701
-0.129664
-0.0547619
-0.0222381
-0.00753749
-0.00129941
-9.906e-05
-0.351068
-0.350978
-0.347594
-0.341114
-0.333456
-0.32596
-0.321486
-0.327718
-0.362198
-0.444248
-0.474308
-0.371239
-0.190396
-0.0775938
-0.0300712
-0.0145439
-0.0110042
-0.0109413
-0.0113542
-0.0117426
-0.245717
-0.245882
-0.244128
-0.239958
-0.234013
-0.226147
-0.216635
-0.206844
-0.199257
-0.189738
-0.140769
-0.0728963
-0.0106329
0.027791
0.0325667
0.0282427
0.0220975
0.017232
0.0145878
0.0135629
-0.154848
-0.155216
-0.155092
-0.153441
-0.149681
-0.1429
-0.132291
-0.116729
-0.0940589
-0.0586295
-0.00425729
0.039585
0.0600071
0.0702866
0.0659659
0.0582424
0.0510461
0.0458946
0.0431412
0.0420506
-0.083496
-0.083962
-0.084938
-0.0851794
-0.0835107
-0.0787504
-0.0696253
-0.0543668
-0.0304912
0.0051882
0.0476015
0.0763159
0.0848253
0.0861041
0.0812723
0.0747934
0.0688807
0.0646608
0.0624204
0.0614932
-0.0320198
-0.0324736
-0.0338738
-0.035112
-0.0348523
-0.0320236
-0.0253473
-0.0130973
0.00668221
0.0353043
0.0654897
0.0843169
0.0899351
0.0895741
0.0858831
0.0810614
0.0765644
0.0733351
0.0716336
0.0709111
0.0025986
0.0022194
0.00083348
-0.000759388
-0.0012839
0.000230271
0.00479452
0.0137526
0.0284808
0.0494469
0.0703267
0.0829412
0.0872371
0.0868829
0.0841912
0.0806717
0.0772874
0.0747998
0.0735167
0.0729766
0.0244241
0.0241333
0.0229627
0.0214102
0.0204942
0.0210594
0.0239933
0.0302442
0.0406506
0.0553391
0.0696402
0.0781624
0.0812545
0.081043
0.0791675
0.0765807
0.0739891
0.0720463
0.0710734
0.0706797
0.0372304
0.0370147
0.0361106
0.0347903
0.0338352
0.0338524
0.0355067
0.0395808
0.0466863
0.056738
0.0663939
0.0721309
0.0743482
0.074232
0.0728247
0.0708546
0.068843
0.0673075
0.0665647
0.0662817
0.044047
0.0438835
0.0432145
0.0421577
0.0413049
0.0410959
0.042001
0.0445163
0.0491123
0.0558124
0.062341
0.06622
0.0676395
0.0674119
0.0662862
0.0647466
0.0631566
0.0619374
0.0613679
0.0611641
0.04704
0.0469084
0.0463968
0.0455461
0.0447895
0.0444331
0.0448386
0.0463814
0.0493471
0.053702
0.0579333
0.0603896
0.0612145
0.0609337
0.0600108
0.0587865
0.0575316
0.056575
0.0561425
0.0559945
0.0475515
0.0474419
0.0470276
0.0463175
0.0456364
0.0452001
0.0452471
0.0460416
0.0478224
0.0505801
0.0532967
0.0548477
0.055276
0.0549331
0.0541527
0.053175
0.0521898
0.0514491
0.0511233
0.0510146
0.0463732
0.0462823
0.0459383
0.0453368
0.044726
0.0442644
0.0441224
0.0444756
0.0454758
0.0471292
0.0487757
0.0496528
0.0497818
0.0494033
0.0487383
0.0479499
0.0471742
0.0466004
0.0463531
0.0462722
0.0440135
0.0439393
0.0436519
0.0431377
0.0425894
0.0421225
0.0418547
0.0419105
0.0424003
0.0433211
0.044245
0.0446813
0.044631
0.0442478
0.0436823
0.0430471
0.0424376
0.0419935
0.0418048
0.0417439
0.0408263
0.0407671
0.040533
0.0401024
0.0396245
0.0391849
0.038864
0.0387444
0.0389029
0.0393433
0.039797
0.0399425
0.0397768
0.0394026
0.0389204
0.0384055
0.0379234
0.0375768
0.0374316
0.0373857
0.0370774
0.0370305
0.0368442
0.0364919
0.036087
0.0356922
0.0353614
0.0351518
0.0351145
0.0352511
0.0353983
0.0353609
0.035135
0.0347847
0.0343757
0.0339575
0.0335749
0.033304
0.0331923
0.0331577
0.0329627
0.0329255
0.0327801
0.032499
0.0321654
0.0318245
0.0315118
0.0312649
0.0311189
0.0310755
0.0310416
0.0309016
0.0306525
0.030335
0.0299908
0.0296518
0.0293483
0.0291369
0.029051
0.0290248
0.0286233
0.028594
0.0284819
0.0282622
0.0279941
0.0277101
0.027432
0.0271844
0.0269906
0.0268513
0.0267177
0.0265288
0.026283
0.0260037
0.0257179
0.0254452
0.0252062
0.0250424
0.0249764
0.0249565
0.0241542
0.0241311
0.0240455
0.0238762
0.0236652
0.0234349
0.0231985
0.0229717
0.0227695
0.0225922
0.0224176
0.0222175
0.0219917
0.0217544
0.0215216
0.0213053
0.0211188
0.0209926
0.020942
0.020927
0.019614
0.0195962
0.0195313
0.0194028
0.0192403
0.0190592
0.0188672
0.0186739
0.0184886
0.0183109
0.0181341
0.0179483
0.0177544
0.0175603
0.0173757
0.0172075
0.0170644
0.0169681
0.0169298
0.0169185
0.0150349
0.0150216
0.0149733
0.0148779
0.0147564
0.0146196
0.0144721
0.0143196
0.0141671
0.0140139
0.0138603
0.0137062
0.0135525
0.0134028
0.0132625
0.0131359
0.0130287
0.0129568
0.0129283
0.01292
0.0104316
0.0104221
0.0103877
0.0103204
0.0102351
0.0101397
0.0100369
0.00992916
0.00981959
0.0097075
0.00959469
0.00948356
0.00937481
0.00927005
0.00917217
0.00908324
0.00900727
0.00895588
0.00893553
0.00892954
0.00580902
0.00580266
0.00578137
0.00574031
0.00569031
0.00563646
0.00557927
0.00551966
0.00545845
0.00539529
0.00533151
0.00526883
0.00520803
0.00514978
0.00509506
0.00504411
0.00499875
0.00496721
0.00495443
0.00495002
0.00117506
0.00117561
0.00117917
0.00117462
0.00116308
0.0011501
0.0011363
0.00112168
0.00110607
0.00108894
0.00107095
0.00105371
0.00103775
0.00102283
0.00100894
0.000995841
0.000983574
0.00097473
0.000974881
0.000977473
-0.795552
-0.560547
-0.297235
-0.0820197
0.0926171
0.233552
0.352863
0.453543
0.499929
0.477373
-0.375457
-0.215985
-0.0502017
0.0925075
0.213769
0.315488
0.398397
0.457788
0.488769
0.499924
-0.089907
0.0154144
0.126116
0.224608
0.309626
0.381023
0.437811
0.479308
0.508353
0.525365
0.108792
0.181052
0.258566
0.328708
0.389693
0.441304
0.483397
0.516488
0.542483
0.560165
0.25847
0.310546
0.365731
0.417872
0.463773
0.503562
0.537218
0.564771
0.587131
0.604598
0.377988
0.416432
0.45995
0.500955
0.538173
0.571201
0.599751
0.623422
0.642566
0.659743
0.479741
0.511519
0.549332
0.584756
0.617594
0.64716
0.672805
0.693917
0.710298
0.727332
0.573957
0.605092
0.641473
0.675568
0.706955
0.735052
0.759132
0.778517
0.7925
0.809563
0.672756
0.707143
0.745218
0.780057
0.811218
0.838359
0.86109
0.878953
0.891264
0.908721
0.789917
0.828354
0.86789
0.902939
0.932979
0.958328
0.979196
0.995477
1.00725
1.02538
0.936209
0.975172
1.01175
1.04291
1.06902
1.09149
1.11085
1.12663
1.13925
1.1573
1.11187
1.14391
1.17039
1.19311
1.21335
1.23229
1.25018
1.2668
1.28227
1.30038
1.30099
1.31836
1.33362
1.35005
1.3661
1.38075
1.39406
1.40808
1.4257
1.44589
1.48309
1.49266
1.50428
1.51514
1.52448
1.53417
1.54509
1.55653
1.56795
1.58333
1.69048
1.69418
1.67924
1.66445
1.65828
1.66403
1.68254
1.7129
1.74511
1.77178
1.99678
1.86193
1.7854
1.74318
1.72576
1.72973
1.75718
1.81358
1.91621
2.14059
0.280106
0.277998
0.273514
0.264927
0.252762
0.240696
0.230534
0.2227
0.217108
0.213807
0.213287
0.215767
0.220599
0.227569
0.236745
0.248119
0.260634
0.271567
0.277639
0.280655
0.204489
0.210351
0.216712
0.221276
0.223811
0.223566
0.22092
0.217178
0.213689
0.211367
0.211046
0.212978
0.216359
0.220381
0.223947
0.22563
0.224541
0.220925
0.215665
0.209012
0.195912
0.198211
0.20169
0.204799
0.206996
0.208608
0.209464
0.209238
0.208267
0.207337
0.207318
0.208445
0.209922
0.210905
0.210806
0.209669
0.207899
0.20537
0.201959
0.198976
0.190289
0.191369
0.193324
0.195912
0.19815
0.199766
0.200927
0.201762
0.202181
0.202335
0.202613
0.20308
0.203325
0.203048
0.202305
0.201125
0.199328
0.19693
0.194598
0.19314
0.18502
0.185648
0.186914
0.188921
0.191018
0.192934
0.194456
0.19561
0.196546
0.197283
0.197769
0.197904
0.197649
0.197045
0.19603
0.194517
0.192625
0.190643
0.188994
0.188145
0.180217
0.180618
0.181599
0.183341
0.185293
0.187259
0.189142
0.190726
0.191916
0.192788
0.193379
0.193573
0.193261
0.192394
0.191006
0.189319
0.187537
0.185782
0.184425
0.183849
0.175974
0.176184
0.176974
0.178575
0.180372
0.182068
0.183677
0.185265
0.186744
0.187962
0.188727
0.188834
0.188353
0.18745
0.186321
0.184996
0.183464
0.181848
0.180664
0.180294
0.1732
0.173286
0.17384
0.175128
0.176684
0.178242
0.179806
0.181277
0.182639
0.183868
0.184769
0.185086
0.184866
0.184239
0.183277
0.182121
0.180843
0.17955
0.178689
0.17848
0.17141
0.171461
0.171784
0.172544
0.173578
0.174715
0.17597
0.177349
0.178791
0.180171
0.181258
0.18176
0.181701
0.181294
0.180679
0.179972
0.179216
0.178522
0.178083
0.177963
0.169181
0.169218
0.169408
0.169816
0.170395
0.171311
0.17228
0.173477
0.174833
0.176281
0.177582
0.178393
0.1787
0.178674
0.178489
0.178095
0.177873
0.177636
0.177461
0.177391
0.166121
0.166145
0.166299
0.166659
0.16718
0.167803
0.168811
0.170056
0.171529
0.173178
0.174764
0.175899
0.176482
0.176703
0.176718
0.176736
0.176657
0.176549
0.176453
0.176412
0.162445
0.162449
0.162577
0.16294
0.163509
0.164173
0.165101
0.166359
0.167928
0.169795
0.171744
0.173301
0.17429
0.174885
0.175235
0.1754
0.175447
0.17539
0.175347
0.175336
0.158413
0.158408
0.158512
0.158873
0.159461
0.160256
0.161379
0.162716
0.16449
0.166681
0.169102
0.171153
0.17256
0.173437
0.174051
0.174399
0.17453
0.174548
0.174564
0.174572
0.154054
0.154041
0.15415
0.154512
0.155133
0.156004
0.15718
0.158768
0.160856
0.163507
0.166523
0.169176
0.171088
0.172413
0.173263
0.173779
0.174055
0.174195
0.174275
0.174294
0.149188
0.149172
0.1493
0.149665
0.150319
0.151278
0.152639
0.154519
0.157047
0.160308
0.164081
0.167476
0.169953
0.171697
0.172873
0.173633
0.174099
0.17437
0.174509
0.174536
0.143593
0.143576
0.143724
0.144141
0.144862
0.14597
0.14759
0.149875
0.152984
0.157034
0.161765
0.166055
0.169186
0.171464
0.173018
0.174049
0.174714
0.175118
0.175315
0.175349
0.137041
0.137018
0.1372
0.137708
0.138576
0.139914
0.141899
0.144721
0.148588
0.153652
0.159583
0.164974
0.168997
0.17184
0.173816
0.175147
0.176023
0.176563
0.176819
0.176863
0.129282
0.129253
0.129485
0.130111
0.131205
0.132897
0.135373
0.138913
0.143775
0.150133
0.157569
0.164321
0.169347
0.172921
0.175394
0.17707
0.178181
0.178866
0.179186
0.179245
0.11998
0.119941
0.120247
0.121065
0.122463
0.124613
0.127779
0.132289
0.138442
0.146445
0.155753
0.164167
0.170401
0.174845
0.177924
0.180011
0.1814
0.182264
0.182666
0.182736
0.108676
0.108625
0.109039
0.110122
0.111947
0.11474
0.118845
0.124631
0.132459
0.142556
0.154186
0.164618
0.172317
0.177804
0.18161
0.184192
0.185912
0.186984
0.187482
0.187569
0.0947231
0.0946642
0.0952423
0.0967003
0.0991226
0.102811
0.108179
0.115675
0.12571
0.138466
0.152947
0.165809
0.175263
0.182
0.186684
0.189871
0.191997
0.19333
0.193952
0.194054
0.077181
0.0771207
0.0779547
0.0799585
0.0832537
0.088223
0.095377
0.105222
0.118143
0.134228
0.152161
0.167905
0.17943
0.187653
0.193395
0.197325
0.199958
0.20161
0.202388
0.202512
0.054556
0.0545064
0.0557714
0.0586505
0.0633144
0.0702356
0.079997
0.0930731
0.10975
0.129962
0.151996
0.171085
0.185011
0.194983
0.201999
0.206847
0.210124
0.212192
0.213163
0.213317
0.0244862
0.0245071
0.0265657
0.0309698
0.0379162
0.047945
0.0615712
0.0791081
0.100638
0.12586
0.152644
0.175512
0.192155
0.204153
0.212702
0.218702
0.222821
0.22545
0.226676
0.226863
-0.0173148
-0.0170416
-0.0132117
-0.00565559
0.00547462
0.0206409
0.0399949
0.0635561
0.0911386
0.122228
0.154318
0.18131
0.200926
0.215204
0.22557
0.233029
0.238294
0.241726
0.243307
0.243528
-0.078887
-0.077132
-0.068069
-0.0537938
-0.0348148
-0.0114585
0.0159134
0.0471219
0.0818379
0.119464
0.157217
0.188513
0.211243
0.227969
0.240377
0.249615
0.256385
0.260939
0.263113
0.2634
-0.152513
-0.149656
-0.132838
-0.107627
-0.0780997
-0.0452235
-0.0090853
0.0302979
0.072689
0.117585
0.16201
0.198796
0.225836
0.246184
0.261764
0.273841
0.28328
0.289629
0.291931
0.292778
-0.228244
-0.219338
-0.194415
-0.159184
-0.120053
-0.0780488
-0.0332796
0.014219
0.0642615
0.116429
0.167584
0.209894
0.24119
0.26505
0.2837
0.29852
0.310301
0.31852
0.322682
0.324191
-0.286213
-0.276045
-0.24618
-0.204326
-0.157848
-0.108234
-0.0558845
-0.000978621
0.0561913
0.115153
0.172458
0.219574
0.254318
0.28076
0.301367
0.317678
0.330588
0.340073
0.34524
0.346895
-0.333067
-0.322386
-0.289134
-0.242594
-0.190637
-0.135101
-0.0765118
-0.0152135
0.048306
0.113405
0.176209
0.227402
0.264769
0.292884
0.314543
0.331519
0.344844
0.354645
0.359996
0.361785
-0.371713
-0.361006
-0.325736
-0.275564
-0.219258
-0.158936
-0.0951517
-0.0284106
0.0406605
0.111244
0.178932
0.233622
0.27312
0.30249
0.324843
0.342134
0.35554
0.365345
0.370695
0.372483
-0.405185
-0.394543
-0.357747
-0.304729
-0.244889
-0.180556
-0.112338
-0.0408286
0.033203
0.108763
0.180995
0.238947
0.280357
0.310763
0.333586
0.351012
0.36438
0.374144
0.379503
0.381212
-0.435011
-0.42446
-0.386556
-0.331222
-0.268428
-0.200636
-0.128521
-0.0527727
0.0257721
0.105969
0.182482
0.243496
0.286707
0.318096
0.341391
0.358991
0.372375
0.382093
0.387496
0.389033
-0.462394
-0.451885
-0.413112
-0.355811
-0.290472
-0.219703
-0.144172
-0.0646055
0.018073
0.102589
0.183215
0.247357
0.292489
0.324978
0.34884
0.366677
0.380125
0.389819
0.395213
0.39664
-0.488098
-0.477612
-0.438037
-0.379039
-0.311511
-0.238127
-0.159574
-0.0765864
0.00988091
0.0985409
0.183312
0.250717
0.297938
0.33168
0.356238
0.374416
0.387992
0.397676
0.403088
0.404406
-0.512552
-0.502054
-0.461782
-0.401306
-0.331837
-0.256132
-0.174895
-0.088819
0.00118123
0.0938084
0.182708
0.253539
0.303094
0.338321
0.363762
0.382418
0.396215
0.405947
0.411331
0.412595
-0.536117
-0.525554
-0.484617
-0.422894
-0.351671
-0.273909
-0.190265
-0.101377
-0.00812858
0.0882429
0.181264
0.255756
0.307963
0.344969
0.371516
0.390816
0.404944
0.41478
0.420089
0.42134
-0.558998
-0.548286
-0.506669
-0.44389
-0.371105
-0.291538
-0.205755
-0.11436
-0.0181513
0.0817793
0.178896
0.257254
0.31246
0.351601
0.379526
0.399654
0.414239
0.424252
0.42948
0.430711
-0.581202
-0.570324
-0.528206
-0.464366
-0.390205
-0.309057
-0.221402
-0.127778
-0.0288804
0.0743662
0.175493
0.257889
0.316416
0.358073
0.387714
0.408914
0.424102
0.434361
0.439536
0.440683
-0.602851
-0.591764
-0.549167
-0.484324
-0.408995
-0.326464
-0.237167
-0.141584
-0.040294
0.0659842
0.170957
0.257492
0.319646
0.364214
0.395977
0.418544
0.43452
0.445102
0.450222
0.451234
-0.62387
-0.612583
-0.5695
-0.503786
-0.427434
-0.343701
-0.252988
-0.155725
-0.0523545
0.0566389
0.165222
0.255885
0.321944
0.369869
0.404216
0.42849
0.445424
0.456355
0.4614
0.462219
-0.644301
-0.632785
-0.589192
-0.522727
-0.44548
-0.360724
-0.268816
-0.170128
-0.0649831
0.0463739
0.15824
0.252906
0.323023
0.374749
0.412234
0.438692
0.456785
0.468005
0.472824
0.47342
-0.663983
-0.652314
-0.608225
-0.5411
-0.463081
-0.377455
-0.28457
-0.1847
-0.0780856
0.0352704
0.150012
0.248427
0.322593
0.378437
0.419712
0.449082
0.468697
0.480033
0.484314
0.484586
-0.683029
-0.671132
-0.62658
-0.558873
-0.480194
-0.393844
-0.300148
-0.199348
-0.0915549
0.0234353
0.140588
0.242358
0.320411
0.380478
0.426175
0.459514
0.481508
0.492742
0.495645
0.495294
-0.701309
-0.689183
-0.644228
-0.575998
-0.496744
-0.40981
-0.315471
-0.213948
-0.105267
0.0109653
0.130055
0.234673
0.316288
0.380396
0.430857
0.469456
0.495684
0.50755
0.50747
0.505057
-0.718861
-0.706547
-0.661127
-0.59243
-0.512695
-0.425292
-0.33046
-0.228419
-0.119099
-0.00197611
0.118549
0.225382
0.310101
0.377758
0.432669
0.477519
0.510754
0.527017
0.524825
0.513253
-0.735623
-0.723157
-0.677388
-0.608307
-0.528242
-0.440559
-0.345438
-0.243157
-0.133514
-0.0159257
0.105464
0.21382
0.301135