/*--------------------------------*- C++ -*----------------------------------*\
  =========                 |
  \\      /  F ield         | OpenFOAM: The Open Source CFD Toolbox
   \\    /   O peration     | Website:  https://openfoam.org
    \\  /    A nd           | Version:  7
     \\/     M anipulation  |
\*---------------------------------------------------------------------------*/
FoamFile
{
    version     2.0;
    format      ascii;
    class       volScalarField;
    location    "0.004";
    object      mag(U);
}
// * * * * * * * * * * * * * * * * * * * * * * * * * * * * * * * * * * * * * //

dimensions      [0 1 -1 0 0 0 0];

internalField   nonuniform List<scalar> 
1000
(
2.56736e-13
1.28368e-13
3.50095e-13
1.05029e-13
2.21727e-13
4.08444e-13
4.08444e-13
1.98387e-13
3.85105e-13
8.16889e-14
3.26756e-13
2.91746e-13
1.86717e-13
3.03416e-13
3.73435e-13
4.31784e-13
4.78463e-13
3.26756e-13
1.98387e-13
1.86717e-13
1.40038e-13
3.03416e-13
1.40038e-13
2.33397e-14
1.98387e-13
2.21727e-13
3.50095e-14
2.45067e-13
1.75048e-13
3.61765e-13
1.75048e-13
2.80076e-13
8.16889e-14
1.40038e-13
5.83492e-14
2.80076e-13
2.21727e-13
1.75048e-13
1.16698e-13
2.21727e-13
1.75048e-13
1.98387e-13
2.33397e-13
1.98387e-13
4.55124e-13
3.73435e-13
2.10057e-13
1.28368e-13
3.50095e-13
3.85105e-13
6.06832e-13
7.0019e-13
5.13473e-13
7.70209e-13
5.83492e-13
6.06832e-13
3.26756e-13
4.08444e-13
2.21727e-13
2.10057e-13
2.33397e-14
3.03416e-13
1.86717e-13
2.91746e-13
2.21727e-13
3.26756e-13
1.16698e-13
1.63378e-13
1.40038e-13
1.05029e-13
7.0019e-14
2.33397e-14
9.33587e-14
2.80076e-13
3.26756e-13
3.38425e-13
3.96775e-13
4.90133e-13
3.85105e-13
3.03416e-13
2.45067e-13
4.66794e-14
1.16698e-14
3.50095e-13
2.45067e-13
9.33587e-14
2.21727e-13
8.16889e-14
4.66794e-14
2.21727e-13
1.51708e-13
3.38425e-13
3.85105e-13
2.33397e-13
2.33397e-14
2.33397e-14
5.83492e-14
4.66794e-14
1.28368e-13
1.75048e-13
2.80076e-13
2.10057e-13
5.71822e-13
9.33587e-14
4.43454e-13
2.33397e-13
3.61765e-13
1.98387e-13
4.08444e-13
3.26756e-13
2.80076e-13
3.38425e-13
1.75048e-13
1.05029e-13
2.68406e-13
1.63378e-13
3.15086e-13
3.61765e-13
2.80076e-13
8.16889e-14
1.51708e-13
3.50095e-14
1.16698e-14
4.66794e-14
1.63378e-13
1.16698e-14
3.73435e-13
8.16889e-14
4.66794e-14
2.80076e-13
8.16889e-14
1.86717e-13
2.80076e-13
1.51708e-13
4.66794e-14
3.50095e-14
5.83492e-14
1.05029e-13
2.68406e-13
1.51708e-13
4.43454e-13
1.51708e-13
4.78463e-13
1.86717e-13
4.20114e-13
7.0019e-14
2.68406e-13
8.16889e-14
3.73435e-13
7.0019e-14
1.86717e-13
2.10057e-13
1.86717e-13
7.0019e-14
3.73435e-13
8.16889e-14
2.45067e-13
1.16698e-14
3.38425e-13
1.75048e-13
2.33397e-13
1.16698e-13
1.63378e-13
1.16698e-14
2.21727e-13
2.80076e-13
1.51708e-13
3.50095e-14
1.28368e-13
1.40038e-13
1.51708e-13
2.10057e-13
2.91746e-13
1.63378e-13
2.56736e-13
1.05029e-13
8.16889e-14
1.86717e-13
4.66794e-14
2.45067e-13
1.05029e-13
5.83492e-14
2.45067e-13
1.86717e-13
2.80076e-13
2.10057e-13
2.56736e-13
9.33587e-14
3.50095e-14
2.10057e-13
1.16698e-14
3.50095e-14
2.56736e-13
2.68406e-13
1.05029e-13
1.16698e-14
2.10057e-13
5.83492e-14
2.68406e-13
1.51708e-13
1.40038e-13
2.80076e-13
1.28368e-13
3.96775e-13
1.28368e-13
2.68406e-13
4.31784e-13
1.40038e-13
4.31784e-13
2.56736e-13
4.43454e-13
1.28368e-13
1.16698e-13
1.16698e-13
5.83492e-14
3.61765e-13
1.40038e-13
1.16698e-13
1.40038e-13
1.51708e-13
2.33397e-14
1.05029e-13
1.16698e-13
1.86717e-13
1.05029e-13
9.33587e-14
9.33587e-14
1.05029e-13
1.40038e-13
1.16698e-14
2.76575e-27
1.75048e-13
1.16698e-14
1.16698e-13
1.12965e-27
7.0019e-14
1.05029e-13
2.33397e-13
1.16698e-13
2.10057e-13
2.91746e-13
5.83492e-14
8.16889e-14
2.68406e-13
8.16889e-14
1.98387e-13
9.33587e-14
9.33587e-14
1.75048e-13
2.33397e-14
1.40038e-13
1.16698e-13
3.50095e-13
1.63378e-13
5.83492e-14
5.83492e-14
8.16889e-14
3.03416e-13
1.98387e-13
2.68406e-13
1.28368e-13
3.50095e-14
2.45067e-13
1.16698e-14
1.98387e-13
1.51708e-13
4.66794e-14
1.16698e-13
1.40038e-13
4.66794e-14
1.16698e-14
3.50095e-14
1.16698e-14
7.0019e-14
5.83492e-14
4.66794e-14
2.10057e-13
4.90133e-13
1.24867e-12
2.31063e-12
4.69128e-12
9.80267e-12
1.9722e-11
3.78803e-11
7.26097e-11
1.37809e-10
2.60296e-10
4.87274e-10
9.07003e-10
1.67708e-09
3.08206e-09
5.62868e-09
1.02159e-08
1.84248e-08
3.30199e-08
5.8798e-08
1.04024e-07
1.82834e-07
3.19226e-07
5.53634e-07
9.53666e-07
1.63148e-06
2.77166e-06
4.67556e-06
7.83111e-06
1.30217e-05
2.14944e-05
3.5217e-05
5.72672e-05
9.24145e-05
0.000147982
0.000235105
0.000370554
0.000579332
0.000898333
0.00138142
0.0021064
0.00318437
0.00477217
0.00708856
0.0104349
0.0152212
0.0219974
0.0314916
0.0446535
0.0627033
0.0871841
0.120015
0.163544
0.220585
0.294455
0.388979
0.508475
0.657711
0.84182
1.06619
1.33633
1.65768
2.03545
2.47443
2.97884
3.55215
4.19701
4.91516
5.70744
6.57377
7.51324
8.52419
9.60431
10.7508
11.9604
13.2297
14.5551
15.933
17.3596
18.8316
20.3454
21.8979
23.486
25.107
26.7582
28.4372
30.1419
31.8702
33.6203
35.3906
37.1796
38.9859
40.8082
42.6455
44.4968
46.3611
48.2376
50.1254
52.024
53.9326
55.8507
57.7776
59.7129
61.6561
63.6067
65.5643
67.5285
69.4989
71.4752
73.4571
75.4442
77.4363
79.433
81.4342
83.4395
85.4488
87.4617
89.4782
91.4981
93.5211
95.547
97.5758
99.6072
101.641
103.678
105.716
107.757
109.8
111.844
113.891
115.939
117.989
120.041
122.094
124.148
126.204
128.261
130.319
132.378
134.439
136.5
138.563
140.626
142.691
144.756
146.822
148.889
150.956
153.024
155.093
157.162
159.232
161.303
163.374
165.446
167.517
169.59
171.662
173.736
175.808
177.883
179.957
182.032
184.107
186.182
188.257
190.333
192.408
194.485
196.561
198.637
200.714
202.79
204.867
206.944
209.021
211.098
213.175
215.252
217.329
219.407
221.484
223.561
225.639
227.716
229.793
231.87
233.947
236.025
238.102
240.179
242.256
244.332
246.409
248.486
250.562
252.639
254.715
256.791
258.868
260.943
263.019
265.095
267.17
269.246
271.321
273.396
275.47
277.545
279.619
281.693
283.767
285.841
287.914
289.987
292.06
294.133
296.205
298.277
300.349
302.421
304.492
306.563
308.634
310.704
312.774
314.844
316.914
318.983
321.051
323.12
325.188
327.256
329.323
331.39
333.456
335.522
337.588
339.653
341.718
343.783
345.847
347.91
349.973
352.036
354.098
356.16
358.221
360.281
362.342
364.401
366.46
368.518
370.576
372.633
374.69
376.746
378.801
380.856
382.91
384.963
387.015
389.067
391.118
393.168
395.218
397.267
399.314
401.361
403.407
405.452
407.496
409.54
411.582
413.623
415.663
417.702
419.74
421.776
423.811
425.845
427.878
429.91
431.94
433.968
435.995
438.021
440.045
442.067
444.087
446.106
448.123
450.137
452.15
454.161
456.169
458.175
460.179
462.181
464.179
466.175
468.169
470.159
472.146
474.13
476.111
478.088
480.062
482.032
483.998
485.96
487.917
489.87
491.818
493.761
495.699
497.631
499.558
501.479
503.393
505.301
507.201
509.095
510.98
512.858
514.727
516.588
518.439
520.28
522.111
523.931
525.74
527.537
529.321
531.093
532.85
534.593
536.32
538.032
539.727
541.404
543.063
544.703
546.322
547.92
549.496
551.049
552.577
554.081
555.558
557.007
558.428
559.82
561.181
562.51
563.806
565.068
566.295
567.486
568.64
569.756
570.833
571.871
572.869
573.826
574.742
575.616
576.448
577.239
577.987
578.694
579.36
579.985
580.57
581.116
581.623
582.093
582.526
582.925
583.291
583.624
583.928
584.202
584.45
584.673
584.872
585.05
585.206
585.344
585.465
585.57
585.662
585.741
585.809
585.867
585.916
585.957
585.992
586.02
586.044
586.063
586.078
586.09
586.1
586.107
586.113
586.117
586.12
586.121
586.122
586.122
586.121
586.12
586.119
586.118
586.116
586.115
586.113
586.112
586.111
586.109
586.108
586.107
586.106
586.106
586.105
586.104
586.104
586.103
586.103
586.103
586.102
586.102
586.101
586.101
586.1
586.099
586.098
586.096
586.094
586.091
586.088
586.084
586.079
586.073
586.067
586.06
586.052
586.044
586.035
586.026
586.017
586.009
586.001
585.993
585.988
585.986
585.986
585.987
585.988
585.99
585.994
586
586.01
586.022
586.035
586.05
586.066
586.082
586.098
586.113
586.128
586.141
586.155
586.166
586.176
586.185
586.192
586.199
586.206
586.211
586.217
586.222
586.226
586.23
586.234
586.238
586.242
586.246
586.249
586.252
586.256
586.259
586.262
586.265
586.269
586.272
586.276
586.279
586.283
586.287
586.291
586.295
586.299
586.303
586.308
586.312
586.317
586.322
586.326
586.331
586.336
586.341
586.347
586.353
586.359
586.365
586.371
586.377
586.383
586.389
586.395
586.4
586.406
586.411
586.416
586.421
586.425
586.429
586.433
586.437
586.441
586.444
586.448
586.452
586.457
586.461
586.466
586.469
586.473
586.474
586.474
586.472
586.467
586.445
586.422
586.358
586.322
586.155
586.005
585.495
584.646
582.962
579.306
572.405
558.357
530.602
478.323
384.672
241.218
96.3328
23.7949
4.57141
0.747439
0.113277
0.0169442
0.00253481
0.00037959
5.68742e-05
8.52334e-06
1.27744e-06
1.91461e-07
2.86967e-08
4.30107e-09
6.4457e-10
9.66118e-11
1.48353e-11
2.49443e-12
7.87715e-13
5.10556e-13
3.7927e-13
3.93858e-13
1.31286e-13
7.29366e-14
3.06334e-13
1.45873e-13
7.29366e-14
8.75239e-14
1.02111e-13
3.50096e-13
5.07395e-27
2.91746e-13
2.47984e-13
3.7927e-13
3.7927e-13
8.46065e-13
5.83493e-13
7.00191e-13
4.66794e-13
4.81382e-13
3.64683e-13
7.58541e-13
5.9808e-13
8.46065e-13
6.41842e-13
8.75239e-13
7.58541e-13
8.89827e-13
1.00653e-12
1.12322e-12
8.89827e-13
9.62763e-13
8.46065e-13
3.93858e-13
5.68906e-13
2.1881e-13
7.29366e-14
8.75239e-14
1.16699e-13
1.45873e-14
1.31286e-13
2.91746e-13
1.45873e-13
3.20921e-13
2.33397e-13
3.20921e-13
4.95969e-13
8.60652e-13
4.23032e-13
5.39731e-13
3.50096e-13
5.25144e-13
3.50096e-13
3.50096e-13
3.93858e-13
5.83493e-14
1.02111e-13
1.31286e-13
5.83493e-14
1.31286e-13
5.83493e-14
7.29366e-14
1.02111e-13
3.06334e-13
1.89635e-13
3.06334e-13
5.25144e-13
1.60461e-13
5.9808e-13
5.10556e-13
7.29366e-13
7.14779e-13
9.33589e-13
7.43953e-13
1.05029e-12
1.12322e-12
7.58541e-13
8.46065e-13
5.9808e-13
9.04414e-13
3.50096e-13
6.85604e-13
4.08445e-13
7.43953e-13
4.66794e-13
7.14779e-13
5.83493e-13
8.31477e-13
1.22533e-12
1.35662e-12
1.63378e-12
1.79424e-12
1.57543e-12
1.838e-12
1.50249e-12
1.32745e-12
1.22533e-12
1.21075e-12
8.89827e-13
9.91938e-13
6.41842e-13
8.1689e-13
9.62763e-13
7.58541e-13
9.48176e-13
7.14779e-13
9.19001e-13
7.00191e-13
7.29366e-13
4.08445e-13
8.46065e-13
5.10556e-13
7.29366e-13
4.52207e-13
5.83493e-13
1.75048e-13
2.33397e-13
2.10061e-26
1.60461e-13
2.47984e-13
8.75239e-14
8.75239e-14
8.75239e-14
4.3762e-14
4.3762e-14
1.89635e-13
2.1881e-13
1.60461e-13
1.60461e-13
8.75239e-14
1.16699e-13
3.35508e-13
5.10556e-13
3.93858e-13
5.54318e-13
3.64683e-13
4.66794e-13
1.02111e-13
4.3762e-13
2.1881e-13
8.75239e-13
7.87715e-13
7.29366e-13
5.25144e-13
)
;

boundaryField
{
    sides
    {
        type            calculated;
        value           nonuniform List<scalar> 2(5.25144e-13 2.56736e-13);
    }
    empty
    {
        type            empty;
    }
}


// ************************************************************************* //
