/*--------------------------------*- C++ -*----------------------------------*\
  =========                 |
  \\      /  F ield         | OpenFOAM: The Open Source CFD Toolbox
   \\    /   O peration     | Website:  https://openfoam.org
    \\  /    A nd           | Version:  7
     \\/     M anipulation  |
\*---------------------------------------------------------------------------*/
FoamFile
{
    version     2.0;
    format      ascii;
    class       volScalarField;
    location    "0.004";
    object      p;
}
// * * * * * * * * * * * * * * * * * * * * * * * * * * * * * * * * * * * * * //

dimensions      [1 -1 -2 0 0 0 0];

internalField   nonuniform List<scalar> 
1000
(
1e+06
1e+06
1e+06
1e+06
1e+06
1e+06
1e+06
1e+06
1e+06
1e+06
1e+06
1e+06
1e+06
1e+06
1e+06
1e+06
1e+06
1e+06
1e+06
1e+06
1e+06
1e+06
1e+06
1e+06
1e+06
1e+06
1e+06
1e+06
1e+06
1e+06
1e+06
1e+06
1e+06
1e+06
1e+06
1e+06
1e+06
1e+06
1e+06
1e+06
1e+06
1e+06
1e+06
1e+06
1e+06
1e+06
1e+06
1e+06
1e+06
1e+06
1e+06
1e+06
1e+06
1e+06
1e+06
1e+06
1e+06
1e+06
1e+06
1e+06
1e+06
1e+06
1e+06
1e+06
1e+06
1e+06
1e+06
1e+06
1e+06
1e+06
1e+06
1e+06
1e+06
1e+06
1e+06
1e+06
1e+06
1e+06
1e+06
1e+06
1e+06
1e+06
1e+06
1e+06
1e+06
1e+06
1e+06
1e+06
1e+06
1e+06
1e+06
1e+06
1e+06
1e+06
1e+06
1e+06
1e+06
1e+06
1e+06
1e+06
1e+06
1e+06
1e+06
1e+06
1e+06
1e+06
1e+06
1e+06
1e+06
1e+06
1e+06
1e+06
1e+06
1e+06
1e+06
1e+06
1e+06
1e+06
1e+06
1e+06
1e+06
1e+06
1e+06
1e+06
1e+06
1e+06
1e+06
1e+06
1e+06
1e+06
1e+06
1e+06
1e+06
1e+06
1e+06
1e+06
1e+06
1e+06
1e+06
1e+06
1e+06
1e+06
1e+06
1e+06
1e+06
1e+06
1e+06
1e+06
1e+06
1e+06
1e+06
1e+06
1e+06
1e+06
1e+06
1e+06
1e+06
1e+06
1e+06
1e+06
1e+06
1e+06
1e+06
1e+06
1e+06
1e+06
1e+06
1e+06
1e+06
1e+06
1e+06
1e+06
1e+06
1e+06
1e+06
1e+06
1e+06
1e+06
1e+06
1e+06
1e+06
1e+06
1e+06
1e+06
1e+06
1e+06
1e+06
1e+06
1e+06
1e+06
1e+06
1e+06
1e+06
1e+06
1e+06
1e+06
1e+06
1e+06
1e+06
1e+06
1e+06
1e+06
1e+06
1e+06
1e+06
1e+06
1e+06
1e+06
1e+06
1e+06
1e+06
1e+06
1e+06
1e+06
1e+06
1e+06
1e+06
1e+06
1e+06
1e+06
1e+06
1e+06
1e+06
1e+06
1e+06
1e+06
1e+06
1e+06
1e+06
1e+06
1e+06
1e+06
1e+06
1e+06
1e+06
1e+06
1e+06
1e+06
1e+06
1e+06
1e+06
1e+06
1e+06
1e+06
1e+06
1e+06
1e+06
1e+06
1e+06
1e+06
1e+06
1e+06
1e+06
1e+06
1e+06
1e+06
1e+06
1e+06
1e+06
1e+06
1e+06
1e+06
1e+06
1e+06
1e+06
1e+06
1e+06
1e+06
1e+06
1e+06
1e+06
1e+06
1e+06
1e+06
1e+06
1e+06
1e+06
1e+06
1e+06
1e+06
1e+06
1e+06
1e+06
1e+06
1e+06
1e+06
1e+06
1e+06
1e+06
1e+06
1e+06
1e+06
1e+06
1e+06
1e+06
1e+06
1e+06
1e+06
1e+06
1e+06
1e+06
1e+06
1e+06
1e+06
1e+06
1e+06
1e+06
1e+06
1e+06
1e+06
999999
999999
999999
999998
999997
999995
999992
999988
999982
999974
999962
999944
999919
999884
999835
999768
999677
999556
999394
999182
998908
998556
998112
997557
996873
996039
995035
993841
992439
990811
988943
986823
984442
981796
978884
975708
972273
968588
964664
960514
956152
951593
946852
941946
936889
931697
926383
920960
915442
909839
904162
898422
892626
886784
880901
874985
869042
863077
857095
851101
845097
839089
833078
827069
821063
815063
809072
803091
797123
791168
785230
779308
773405
767522
761660
755819
750002
744209
738441
732698
726982
721293
715632
709999
704394
698819
693274
687758
682273
676819
671395
666003
660643
655314
650017
644752
639519
634318
629150
624014
618910
613839
608800
603794
598821
593880
588971
584095
579251
574440
569661
564914
560199
555517
550866
546247
541661
537106
532582
528090
523630
519200
514803
510435
506100
501796
497522
493278
489064
484881
480728
476605
472512
468448
464414
460410
456435
452488
448571
444683
440824
436993
433190
429416
425669
421951
418261
414598
410962
407354
403773
400219
396692
393192
389718
386271
382850
379455
376086
372743
369425
366133
362866
359624
356408
353216
350049
346907
343789
340695
337625
334580
331558
328560
325585
322634
319706
316801
313919
311060
308224
305410
302618
299849
297101
294376
291672
288991
286330
283691
281073
278477
275901
273346
270812
268299
265805
263333
260880
258447
256034
253641
251268
248914
246580
244265
241968
239691
237433
235194
232973
230770
228587
226421
224273
222144
220032
217938
215862
213804
211762
209739
207732
205742
203770
201814
199875
197953
196047
194158
192285
190428
188587
186763
184954
183161
181384
179622
177876
176146
174431
172730
171046
169376
167721
166081
164455
162845
161249
159667
158100
156547
155009
153485
151975
150479
148997
147528
146074
144633
143206
141793
140393
139007
137634
136275
134929
133596
132277
130970
129677
128397
127130
125876
124635
123407
122192
120990
119801
118625
117462
116311
115174
114049
112937
111839
110753
109680
108620
107573
106540
105519
104512
103518
102537
101570
100616
99675.4
98748.9
97836.2
96937.3
96052.6
95182
94325.7
93483.9
92656.8
91844.5
91047.1
90264.9
89498.1
88746.8
88011.3
87291.8
86588.4
85901.5
85231.2
84577.7
83941.3
83322.2
82720.6
82136.8
81570.8
81023
80493.4
79982.4
79489.9
79016.1
78561.1
78125
77707.8
77309.5
76930.1
76569.5
76227.5
75904
75598.8
75311.6
75042.1
74789.9
74554.7
74336
74133.2
73945.9
73773.4
73615.2
73470.6
73339
73219.7
73111.7
73014.8
72928.5
72850.9
72781.3
72720.7
72667.6
72621.2
72580.9
72546.1
72516.3
72490.9
72469.5
72451.5
72436.7
72424.5
72414.7
72406.9
72400.9
72396.4
72393.1
72391
72389.7
72389.4
72389.6
72389.8
72390.8
72392.2
72394
72396.1
72398.2
72400.4
72402.8
72405.1
72407.6
72410
72412.4
72414.9
72417.3
72419.7
72422
72424.3
72426.6
72428.8
72430.9
72433
72435
72437
72438.9
72440.7
72442.4
72444.1
72445.6
72447.1
72448.5
72449.7
72450.9
72452
72452.9
72453.8
72454.6
72455.3
72456
72456.7
72457.2
72457.9
72458.4
72459.1
72459.7
72460.6
72461.4
72462.9
72464
72466.5
72468.1
72470.4
72471
72472.3
72474.7
72477.5
72480.4
72483.1
72485.9
72488.5
72491
72493.3
72495.6
72497.6
72499.4
72501.1
72502.5
72504.1
72504.9
72505.5
72506.2
72506.8
72507.4
72507.9
72508.3
72508.7
72509.1
72509.5
72510
72510.5
72511
72511.6
72512.2
72512.9
72513.7
72514.5
72515.3
72516.2
72517.1
72518.1
72519
72520
72520.9
72521.9
72522.8
72523.8
72524.7
72525.6
72526.6
72527.7
72528.7
72529.7
72530.6
72531.6
72532.6
72533.6
72534.5
72535.4
72536.2
72537.1
72537.9
72538.7
72539.6
72540.5
72541.4
72542.4
72543.4
72544.5
72545.6
72546.8
72548.1
72549.4
72550.8
72552.2
72553.7
72555.1
72556.5
72558
72559.2
72560.5
72561.4
72562.1
72562.7
72563
72562.9
72562.4
72561.5
72558.6
72555
72547.3
72538.9
72523.3
72485.6
72451
72278.5
72147.7
71539.5
70614.6
68726.4
65111.6
58660.3
48684.3
35053.1
21959.4
13906.1
10878.3
10149.8
10022.9
10003.4
10000.5
10000.1
10000
10000
10000
10000
10000
10000
10000
10000
10000
10000
10000
10000
10000
10000
10000
10000
10000
10000
10000
10000
10000
10000
10000
10000
10000
10000
10000
10000
10000
10000
10000
10000
10000
10000
10000
10000
10000
10000
10000
10000
10000
10000
10000
10000
10000
10000
10000
10000
10000
10000
10000
10000
10000
10000
10000
10000
10000
10000
10000
10000
10000
10000
10000
10000
10000
10000
10000
10000
10000
10000
10000
10000
10000
10000
10000
10000
10000
10000
10000
10000
10000
10000
10000
10000
10000
10000
10000
10000
10000
10000
10000
10000
10000
10000
10000
10000
10000
10000
10000
10000
10000
10000
10000
10000
10000
10000
10000
10000
10000
10000
10000
10000
10000
10000
10000
10000
10000
10000
10000
10000
10000
10000
10000
10000
10000
10000
10000
10000
10000
10000
10000
10000
10000
10000
10000
10000
10000
10000
10000
10000
10000
10000
10000
10000
10000
10000
10000
10000
10000
10000
10000
10000
10000
10000
10000
10000
10000
)
;

boundaryField
{
    sides
    {
        type            zeroGradient;
    }
    empty
    {
        type            empty;
    }
}


// ************************************************************************* //
