/*--------------------------------*- C++ -*----------------------------------*\
  =========                 |
  \\      /  F ield         | OpenFOAM: The Open Source CFD Toolbox
   \\    /   O peration     | Website:  https://openfoam.org
    \\  /    A nd           | Version:  7
     \\/     M anipulation  |
\*---------------------------------------------------------------------------*/
FoamFile
{
    version     2.0;
    format      ascii;
    class       surfaceScalarField;
    location    "0.004";
    object      phi;
}
// * * * * * * * * * * * * * * * * * * * * * * * * * * * * * * * * * * * * * //

dimensions      [1 0 -1 0 0 0 0];

internalField   nonuniform List<scalar> 
999
(
-8.6402e-12
-1.00044e-11
-1.09139e-11
-7.27596e-12
-1.36424e-11
-1.72804e-11
-1.18234e-11
-1.31877e-11
-3.18323e-12
-7.7307e-12
-1.18234e-11
-9.54969e-12
-9.54969e-12
-1.50067e-11
-1.63709e-11
-1.68257e-11
-1.72804e-11
-9.54969e-12
-7.7307e-12
-7.27596e-12
-1.13687e-11
-3.18323e-12
4.09273e-12
5.91172e-12
-4.54747e-13
-5.45697e-12
-6.36646e-12
-5.91172e-12
-1.40972e-11
-1.09139e-11
-9.09495e-12
-5.91172e-12
-5.91172e-12
-4.09273e-12
-5.00222e-12
-1.22782e-11
-1.18234e-11
-3.18323e-12
-9.09495e-12
-9.09495e-12
-7.27596e-12
-1.09139e-11
-7.27596e-12
-1.27329e-11
-1.72804e-11
-1.13687e-11
-6.82121e-12
-7.7307e-12
-1.86446e-11
-1.72804e-11
-2.72848e-11
-2.36469e-11
-2.45564e-11
-2.86491e-11
-2.72848e-11
-1.50067e-11
-1.68257e-11
-1.22782e-11
-1.04592e-11
-1.36424e-12
-1.18234e-11
-5.45697e-12
-1.31877e-11
-8.6402e-12
-1.31877e-11
-8.18545e-12
-7.7307e-12
1.81899e-12
4.09273e-12
5.00222e-12
1.81899e-12
9.09495e-13
-2.27374e-12
-1.22782e-11
-1.36424e-11
-1.54614e-11
-1.81899e-11
-1.81899e-11
-1.27329e-11
-1.36424e-11
-4.09273e-12
-2.27374e-12
9.09495e-12
1.27329e-11
7.7307e-12
-4.09273e-12
-3.18323e-12
1.81899e-12
-7.27596e-12
-8.18545e-12
-9.54969e-12
-1.50067e-11
-1.50067e-11
-3.63798e-12
-4.54747e-13
0
0
-3.63798e-12
2.27374e-12
-3.63798e-12
-7.27596e-12
-1.54614e-11
-1.63709e-11
-8.6402e-12
-1.40972e-11
-1.31877e-11
-1.13687e-11
-1.09139e-11
-1.90994e-11
-7.27596e-12
-1.54614e-11
-1.04592e-11
-6.36646e-12
-7.7307e-12
-1.04592e-11
-9.54969e-12
-9.54969e-12
-1.72804e-11
-5.91172e-12
-6.82121e-12
-2.72848e-12
9.09495e-13
1.81899e-12
4.54747e-12
3.63798e-12
8.18545e-12
8.6402e-12
-3.63798e-12
-4.09273e-12
-5.91172e-12
-6.82121e-12
-8.18545e-12
-1.18234e-11
-1.81899e-12
-9.09495e-13
-9.09495e-13
4.09273e-12
-4.54747e-13
-1.13687e-11
-1.31877e-11
-1.13687e-11
-1.40972e-11
-1.59162e-11
-1.22782e-11
-1.13687e-11
-6.36646e-12
-3.18323e-12
-7.7307e-12
-7.27596e-12
-3.63798e-12
-1.36424e-12
3.18323e-12
-9.54969e-12
-9.54969e-12
-8.6402e-12
-7.7307e-12
-3.18323e-12
-6.82121e-12
-1.09139e-11
-7.7307e-12
-4.54747e-12
-9.09495e-12
-2.27374e-12
-4.09273e-12
-1.18234e-11
-1.00044e-11
-3.18323e-12
1.36424e-12
5.91172e-12
5.91172e-12
5.00222e-12
7.7307e-12
1.36424e-11
5.45697e-12
5.45697e-12
-9.09495e-13
-2.27374e-12
-4.09273e-12
-3.63798e-12
-3.63798e-12
4.54747e-12
7.27596e-12
6.82121e-12
1.13687e-11
9.54969e-12
1.04592e-11
4.54747e-12
-2.27374e-12
-2.27374e-12
-6.82121e-12
-9.09495e-13
6.82121e-12
1.00044e-11
1.04592e-11
1.36424e-12
-4.54747e-12
-6.36646e-12
-6.82121e-12
-4.09273e-12
0
3.18323e-12
5.45697e-12
1.13687e-11
6.82121e-12
2.72848e-12
-2.72848e-12
-1.22782e-11
-1.31877e-11
-1.50067e-11
-1.45519e-11
-1.31877e-11
-5.45697e-12
-4.54747e-13
1.81899e-12
6.36646e-12
1.22782e-11
5.45697e-12
-1.36424e-12
-7.27596e-12
-9.09495e-13
-2.72848e-12
1.36424e-12
-4.09273e-12
-3.63798e-12
-4.54747e-12
-3.18323e-12
-4.54747e-12
-3.18323e-12
-2.27374e-12
-9.09495e-13
5.45697e-12
4.09273e-12
3.63798e-12
1.81899e-12
2.27374e-12
5.00222e-12
5.00222e-12
9.09495e-12
7.27596e-12
9.09495e-12
1.00044e-11
2.27374e-12
7.7307e-12
1.00044e-11
5.00222e-12
2.72848e-12
-1.81899e-12
-8.6402e-12
-1.36424e-12
-4.54747e-12
-5.45697e-12
-1.00044e-11
-7.27596e-12
-5.91172e-12
1.36424e-12
1.81899e-12
8.6402e-12
1.40972e-11
6.82121e-12
1.18234e-11
9.09495e-13
6.36646e-12
4.09273e-12
5.00222e-12
7.27596e-12
2.27374e-12
-5.00222e-12
-5.45697e-12
-4.54747e-12
4.54747e-13
-1.36424e-12
1.36424e-12
-3.63798e-12
-1.81899e-12
-3.18323e-12
1.36424e-12
1.31877e-11
3.31966e-11
6.59384e-11
1.23691e-10
2.66937e-10
5.41604e-10
1.06138e-09
2.03727e-09
3.88172e-09
7.36054e-09
1.38402e-08
2.58465e-08
4.7969e-08
8.8467e-08
1.6214e-07
2.95328e-07
5.34567e-07
9.61512e-07
1.71845e-06
3.05154e-06
5.38357e-06
9.43537e-06
1.64267e-05
2.84059e-05
4.87863e-05
8.32112e-05
0.000140936
0.000237016
0.000395741
0.000655963
0.0010793
0.00176259
0.00285672
0.00459453
0.00733206
0.0116084
0.018232
0.0284024
0.0438818
0.0672307
0.102129
0.153804
0.229597
0.339693
0.49804
0.723496
1.04121
1.48424
2.09543
2.92939
4.05466
5.55577
7.53509
10.1143
13.4351
17.6589
22.9656
29.5508
37.6214
47.3903
59.0695
72.8626
88.9574
107.518
128.678
152.536
179.152
208.546
240.698
275.551
313.013
352.965
395.263
439.747
486.243
534.573
584.557
636.017
688.78
742.681
797.564
853.282
909.701
966.694
1024.15
1081.96
1140.04
1198.29
1256.65
1315.04
1373.4
1431.67
1489.82
1547.78
1605.52
1663.01
1720.21
1777.1
1833.64
1889.81
1945.6
2000.97
2055.92
2110.43
2164.47
2218.05
2271.14
2323.74
2375.83
2427.41
2478.47
2528.99
2578.98
2628.43
2677.32
2725.67
2773.46
2820.68
2867.35
2913.45
2958.98
3003.94
3048.33
3092.15
3135.39
3178.07
3220.17
3261.7
3302.66
3343.05
3382.87
3422.13
3460.81
3498.94
3536.5
3573.5
3609.94
3645.83
3681.16
3715.95
3750.18
3783.87
3817.01
3849.62
3881.69
3913.22
3944.23
3974.7
4004.67
4034.07
4063.04
4091.33
4119.39
4146.52
4173.71
4199.75
4225.9
4251.16
4275.92
4300.68
4324.09
4348.08
4370.63
4393.25
4415.41
4436.71
4457.96
4478.65
4498.64
4518.51
4537.8
4556.53
4574.98
4592.99
4610.43
4627.55
4644.26
4660.48
4676.27
4691.73
4706.73
4721.3
4735.47
4749.29
4762.67
4775.65
4788.25
4800.47
4812.3
4823.74
4834.81
4845.52
4855.85
4865.8
4875.4
4884.64
4893.52
4902.05
4910.22
4918.05
4925.55
4932.69
4939.5
4945.98
4952.13
4957.95
4963.44
4968.62
4973.47
4978.02
4982.25
4986.18
4989.8
4993.11
4996.13
4998.86
5001.29
5003.43
5005.29
5006.86
5008.15
5009.16
5009.9
5010.37
5010.57
5010.5
5010.17
5009.59
5008.74
5007.64
5006.29
5004.69
5002.84
5000.75
4998.43
4995.86
4993.06
4990.03
4986.77
4983.28
4979.57
4975.63
4971.48
4967.11
4962.53
4957.74
4952.74
4947.54
4942.13
4936.53
4930.72
4924.72
4918.53
4912.15
4905.58
4898.82
4891.88
4884.77
4877.47
4870
4862.36
4854.54
4846.56
4838.41
4830.1
4821.63
4813
4804.22
4795.28
4786.19
4776.95
4767.56
4758.03
4748.36
4738.54
4728.59
4718.51
4708.29
4697.95
4687.47
4676.87
4666.14
4655.3
4644.33
4633.25
4622.05
4610.75
4599.33
4587.8
4576.18
4564.44
4552.61
4540.68
4528.66
4516.54
4504.33
4492.03
4479.65
4467.18
4454.64
4442.01
4429.31
4416.54
4403.7
4390.78
4377.81
4364.77
4351.67
4338.52
4325.31
4312.05
4298.74
4285.39
4272
4258.57
4245.1
4231.6
4218.08
4204.53
4190.95
4177.36
4163.76
4150.15
4136.53
4122.91
4109.3
4095.69
4082.1
4068.52
4054.97
4041.44
4027.95
4014.49
4001.08
3987.72
3974.41
3961.17
3947.99
3934.9
3921.88
3908.96
3896.13
3883.41
3870.81
3858.32
3845.97
3833.75
3821.68
3809.76
3798.02
3786.44
3775.05
3763.85
3752.86
3742.08
3731.52
3721.19
3711.1
3701.26
3691.67
3682.35
3673.31
3664.54
3656.06
3647.87
3639.97
3632.38
3625.09
3618.11
3611.44
3605.07
3599.01
3593.25
3587.79
3582.63
3577.75
3573.16
3568.84
3564.79
3560.98
3557.43
3554.11
3551
3548.08
3545.35
3542.82
3540.44
3538.22
3536.13
3534.16
3532.3
3530.53
3528.84
3527.21
3525.65
3524.13
3522.65
3521.18
3519.74
3518.29
3516.84
3515.38
3513.89
3512.38
3510.83
3509.23
3507.57
3505.85
3504.09
3502.25
3500.34
3498.36
3496.29
3494.14
3491.88
3489.52
3487.02
3484.37
3481.53
3478.47
3475.11
3471.41
3467.26
3462.56
3457.2
3451.01
3443.83
3435.47
3425.71
3414.32
3401.05
3385.62
3367.78
3347.22
3323.68
3296.88
3266.58
3232.56
3194.61
3152.6
3106.43
3056.05
3001.49
2942.83
2880.23
2813.91
2744.15
2671.32
2595.83
2518.13
2438.74
2358.19
2277.03
2195.83
2115.15
2035.53
1957.49
1881.49
1808.02
1737.42
1670.05
1606.15
1545.94
1489.54
1437.04
1388.46
1343.78
1302.92
1265.76
1232.17
1201.96
1174.94
1150.92
1129.66
1110.95
1094.58
1080.33
1067.98
1057.34
1048.22
1040.45
1033.86
1028.31
1023.65
1019.77
1016.56
1013.91
1011.75
1010
1008.59
1007.46
1006.57
1005.87
1005.33
1004.92
1004.61
1004.39
1004.23
1004.12
1004.06
1004.02
1004.01
1004.02
1004.03
1004.06
1004.1
1004.14
1004.19
1004.24
1004.29
1004.34
1004.39
1004.44
1004.48
1004.53
1004.57
1004.61
1004.65
1004.68
1004.72
1004.76
1004.79
1004.82
1004.86
1004.89
1004.92
1004.95
1004.98
1005.01
1005.03
1005.06
1005.09
1005.11
1005.14
1005.16
1005.18
1005.21
1005.23
1005.25
1005.26
1005.27
1005.26
1005.25
1005.18
1005.13
1004.98
1004.83
1004.44
1003.55
1002.26
999.327
993.823
982.758
961.301
918.331
842.78
715.356
526.934
301.326
119
30.5939
5.39623
0.813313
0.120231
0.0178739
0.00266967
0.000399605
5.98645e-05
8.97103e-06
1.34451e-06
2.01513e-07
3.02029e-08
4.52688e-09
6.78575e-10
1.01657e-10
1.53548e-11
2.40163e-12
5.40012e-13
2.55795e-13
2.4869e-13
1.7053e-13
1.56319e-13
4.26326e-14
1.06581e-13
1.20792e-13
4.26326e-14
4.26326e-14
3.55271e-14
1.27898e-13
9.9476e-14
3.55271e-14
1.49214e-13
1.20792e-13
2.13163e-13
3.05533e-13
3.33955e-13
3.62377e-13
2.84217e-13
2.62901e-13
2.20268e-13
2.4869e-13
3.55271e-13
3.69482e-13
3.90799e-13
3.69482e-13
3.76588e-13
4.33431e-13
4.26326e-13
5.7554e-13
5.04485e-13
4.76064e-13
3.97904e-13
3.55271e-13
2.20268e-13
2.13163e-13
9.23706e-14
-2.13163e-14
-4.26326e-14
-2.13163e-14
2.84217e-14
1.13687e-13
1.42109e-13
9.23706e-14
1.63425e-13
1.13687e-13
1.98952e-13
3.48166e-13
3.12639e-13
2.4869e-13
2.06057e-13
2.27374e-13
2.4869e-13
1.7053e-13
1.63425e-13
1.35003e-13
6.39488e-14
-4.26326e-14
0
-2.13163e-14
-3.55271e-14
4.26326e-14
4.26326e-14
1.13687e-13
9.9476e-14
1.13687e-13
2.27374e-13
1.63425e-13
1.56319e-13
3.12639e-13
2.91323e-13
3.62377e-13
4.26326e-13
4.40536e-13
4.47642e-13
5.18696e-13
4.54747e-13
4.26326e-13
3.12639e-13
4.12115e-13
3.2685e-13
2.62901e-13
2.84217e-13
2.84217e-13
2.91323e-13
3.05533e-13
2.84217e-13
3.55271e-13
5.32907e-13
6.46594e-13
7.81597e-13
7.95808e-13
8.66862e-13
8.81073e-13
7.95808e-13
7.10543e-13
6.60805e-13
5.7554e-13
5.40012e-13
4.90274e-13
4.05009e-13
3.48166e-13
4.47642e-13
4.47642e-13
4.26326e-13
3.90799e-13
4.1922e-13
4.26326e-13
3.2685e-13
2.98428e-13
2.84217e-13
3.55271e-13
3.2685e-13
2.91323e-13
3.05533e-13
1.77636e-13
9.9476e-14
4.26326e-14
4.9738e-14
-2.84217e-14
-7.10543e-14
-3.55271e-14
-2.13163e-14
5.68434e-14
1.42109e-14
4.9738e-14
1.20792e-13
1.20792e-13
9.23706e-14
4.9738e-14
6.39488e-14
8.52651e-14
2.27374e-13
2.4869e-13
2.06057e-13
2.84217e-13
1.91847e-13
1.27898e-13
9.9476e-14
1.84741e-13
2.70006e-13
4.12115e-13
4.05009e-13
3.33955e-13
)
;

boundaryField
{
    sides
    {
        type            calculated;
        value           nonuniform List<scalar> 2(2.47383e-13 9.77889e-12);
    }
    empty
    {
        type            empty;
        value           nonuniform 0();
    }
}


// ************************************************************************* //
