/*--------------------------------*- C++ -*----------------------------------*\
  =========                 |
  \\      /  F ield         | OpenFOAM: The Open Source CFD Toolbox
   \\    /   O peration     | Website:  https://openfoam.org
    \\  /    A nd           | Version:  7
     \\/     M anipulation  |
\*---------------------------------------------------------------------------*/
FoamFile
{
    version     2.0;
    format      ascii;
    class       volScalarField;
    location    "0.004";
    object      rho;
}
// * * * * * * * * * * * * * * * * * * * * * * * * * * * * * * * * * * * * * //

dimensions      [1 -3 0 0 0 0 0];

internalField   nonuniform List<scalar> 
1000
(
9.97574
9.97574
9.97574
9.97574
9.97574
9.97574
9.97574
9.97574
9.97574
9.97574
9.97574
9.97574
9.97574
9.97574
9.97574
9.97574
9.97574
9.97574
9.97574
9.97574
9.97574
9.97574
9.97574
9.97574
9.97574
9.97574
9.97574
9.97574
9.97574
9.97574
9.97574
9.97574
9.97574
9.97574
9.97574
9.97574
9.97574
9.97574
9.97574
9.97574
9.97574
9.97574
9.97574
9.97574
9.97574
9.97574
9.97574
9.97574
9.97574
9.97574
9.97574
9.97574
9.97574
9.97574
9.97574
9.97574
9.97574
9.97574
9.97574
9.97574
9.97574
9.97574
9.97574
9.97574
9.97574
9.97574
9.97574
9.97574
9.97574
9.97574
9.97574
9.97574
9.97574
9.97574
9.97574
9.97574
9.97574
9.97574
9.97574
9.97574
9.97574
9.97574
9.97574
9.97574
9.97574
9.97574
9.97574
9.97574
9.97574
9.97574
9.97574
9.97574
9.97574
9.97574
9.97574
9.97574
9.97574
9.97574
9.97574
9.97574
9.97574
9.97574
9.97574
9.97574
9.97574
9.97574
9.97574
9.97574
9.97574
9.97574
9.97574
9.97574
9.97574
9.97574
9.97574
9.97574
9.97574
9.97574
9.97574
9.97574
9.97574
9.97574
9.97574
9.97574
9.97574
9.97574
9.97574
9.97574
9.97574
9.97574
9.97574
9.97574
9.97574
9.97574
9.97574
9.97574
9.97574
9.97574
9.97574
9.97574
9.97574
9.97574
9.97574
9.97574
9.97574
9.97574
9.97574
9.97574
9.97574
9.97574
9.97574
9.97574
9.97574
9.97574
9.97574
9.97574
9.97574
9.97574
9.97574
9.97574
9.97574
9.97574
9.97574
9.97574
9.97574
9.97574
9.97574
9.97574
9.97574
9.97574
9.97574
9.97574
9.97574
9.97574
9.97574
9.97574
9.97574
9.97574
9.97574
9.97574
9.97574
9.97574
9.97574
9.97574
9.97574
9.97574
9.97574
9.97574
9.97574
9.97574
9.97574
9.97574
9.97574
9.97574
9.97574
9.97574
9.97574
9.97574
9.97574
9.97574
9.97574
9.97574
9.97574
9.97574
9.97574
9.97574
9.97574
9.97574
9.97574
9.97574
9.97574
9.97574
9.97574
9.97574
9.97574
9.97574
9.97574
9.97574
9.97574
9.97574
9.97574
9.97574
9.97574
9.97574
9.97574
9.97574
9.97574
9.97574
9.97574
9.97574
9.97574
9.97574
9.97574
9.97574
9.97574
9.97574
9.97574
9.97574
9.97574
9.97574
9.97574
9.97574
9.97574
9.97574
9.97574
9.97574
9.97574
9.97574
9.97574
9.97574
9.97574
9.97574
9.97574
9.97574
9.97574
9.97574
9.97574
9.97574
9.97574
9.97574
9.97574
9.97574
9.97574
9.97574
9.97574
9.97574
9.97574
9.97574
9.97574
9.97574
9.97574
9.97574
9.97574
9.97574
9.97574
9.97574
9.97574
9.97574
9.97574
9.97574
9.97574
9.97574
9.97574
9.97574
9.97574
9.97574
9.97574
9.97574
9.97574
9.97574
9.97574
9.97574
9.97574
9.97574
9.97574
9.97574
9.97574
9.97574
9.97574
9.97574
9.97574
9.97574
9.97574
9.97574
9.97574
9.97574
9.97574
9.97574
9.97574
9.97574
9.97574
9.97574
9.97573
9.97573
9.97572
9.97571
9.97569
9.97566
9.97562
9.97556
9.97547
9.97534
9.97516
9.97491
9.97457
9.97409
9.97344
9.97258
9.97143
9.96992
9.96796
9.96546
9.9623
9.95834
9.95347
9.94752
9.94036
9.93185
9.92184
9.91022
9.89688
9.88173
9.86471
9.84577
9.82491
9.80214
9.77749
9.75102
9.72279
9.69291
9.66145
9.62854
9.59426
9.55873
9.52206
9.48434
9.44568
9.40616
9.36588
9.32491
9.28332
9.24119
9.19858
9.15554
9.11213
9.06838
9.02435
8.98007
8.93558
8.8909
8.84607
8.80111
8.75604
8.71089
8.66567
8.6204
8.5751
8.52979
8.48447
8.43916
8.39388
8.34863
8.30342
8.25827
8.21317
8.16816
8.12322
8.07836
8.0336
7.98894
7.94439
7.89995
7.85562
7.81142
7.76734
7.7234
7.67959
7.63592
7.59238
7.549
7.50576
7.46267
7.41974
7.37696
7.33433
7.29187
7.24957
7.20743
7.16545
7.12364
7.082
7.04052
6.99922
6.95808
6.91711
6.87632
6.83569
6.79524
6.75497
6.71487
6.67494
6.63519
6.5956
6.55622
6.51694
6.478
6.43889
6.40063
6.36132
6.32429
6.28405
6.24904
6.20725
6.17439
6.13178
6.09935
6.05832
6.02386
5.98614
5.94938
5.91346
5.8771
5.84045
5.80555
5.76896
5.7338
5.69839
5.66323
5.62788
5.59347
5.55844
5.52405
5.48961
5.45562
5.42136
5.38768
5.35393
5.3205
5.28703
5.25396
5.22091
5.1881
5.15537
5.12291
5.09054
5.05838
5.02632
4.9945
4.96279
4.93127
4.89988
4.86869
4.83763
4.80676
4.77601
4.74545
4.71503
4.6848
4.65469
4.62476
4.59496
4.56535
4.53587
4.50656
4.47739
4.44838
4.41952
4.39083
4.36227
4.33387
4.30562
4.27752
4.24957
4.22177
4.19412
4.16662
4.13926
4.11205
4.08499
4.05807
4.0313
4.00467
3.97819
3.95185
3.92566
3.89961
3.8737
3.84793
3.82231
3.79682
3.77147
3.74626
3.7212
3.69627
3.67148
3.64682
3.62231
3.59793
3.57369
3.54958
3.52561
3.50177
3.47806
3.45449
3.43106
3.40775
3.38458
3.36153
3.33862
3.31584
3.29319
3.27067
3.24828
3.22602
3.20389
3.18188
3.16001
3.13825
3.11663
3.09513
3.07376
3.05251
3.0314
3.0104
2.98953
2.96878
2.94816
2.92765
2.90727
2.88701
2.86688
2.84687
2.82698
2.80721
2.78756
2.76803
2.74863
2.72934
2.71017
2.69112
2.67219
2.65338
2.63469
2.61612
2.59767
2.57933
2.56111
2.54302
2.52503
2.50717
2.48943
2.4718
2.45429
2.4369
2.41963
2.40248
2.38544
2.36852
2.35173
2.33505
2.31849
2.30204
2.28572
2.26952
2.25344
2.23748
2.22164
2.20592
2.19032
2.17485
2.1595
2.14428
2.12918
2.11421
2.09936
2.08464
2.07005
2.05559
2.04127
2.02707
2.01302
1.99909
1.98531
1.97166
1.95816
1.94479
1.93158
1.91851
1.90559
1.89282
1.88021
1.86775
1.85545
1.84332
1.83135
1.81956
1.80793
1.79648
1.78521
1.77413
1.76323
1.75252
1.74201
1.7317
1.72159
1.71169
1.702
1.69253
1.68328
1.67425
1.66546
1.6569
1.64858
1.6405
1.63267
1.62508
1.61776
1.61068
1.60387
1.59731
1.59102
1.58498
1.57921
1.57371
1.56846
1.56348
1.55875
1.55428
1.55006
1.54608
1.54235
1.53884
1.53557
1.53252
1.52968
1.52703
1.52459
1.52233
1.52024
1.51831
1.51652
1.51488
1.51337
1.51199
1.51072
1.50953
1.50845
1.50743
1.5065
1.50561
1.5048
1.504
1.50327
1.50254
1.50185
1.50117
1.50051
1.49984
1.49919
1.49852
1.49786
1.49717
1.49647
1.49573
1.495
1.49422
1.49343
1.49259
1.49174
1.49084
1.48991
1.48892
1.4879
1.4868
1.48564
1.48438
1.48304
1.48153
1.47988
1.47799
1.47588
1.47341
1.47061
1.46729
1.46347
1.45897
1.45376
1.44766
1.4406
1.43243
1.42306
1.41235
1.40021
1.38651
1.37118
1.35415
1.33536
1.31478
1.2924
1.26825
1.24238
1.21486
1.18583
1.15538
1.12372
1.091
1.05746
1.0233
0.988764
0.95408
0.919506
0.885263
0.851587
0.818682
0.786748
0.755966
0.726502
0.698471
0.671971
0.647074
0.623828
0.602254
0.582352
0.564102
0.54746
0.532374
0.518773
0.506578
0.495704
0.486063
0.477553
0.470087
0.463572
0.457914
0.453028
0.448829
0.445241
0.442192
0.439614
0.437447
0.435636
0.434132
0.432889
0.431871
0.43104
0.430369
0.429831
0.429402
0.429065
0.428802
0.4286
0.428447
0.428334
0.428251
0.428193
0.428155
0.428131
0.42812
0.428116
0.428119
0.428126
0.428137
0.428151
0.428168
0.428185
0.428203
0.428221
0.428238
0.428255
0.42827
0.428285
0.428299
0.428312
0.428324
0.428336
0.428347
0.428358
0.428369
0.428379
0.42839
0.4284
0.428409
0.428419
0.428428
0.428438
0.428446
0.428455
0.428463
0.428472
0.42848
0.428487
0.428494
0.4285
0.428505
0.428512
0.428515
0.428518
0.428514
0.428519
0.428497
0.428499
0.42844
0.428457
0.42833
0.428262
0.427943
0.427456
0.426732
0.424765
0.421303
0.414239
0.400587
0.376566
0.336468
0.278079
0.21031
0.157643
0.132989
0.126146
0.124915
0.124729
0.124701
0.124697
0.124697
0.124697
0.124697
0.124697
0.124697
0.124697
0.124697
0.124697
0.124697
0.124697
0.124697
0.124697
0.124697
0.124697
0.124697
0.124697
0.124697
0.124697
0.124697
0.124697
0.124697
0.124697
0.124697
0.124697
0.124697
0.124697
0.124697
0.124697
0.124697
0.124697
0.124697
0.124697
0.124697
0.124697
0.124697
0.124697
0.124697
0.124697
0.124697
0.124697
0.124697
0.124697
0.124697
0.124697
0.124697
0.124697
0.124697
0.124697
0.124697
0.124697
0.124697
0.124697
0.124697
0.124697
0.124697
0.124697
0.124697
0.124697
0.124697
0.124697
0.124697
0.124697
0.124697
0.124697
0.124697
0.124697
0.124697
0.124697
0.124697
0.124697
0.124697
0.124697
0.124697
0.124697
0.124697
0.124697
0.124697
0.124697
0.124697
0.124697
0.124697
0.124697
0.124697
0.124697
0.124697
0.124697
0.124697
0.124697
0.124697
0.124697
0.124697
0.124697
0.124697
0.124697
0.124697
0.124697
0.124697
0.124697
0.124697
0.124697
0.124697
0.124697
0.124697
0.124697
0.124697
0.124697
0.124697
0.124697
0.124697
0.124697
0.124697
0.124697
0.124697
0.124697
0.124697
0.124697
0.124697
0.124697
0.124697
0.124697
0.124697
0.124697
0.124697
0.124697
0.124697
0.124697
0.124697
0.124697
0.124697
0.124697
0.124697
0.124697
0.124697
0.124697
0.124697
0.124697
0.124697
0.124697
0.124697
0.124697
0.124697
0.124697
0.124697
0.124697
0.124697
0.124697
0.124697
0.124697
0.124697
0.124697
0.124697
0.124697
0.124697
0.124697
0.124697
0.124697
0.124697
)
;

boundaryField
{
    sides
    {
        type            calculated;
        value           nonuniform List<scalar> 2(0.124697 9.97574);
    }
    empty
    {
        type            empty;
    }
}


// ************************************************************************* //
