/*--------------------------------*- C++ -*----------------------------------*\
  =========                 |
  \\      /  F ield         | OpenFOAM: The Open Source CFD Toolbox
   \\    /   O peration     | Website:  https://openfoam.org
    \\  /    A nd           | Version:  7
     \\/     M anipulation  |
\*---------------------------------------------------------------------------*/
FoamFile
{
    version     2.0;
    format      ascii;
    class       volScalarField;
    location    "0.004";
    object      T;
}
// * * * * * * * * * * * * * * * * * * * * * * * * * * * * * * * * * * * * * //

dimensions      [0 0 0 1 0 0 0];

internalField   nonuniform List<scalar> 
1000
(
348.432
348.432
348.432
348.432
348.432
348.432
348.432
348.432
348.432
348.432
348.432
348.432
348.432
348.432
348.432
348.432
348.432
348.432
348.432
348.432
348.432
348.432
348.432
348.432
348.432
348.432
348.432
348.432
348.432
348.432
348.432
348.432
348.432
348.432
348.432
348.432
348.432
348.432
348.432
348.432
348.432
348.432
348.432
348.432
348.432
348.432
348.432
348.432
348.432
348.432
348.432
348.432
348.432
348.432
348.432
348.432
348.432
348.432
348.432
348.432
348.432
348.432
348.432
348.432
348.432
348.432
348.432
348.432
348.432
348.432
348.432
348.432
348.432
348.432
348.432
348.432
348.432
348.432
348.432
348.432
348.432
348.432
348.432
348.432
348.432
348.432
348.432
348.432
348.432
348.432
348.432
348.432
348.432
348.432
348.432
348.432
348.432
348.432
348.432
348.432
348.432
348.432
348.432
348.432
348.432
348.432
348.432
348.432
348.432
348.432
348.432
348.432
348.432
348.432
348.432
348.432
348.432
348.432
348.432
348.432
348.432
348.432
348.432
348.432
348.432
348.432
348.432
348.432
348.432
348.432
348.432
348.432
348.432
348.432
348.432
348.432
348.432
348.432
348.432
348.432
348.432
348.432
348.432
348.432
348.432
348.432
348.432
348.432
348.432
348.432
348.432
348.432
348.432
348.432
348.432
348.432
348.432
348.432
348.432
348.432
348.432
348.432
348.432
348.432
348.432
348.432
348.432
348.432
348.432
348.432
348.432
348.432
348.432
348.432
348.432
348.432
348.432
348.432
348.432
348.432
348.432
348.432
348.432
348.432
348.432
348.432
348.432
348.432
348.432
348.432
348.432
348.432
348.432
348.432
348.432
348.432
348.432
348.432
348.432
348.432
348.432
348.432
348.432
348.432
348.432
348.432
348.432
348.432
348.432
348.432
348.432
348.432
348.432
348.432
348.432
348.432
348.432
348.432
348.432
348.432
348.432
348.432
348.432
348.432
348.432
348.432
348.432
348.432
348.432
348.432
348.432
348.432
348.432
348.432
348.432
348.432
348.432
348.432
348.432
348.432
348.432
348.432
348.432
348.432
348.432
348.432
348.432
348.432
348.432
348.432
348.432
348.432
348.432
348.432
348.432
348.432
348.432
348.432
348.432
348.432
348.432
348.432
348.432
348.432
348.432
348.432
348.432
348.432
348.432
348.432
348.432
348.432
348.432
348.432
348.432
348.432
348.432
348.432
348.432
348.432
348.432
348.432
348.432
348.432
348.432
348.432
348.432
348.432
348.432
348.432
348.432
348.432
348.432
348.432
348.432
348.432
348.432
348.432
348.432
348.432
348.432
348.432
348.432
348.432
348.432
348.432
348.432
348.432
348.432
348.432
348.432
348.432
348.432
348.432
348.432
348.431
348.431
348.431
348.43
348.429
348.428
348.426
348.424
348.42
348.416
348.409
348.4
348.388
348.372
348.35
348.323
348.288
348.244
348.188
348.12
348.036
347.936
347.816
347.676
347.513
347.325
347.112
346.872
346.605
346.311
345.989
345.64
345.265
344.864
344.439
343.991
343.522
343.031
342.522
341.996
341.453
340.895
340.323
339.739
339.143
338.537
337.921
337.297
336.664
336.024
335.378
334.725
334.067
333.403
332.735
332.062
331.386
330.705
330.022
329.335
328.645
327.953
327.258
326.561
325.861
325.16
324.457
323.753
323.047
322.339
321.631
320.921
320.21
319.498
318.786
318.073
317.359
316.645
315.93
315.215
314.499
313.783
313.067
312.351
311.635
310.919
310.203
309.486
308.77
308.054
307.338
306.623
305.908
305.192
304.478
303.763
303.049
302.335
301.622
300.909
300.197
299.485
298.773
298.062
297.352
296.642
295.932
295.224
294.515
293.81
293.097
292.401
291.676
291.007
290.242
289.633
288.792
288.274
287.349
286.888
285.961
285.446
284.63
283.977
283.287
282.566
281.876
281.209
280.467
279.815
279.104
278.413
277.719
277.045
276.333
275.661
274.966
274.284
273.588
272.915
272.222
271.542
270.856
270.18
269.494
268.816
268.135
267.459
266.779
266.103
265.427
264.754
264.078
263.405
262.732
262.062
261.391
260.722
260.052
259.385
258.718
258.052
257.386
256.723
256.059
255.397
254.735
254.075
253.415
252.757
252.099
251.443
250.786
250.132
249.478
248.825
248.173
247.522
246.871
246.222
245.574
244.927
244.28
243.635
242.991
242.347
241.705
241.063
240.423
239.783
239.145
238.507
237.871
237.235
236.6
235.967
235.334
234.702
234.072
233.442
232.814
232.186
231.56
230.934
230.31
229.686
229.064
228.442
227.822
227.203
226.584
225.967
225.351
224.736
224.122
223.509
222.897
222.286
221.676
221.068
220.46
219.854
219.249
218.644
218.041
217.439
216.838
216.239
215.64
215.043
214.447
213.851
213.258
212.665
212.074
211.483
210.894
210.306
209.72
209.134
208.55
207.968
207.386
206.806
206.227
205.65
205.074
204.499
203.925
203.353
202.783
202.214
201.646
201.08
200.515
199.952
199.391
198.831
198.272
197.716
197.161
196.607
196.056
195.506
194.958
194.412
193.867
193.325
192.785
192.246
191.71
191.176
190.644
190.115
189.587
189.062
188.54
188.02
187.503
186.988
186.476
185.967
185.461
184.958
184.458
183.961
183.468
182.979
182.493
182.01
181.532
181.058
180.588
180.122
179.661
179.204
178.753
178.307
177.866
177.43
177.001
176.577
176.16
175.749
175.345
174.947
174.558
174.175
173.801
173.434
173.076
172.727
172.386
172.055
171.734
171.422
171.12
170.829
170.548
170.278
170.02
169.772
169.536
169.311
169.098
168.897
168.708
168.53
168.365
168.211
168.069
167.938
167.818
167.71
167.612
167.525
167.448
167.381
167.324
167.275
167.235
167.204
167.18
167.162
167.153
167.153
167.155
167.162
167.176
167.194
167.219
167.245
167.279
167.313
167.353
167.394
167.442
167.489
167.542
167.595
167.654
167.713
167.778
167.843
167.913
167.984
168.061
168.14
168.223
168.309
168.399
168.493
168.592
168.693
168.801
168.911
169.029
169.151
169.282
169.419
169.568
169.728
169.907
170.101
170.324
170.573
170.864
171.195
171.586
172.039
172.574
173.198
173.932
174.789
175.789
176.95
178.296
179.846
181.625
183.659
185.971
188.591
191.546
194.865
198.577
202.714
207.308
212.385
217.984
224.126
230.851
238.174
246.129
254.729
263.994
273.925
284.53
295.789
307.687
320.178
333.221
346.747
360.677
374.915
389.355
403.88
418.362
432.675
446.687
460.28
473.336
485.759
497.464
508.387
518.482
527.727
536.112
543.652
550.374
556.315
561.522
566.051
569.958
573.303
576.146
578.545
580.554
582.224
583.602
584.732
585.649
586.389
586.98
587.449
587.816
588.1
588.318
588.482
588.603
588.69
588.75
588.791
588.815
588.827
588.83
588.829
588.823
588.811
588.796
588.78
588.764
588.747
588.731
588.716
588.702
588.688
588.676
588.665
588.655
588.645
588.637
588.629
588.623
588.617
588.612
588.607
588.603
588.6
588.598
588.597
588.596
588.596
588.596
588.597
588.597
588.598
588.597
588.597
588.595
588.591
588.59
588.584
588.585
588.572
588.579
588.546
588.566
588.474
588.522
588.309
588.466
587.734
587.667
585.41
582.59
576.681
564.969
541.46
502.931
438.149
362.932
306.615
284.321
279.672
278.896
278.769
278.75
278.747
278.746
278.746
278.746
278.746
278.746
278.746
278.746
278.746
278.746
278.746
278.746
278.746
278.746
278.746
278.746
278.746
278.746
278.746
278.746
278.746
278.746
278.746
278.746
278.746
278.746
278.746
278.746
278.746
278.746
278.746
278.746
278.746
278.746
278.746
278.746
278.746
278.746
278.746
278.746
278.746
278.746
278.746
278.746
278.746
278.746
278.746
278.746
278.746
278.746
278.746
278.746
278.746
278.746
278.746
278.746
278.746
278.746
278.746
278.746
278.746
278.746
278.746
278.746
278.746
278.746
278.746
278.746
278.746
278.746
278.746
278.746
278.746
278.746
278.746
278.746
278.746
278.746
278.746
278.746
278.746
278.746
278.746
278.746
278.746
278.746
278.746
278.746
278.746
278.746
278.746
278.746
278.746
278.746
278.746
278.746
278.746
278.746
278.746
278.746
278.746
278.746
278.746
278.746
278.746
278.746
278.746
278.746
278.746
278.746
278.746
278.746
278.746
278.746
278.746
278.746
278.746
278.746
278.746
278.746
278.746
278.746
278.746
278.746
278.746
278.746
278.746
278.746
278.746
278.746
278.746
278.746
278.746
278.746
278.746
278.746
278.746
278.746
278.746
278.746
278.746
278.746
278.746
278.746
278.746
278.746
278.746
278.746
278.746
278.746
278.746
278.746
278.746
278.746
278.746
278.746
278.746
278.746
)
;

boundaryField
{
    sides
    {
        type            zeroGradient;
    }
    empty
    {
        type            empty;
    }
}


// ************************************************************************* //
