/*--------------------------------*- C++ -*----------------------------------*\
  =========                 |
  \\      /  F ield         | OpenFOAM: The Open Source CFD Toolbox
   \\    /   O peration     | Website:  https://openfoam.org
    \\  /    A nd           | Version:  7
     \\/     M anipulation  |
\*---------------------------------------------------------------------------*/
FoamFile
{
    version     2.0;
    format      ascii;
    class       volVectorField;
    location    "0.004";
    object      U;
}
// * * * * * * * * * * * * * * * * * * * * * * * * * * * * * * * * * * * * * //

dimensions      [0 1 -1 0 0 0 0];

internalField   nonuniform List<vector> 
1000
(
(-2.56736e-13 0 0)
(-1.28368e-13 0 0)
(-3.50095e-13 0 0)
(-1.05029e-13 0 0)
(-2.21727e-13 0 0)
(-4.08444e-13 0 0)
(-4.08444e-13 0 0)
(-1.98387e-13 0 0)
(-3.85105e-13 0 0)
(8.16889e-14 0 0)
(-3.26756e-13 0 0)
(-2.91746e-13 0 0)
(-1.86717e-13 0 0)
(-3.03416e-13 0 0)
(-3.73435e-13 0 0)
(-4.31784e-13 0 0)
(-4.78463e-13 0 0)
(-3.26756e-13 0 0)
(-1.98387e-13 0 0)
(-1.86717e-13 0 0)
(-1.40038e-13 0 0)
(-3.03416e-13 0 0)
(1.40038e-13 0 0)
(2.33397e-14 0 0)
(1.98387e-13 0 0)
(-2.21727e-13 0 0)
(3.50095e-14 0 0)
(-2.45067e-13 0 0)
(-1.75048e-13 0 0)
(-3.61765e-13 0 0)
(-1.75048e-13 0 0)
(-2.80076e-13 0 0)
(-8.16889e-14 0 0)
(-1.40038e-13 0 0)
(-5.83492e-14 0 0)
(-2.80076e-13 0 0)
(-2.21727e-13 0 0)
(-1.75048e-13 0 0)
(-1.16698e-13 0 0)
(-2.21727e-13 0 0)
(-1.75048e-13 0 0)
(-1.98387e-13 0 0)
(-2.33397e-13 0 0)
(-1.98387e-13 0 0)
(-4.55124e-13 0 0)
(-3.73435e-13 0 0)
(-2.10057e-13 0 0)
(-1.28368e-13 0 0)
(-3.50095e-13 0 0)
(-3.85105e-13 0 0)
(-6.06832e-13 0 0)
(-7.0019e-13 0 0)
(-5.13473e-13 0 0)
(-7.70209e-13 0 0)
(-5.83492e-13 0 0)
(-6.06832e-13 0 0)
(-3.26756e-13 0 0)
(-4.08444e-13 0 0)
(-2.21727e-13 0 0)
(-2.10057e-13 0 0)
(2.33397e-14 0 0)
(-3.03416e-13 0 0)
(-1.86717e-13 0 0)
(-2.91746e-13 0 0)
(-2.21727e-13 0 0)
(-3.26756e-13 0 0)
(-1.16698e-13 0 0)
(-1.63378e-13 0 0)
(1.40038e-13 0 0)
(1.05029e-13 0 0)
(7.0019e-14 0 0)
(-2.33397e-14 0 0)
(9.33587e-14 0 0)
(-2.80076e-13 0 0)
(-3.26756e-13 0 0)
(-3.38425e-13 0 0)
(-3.96775e-13 0 0)
(-4.90133e-13 0 0)
(-3.85105e-13 0 0)
(-3.03416e-13 0 0)
(-2.45067e-13 0 0)
(-4.66794e-14 0 0)
(1.16698e-14 0 0)
(3.50095e-13 0 0)
(2.45067e-13 0 0)
(9.33587e-14 0 0)
(-2.21727e-13 0 0)
(8.16889e-14 0 0)
(-4.66794e-14 0 0)
(-2.21727e-13 0 0)
(-1.51708e-13 0 0)
(-3.38425e-13 0 0)
(-3.85105e-13 0 0)
(-2.33397e-13 0 0)
(-2.33397e-14 0 0)
(2.33397e-14 0 0)
(-5.83492e-14 0 0)
(4.66794e-14 0 0)
(-1.28368e-13 0 0)
(1.75048e-13 0 0)
(-2.80076e-13 0 0)
(-2.10057e-13 0 0)
(-5.71822e-13 0 0)
(-9.33587e-14 0 0)
(-4.43454e-13 0 0)
(-2.33397e-13 0 0)
(-3.61765e-13 0 0)
(-1.98387e-13 0 0)
(-4.08444e-13 0 0)
(-3.26756e-13 0 0)
(-2.80076e-13 0 0)
(-3.38425e-13 0 0)
(-1.75048e-13 0 0)
(-1.05029e-13 0 0)
(-2.68406e-13 0 0)
(-1.63378e-13 0 0)
(-3.15086e-13 0 0)
(-3.61765e-13 0 0)
(-2.80076e-13 0 0)
(-8.16889e-14 0 0)
(-1.51708e-13 0 0)
(3.50095e-14 0 0)
(1.16698e-14 0 0)
(4.66794e-14 0 0)
(1.63378e-13 0 0)
(1.16698e-14 0 0)
(3.73435e-13 0 0)
(-8.16889e-14 0 0)
(4.66794e-14 0 0)
(-2.80076e-13 0 0)
(-8.16889e-14 0 0)
(-1.86717e-13 0 0)
(-2.80076e-13 0 0)
(-1.51708e-13 0 0)
(-4.66794e-14 0 0)
(-3.50095e-14 0 0)
(5.83492e-14 0 0)
(1.05029e-13 0 0)
(-2.68406e-13 0 0)
(-1.51708e-13 0 0)
(-4.43454e-13 0 0)
(-1.51708e-13 0 0)
(-4.78463e-13 0 0)
(-1.86717e-13 0 0)
(-4.20114e-13 0 0)
(-7.0019e-14 0 0)
(-2.68406e-13 0 0)
(8.16889e-14 0 0)
(-3.73435e-13 0 0)
(7.0019e-14 0 0)
(-1.86717e-13 0 0)
(2.10057e-13 0 0)
(-1.86717e-13 0 0)
(-7.0019e-14 0 0)
(-3.73435e-13 0 0)
(-8.16889e-14 0 0)
(-2.45067e-13 0 0)
(-1.16698e-14 0 0)
(-3.38425e-13 0 0)
(-1.75048e-13 0 0)
(-2.33397e-13 0 0)
(-1.16698e-13 0 0)
(-1.63378e-13 0 0)
(-1.16698e-14 0 0)
(-2.21727e-13 0 0)
(-2.80076e-13 0 0)
(-1.51708e-13 0 0)
(-3.50095e-14 0 0)
(1.28368e-13 0 0)
(1.40038e-13 0 0)
(1.51708e-13 0 0)
(2.10057e-13 0 0)
(2.91746e-13 0 0)
(1.63378e-13 0 0)
(2.56736e-13 0 0)
(-1.05029e-13 0 0)
(8.16889e-14 0 0)
(-1.86717e-13 0 0)
(4.66794e-14 0 0)
(-2.45067e-13 0 0)
(1.05029e-13 0 0)
(5.83492e-14 0 0)
(2.45067e-13 0 0)
(1.86717e-13 0 0)
(2.80076e-13 0 0)
(2.10057e-13 0 0)
(2.56736e-13 0 0)
(-9.33587e-14 0 0)
(3.50095e-14 0 0)
(-2.10057e-13 0 0)
(-1.16698e-14 0 0)
(-3.50095e-14 0 0)
(2.56736e-13 0 0)
(2.68406e-13 0 0)
(1.05029e-13 0 0)
(-1.16698e-14 0 0)
(-2.10057e-13 0 0)
(-5.83492e-14 0 0)
(-2.68406e-13 0 0)
(1.51708e-13 0 0)
(-1.40038e-13 0 0)
(2.80076e-13 0 0)
(1.28368e-13 0 0)
(3.96775e-13 0 0)
(-1.28368e-13 0 0)
(2.68406e-13 0 0)
(-4.31784e-13 0 0)
(-1.40038e-13 0 0)
(-4.31784e-13 0 0)
(-2.56736e-13 0 0)
(-4.43454e-13 0 0)
(-1.28368e-13 0 0)
(-1.16698e-13 0 0)
(1.16698e-13 0 0)
(-5.83492e-14 0 0)
(3.61765e-13 0 0)
(1.40038e-13 0 0)
(1.16698e-13 0 0)
(-1.40038e-13 0 0)
(-1.51708e-13 0 0)
(2.33397e-14 0 0)
(-1.05029e-13 0 0)
(1.16698e-13 0 0)
(-1.86717e-13 0 0)
(-1.05029e-13 0 0)
(-9.33587e-14 0 0)
(-9.33587e-14 0 0)
(-1.05029e-13 0 0)
(-1.40038e-13 0 0)
(1.16698e-14 0 0)
(-2.76575e-27 0 0)
(1.75048e-13 0 0)
(1.16698e-14 0 0)
(1.16698e-13 0 0)
(-1.12965e-27 0 0)
(7.0019e-14 0 0)
(1.05029e-13 0 0)
(2.33397e-13 0 0)
(1.16698e-13 0 0)
(2.10057e-13 0 0)
(2.91746e-13 0 0)
(5.83492e-14 0 0)
(8.16889e-14 0 0)
(2.68406e-13 0 0)
(8.16889e-14 0 0)
(1.98387e-13 0 0)
(-9.33587e-14 0 0)
(-9.33587e-14 0 0)
(-1.75048e-13 0 0)
(-2.33397e-14 0 0)
(-1.40038e-13 0 0)
(-1.16698e-13 0 0)
(-3.50095e-13 0 0)
(-1.63378e-13 0 0)
(-5.83492e-14 0 0)
(5.83492e-14 0 0)
(8.16889e-14 0 0)
(3.03416e-13 0 0)
(1.98387e-13 0 0)
(2.68406e-13 0 0)
(1.28368e-13 0 0)
(-3.50095e-14 0 0)
(2.45067e-13 0 0)
(1.16698e-14 0 0)
(1.98387e-13 0 0)
(1.51708e-13 0 0)
(-4.66794e-14 0 0)
(-1.16698e-13 0 0)
(-1.40038e-13 0 0)
(-4.66794e-14 0 0)
(-1.16698e-14 0 0)
(3.50095e-14 0 0)
(-1.16698e-14 0 0)
(-7.0019e-14 0 0)
(-5.83492e-14 0 0)
(-4.66794e-14 0 0)
(2.10057e-13 0 0)
(4.90133e-13 0 0)
(1.24867e-12 0 0)
(2.31063e-12 0 0)
(4.69128e-12 0 0)
(9.80267e-12 0 0)
(1.9722e-11 0 0)
(3.78803e-11 0 0)
(7.26097e-11 0 0)
(1.37809e-10 0 0)
(2.60296e-10 0 0)
(4.87274e-10 0 0)
(9.07003e-10 0 0)
(1.67708e-09 0 0)
(3.08206e-09 0 0)
(5.62868e-09 0 0)
(1.02159e-08 0 0)
(1.84248e-08 0 0)
(3.30199e-08 0 0)
(5.8798e-08 0 0)
(1.04024e-07 0 0)
(1.82834e-07 0 0)
(3.19226e-07 0 0)
(5.53634e-07 0 0)
(9.53666e-07 0 0)
(1.63148e-06 0 0)
(2.77166e-06 0 0)
(4.67556e-06 0 0)
(7.83111e-06 0 0)
(1.30217e-05 0 0)
(2.14944e-05 0 0)
(3.5217e-05 0 0)
(5.72672e-05 0 0)
(9.24145e-05 0 0)
(0.000147982 0 0)
(0.000235105 0 0)
(0.000370554 0 0)
(0.000579332 0 0)
(0.000898333 0 0)
(0.00138142 0 0)
(0.0021064 0 0)
(0.00318437 0 0)
(0.00477217 0 0)
(0.00708856 0 0)
(0.0104349 0 0)
(0.0152212 0 0)
(0.0219974 0 0)
(0.0314916 0 0)
(0.0446535 0 0)
(0.0627033 0 0)
(0.0871841 0 0)
(0.120015 0 0)
(0.163544 0 0)
(0.220585 0 0)
(0.294455 0 0)
(0.388979 0 0)
(0.508475 0 0)
(0.657711 0 0)
(0.84182 0 0)
(1.06619 0 0)
(1.33633 0 0)
(1.65768 0 0)
(2.03545 0 0)
(2.47443 0 0)
(2.97884 0 0)
(3.55215 0 0)
(4.19701 0 0)
(4.91516 0 0)
(5.70744 0 0)
(6.57377 0 0)
(7.51324 0 0)
(8.52419 0 0)
(9.60431 0 0)
(10.7508 0 0)
(11.9604 0 0)
(13.2297 0 0)
(14.5551 0 0)
(15.933 0 0)
(17.3596 0 0)
(18.8316 0 0)
(20.3454 0 0)
(21.8979 0 0)
(23.486 0 0)
(25.107 0 0)
(26.7582 0 0)
(28.4372 0 0)
(30.1419 0 0)
(31.8702 0 0)
(33.6203 0 0)
(35.3906 0 0)
(37.1796 0 0)
(38.9859 0 0)
(40.8082 0 0)
(42.6455 0 0)
(44.4968 0 0)
(46.3611 0 0)
(48.2376 0 0)
(50.1254 0 0)
(52.024 0 0)
(53.9326 0 0)
(55.8507 0 0)
(57.7776 0 0)
(59.7129 0 0)
(61.6561 0 0)
(63.6067 0 0)
(65.5643 0 0)
(67.5285 0 0)
(69.4989 0 0)
(71.4752 0 0)
(73.4571 0 0)
(75.4442 0 0)
(77.4363 0 0)
(79.433 0 0)
(81.4342 0 0)
(83.4395 0 0)
(85.4488 0 0)
(87.4617 0 0)
(89.4782 0 0)
(91.4981 0 0)
(93.5211 0 0)
(95.547 0 0)
(97.5758 0 0)
(99.6072 0 0)
(101.641 0 0)
(103.678 0 0)
(105.716 0 0)
(107.757 0 0)
(109.8 0 0)
(111.844 0 0)
(113.891 0 0)
(115.939 0 0)
(117.989 0 0)
(120.041 0 0)
(122.094 0 0)
(124.148 0 0)
(126.204 0 0)
(128.261 0 0)
(130.319 0 0)
(132.378 0 0)
(134.439 0 0)
(136.5 0 0)
(138.563 0 0)
(140.626 0 0)
(142.691 0 0)
(144.756 0 0)
(146.822 0 0)
(148.889 0 0)
(150.956 0 0)
(153.024 0 0)
(155.093 0 0)
(157.162 0 0)
(159.232 0 0)
(161.303 0 0)
(163.374 0 0)
(165.446 0 0)
(167.517 0 0)
(169.59 0 0)
(171.662 0 0)
(173.736 0 0)
(175.808 0 0)
(177.883 0 0)
(179.957 0 0)
(182.032 0 0)
(184.107 0 0)
(186.182 0 0)
(188.257 0 0)
(190.333 0 0)
(192.408 0 0)
(194.485 0 0)
(196.561 0 0)
(198.637 0 0)
(200.714 0 0)
(202.79 0 0)
(204.867 0 0)
(206.944 0 0)
(209.021 0 0)
(211.098 0 0)
(213.175 0 0)
(215.252 0 0)
(217.329 0 0)
(219.407 0 0)
(221.484 0 0)
(223.561 0 0)
(225.639 0 0)
(227.716 0 0)
(229.793 0 0)
(231.87 0 0)
(233.947 0 0)
(236.025 0 0)
(238.102 0 0)
(240.179 0 0)
(242.256 0 0)
(244.332 0 0)
(246.409 0 0)
(248.486 0 0)
(250.562 0 0)
(252.639 0 0)
(254.715 0 0)
(256.791 0 0)
(258.868 0 0)
(260.943 0 0)
(263.019 0 0)
(265.095 0 0)
(267.17 0 0)
(269.246 0 0)
(271.321 0 0)
(273.396 0 0)
(275.47 0 0)
(277.545 0 0)
(279.619 0 0)
(281.693 0 0)
(283.767 0 0)
(285.841 0 0)
(287.914 0 0)
(289.987 0 0)
(292.06 0 0)
(294.133 0 0)
(296.205 0 0)
(298.277 0 0)
(300.349 0 0)
(302.421 0 0)
(304.492 0 0)
(306.563 0 0)
(308.634 0 0)
(310.704 0 0)
(312.774 0 0)
(314.844 0 0)
(316.914 0 0)
(318.983 0 0)
(321.051 0 0)
(323.12 0 0)
(325.188 0 0)
(327.256 0 0)
(329.323 0 0)
(331.39 0 0)
(333.456 0 0)
(335.522 0 0)
(337.588 0 0)
(339.653 0 0)
(341.718 0 0)
(343.783 0 0)
(345.847 0 0)
(347.91 0 0)
(349.973 0 0)
(352.036 0 0)
(354.098 0 0)
(356.16 0 0)
(358.221 0 0)
(360.281 0 0)
(362.342 0 0)
(364.401 0 0)
(366.46 0 0)
(368.518 0 0)
(370.576 0 0)
(372.633 0 0)
(374.69 0 0)
(376.746 0 0)
(378.801 0 0)
(380.856 0 0)
(382.91 0 0)
(384.963 0 0)
(387.015 0 0)
(389.067 0 0)
(391.118 0 0)
(393.168 0 0)
(395.218 0 0)
(397.267 0 0)
(399.314 0 0)
(401.361 0 0)
(403.407 0 0)
(405.452 0 0)
(407.496 0 0)
(409.54 0 0)
(411.582 0 0)
(413.623 0 0)
(415.663 0 0)
(417.702 0 0)
(419.74 0 0)
(421.776 0 0)
(423.811 0 0)
(425.845 0 0)
(427.878 0 0)
(429.91 0 0)
(431.94 0 0)
(433.968 0 0)
(435.995 0 0)
(438.021 0 0)
(440.045 0 0)
(442.067 0 0)
(444.087 0 0)
(446.106 0 0)
(448.123 0 0)
(450.137 0 0)
(452.15 0 0)
(454.161 0 0)
(456.169 0 0)
(458.175 0 0)
(460.179 0 0)
(462.181 0 0)
(464.179 0 0)
(466.175 0 0)
(468.169 0 0)
(470.159 0 0)
(472.146 0 0)
(474.13 0 0)
(476.111 0 0)
(478.088 0 0)
(480.062 0 0)
(482.032 0 0)
(483.998 0 0)
(485.96 0 0)
(487.917 0 0)
(489.87 0 0)
(491.818 0 0)
(493.761 0 0)
(495.699 0 0)
(497.631 0 0)
(499.558 0 0)
(501.479 0 0)
(503.393 0 0)
(505.301 0 0)
(507.201 0 0)
(509.095 0 0)
(510.98 0 0)
(512.858 0 0)
(514.727 0 0)
(516.588 0 0)
(518.439 0 0)
(520.28 0 0)
(522.111 0 0)
(523.931 0 0)
(525.74 0 0)
(527.537 0 0)
(529.321 0 0)
(531.093 0 0)
(532.85 0 0)
(534.593 0 0)
(536.32 0 0)
(538.032 0 0)
(539.727 0 0)
(541.404 0 0)
(543.063 0 0)
(544.703 0 0)
(546.322 0 0)
(547.92 0 0)
(549.496 0 0)
(551.049 0 0)
(552.577 0 0)
(554.081 0 0)
(555.558 0 0)
(557.007 0 0)
(558.428 0 0)
(559.82 0 0)
(561.181 0 0)
(562.51 0 0)
(563.806 0 0)
(565.068 0 0)
(566.295 0 0)
(567.486 0 0)
(568.64 0 0)
(569.756 0 0)
(570.833 0 0)
(571.871 0 0)
(572.869 0 0)
(573.826 0 0)
(574.742 0 0)
(575.616 0 0)
(576.448 0 0)
(577.239 0 0)
(577.987 0 0)
(578.694 0 0)
(579.36 0 0)
(579.985 0 0)
(580.57 0 0)
(581.116 0 0)
(581.623 0 0)
(582.093 0 0)
(582.526 0 0)
(582.925 0 0)
(583.291 0 0)
(583.624 0 0)
(583.928 0 0)
(584.202 0 0)
(584.45 0 0)
(584.673 0 0)
(584.872 0 0)
(585.05 0 0)
(585.206 0 0)
(585.344 0 0)
(585.465 0 0)
(585.57 0 0)
(585.662 0 0)
(585.741 0 0)
(585.809 0 0)
(585.867 0 0)
(585.916 0 0)
(585.957 0 0)
(585.992 0 0)
(586.02 0 0)
(586.044 0 0)
(586.063 0 0)
(586.078 0 0)
(586.09 0 0)
(586.1 0 0)
(586.107 0 0)
(586.113 0 0)
(586.117 0 0)
(586.12 0 0)
(586.121 0 0)
(586.122 0 0)
(586.122 0 0)
(586.121 0 0)
(586.12 0 0)
(586.119 0 0)
(586.118 0 0)
(586.116 0 0)
(586.115 0 0)
(586.113 0 0)
(586.112 0 0)
(586.111 0 0)
(586.109 0 0)
(586.108 0 0)
(586.107 0 0)
(586.106 0 0)
(586.106 0 0)
(586.105 0 0)
(586.104 0 0)
(586.104 0 0)
(586.103 0 0)
(586.103 0 0)
(586.103 0 0)
(586.102 0 0)
(586.102 0 0)
(586.101 0 0)
(586.101 0 0)
(586.1 0 0)
(586.099 0 0)
(586.098 0 0)
(586.096 0 0)
(586.094 0 0)
(586.091 0 0)
(586.088 0 0)
(586.084 0 0)
(586.079 0 0)
(586.073 0 0)
(586.067 0 0)
(586.06 0 0)
(586.052 0 0)
(586.044 0 0)
(586.035 0 0)
(586.026 0 0)
(586.017 0 0)
(586.009 0 0)
(586.001 0 0)
(585.993 0 0)
(585.988 0 0)
(585.986 0 0)
(585.986 0 0)
(585.987 0 0)
(585.988 0 0)
(585.99 0 0)
(585.994 0 0)
(586 0 0)
(586.01 0 0)
(586.022 0 0)
(586.035 0 0)
(586.05 0 0)
(586.066 0 0)
(586.082 0 0)
(586.098 0 0)
(586.113 0 0)
(586.128 0 0)
(586.141 0 0)
(586.155 0 0)
(586.166 0 0)
(586.176 0 0)
(586.185 0 0)
(586.192 0 0)
(586.199 0 0)
(586.206 0 0)
(586.211 0 0)
(586.217 0 0)
(586.222 0 0)
(586.226 0 0)
(586.23 0 0)
(586.234 0 0)
(586.238 0 0)
(586.242 0 0)
(586.246 0 0)
(586.249 0 0)
(586.252 0 0)
(586.256 0 0)
(586.259 0 0)
(586.262 0 0)
(586.265 0 0)
(586.269 0 0)
(586.272 0 0)
(586.276 0 0)
(586.279 0 0)
(586.283 0 0)
(586.287 0 0)
(586.291 0 0)
(586.295 0 0)
(586.299 0 0)
(586.303 0 0)
(586.308 0 0)
(586.312 0 0)
(586.317 0 0)
(586.322 0 0)
(586.326 0 0)
(586.331 0 0)
(586.336 0 0)
(586.341 0 0)
(586.347 0 0)
(586.353 0 0)
(586.359 0 0)
(586.365 0 0)
(586.371 0 0)
(586.377 0 0)
(586.383 0 0)
(586.389 0 0)
(586.395 0 0)
(586.4 0 0)
(586.406 0 0)
(586.411 0 0)
(586.416 0 0)
(586.421 0 0)
(586.425 0 0)
(586.429 0 0)
(586.433 0 0)
(586.437 0 0)
(586.441 0 0)
(586.444 0 0)
(586.448 0 0)
(586.452 0 0)
(586.457 0 0)
(586.461 0 0)
(586.466 0 0)
(586.469 0 0)
(586.473 0 0)
(586.474 0 0)
(586.474 0 0)
(586.472 0 0)
(586.467 0 0)
(586.445 0 0)
(586.422 0 0)
(586.358 0 0)
(586.322 0 0)
(586.155 0 0)
(586.005 0 0)
(585.495 0 0)
(584.646 0 0)
(582.962 0 0)
(579.306 0 0)
(572.405 0 0)
(558.357 0 0)
(530.602 0 0)
(478.323 0 0)
(384.672 0 0)
(241.218 0 0)
(96.3328 0 0)
(23.7949 0 0)
(4.57141 0 0)
(0.747439 0 0)
(0.113277 0 0)
(0.0169442 0 0)
(0.00253481 0 0)
(0.00037959 0 0)
(5.68742e-05 0 0)
(8.52334e-06 0 0)
(1.27744e-06 0 0)
(1.91461e-07 0 0)
(2.86967e-08 0 0)
(4.30107e-09 0 0)
(6.4457e-10 0 0)
(9.66118e-11 0 0)
(1.48353e-11 0 0)
(2.49443e-12 0 0)
(7.87715e-13 0 0)
(5.10556e-13 0 0)
(3.7927e-13 0 0)
(3.93858e-13 0 0)
(1.31286e-13 0 0)
(7.29366e-14 0 0)
(3.06334e-13 0 0)
(1.45873e-13 0 0)
(7.29366e-14 0 0)
(8.75239e-14 0 0)
(1.02111e-13 0 0)
(3.50096e-13 0 0)
(5.07395e-27 0 0)
(2.91746e-13 0 0)
(2.47984e-13 0 0)
(3.7927e-13 0 0)
(3.7927e-13 0 0)
(8.46065e-13 0 0)
(5.83493e-13 0 0)
(7.00191e-13 0 0)
(4.66794e-13 0 0)
(4.81382e-13 0 0)
(3.64683e-13 0 0)
(7.58541e-13 0 0)
(5.9808e-13 0 0)
(8.46065e-13 0 0)
(6.41842e-13 0 0)
(8.75239e-13 0 0)
(7.58541e-13 0 0)
(8.89827e-13 0 0)
(1.00653e-12 0 0)
(1.12322e-12 0 0)
(8.89827e-13 0 0)
(9.62763e-13 0 0)
(8.46065e-13 0 0)
(3.93858e-13 0 0)
(5.68906e-13 0 0)
(2.1881e-13 0 0)
(7.29366e-14 0 0)
(-8.75239e-14 0 0)
(-1.16699e-13 0 0)
(-1.45873e-14 0 0)
(1.31286e-13 0 0)
(2.91746e-13 0 0)
(1.45873e-13 0 0)
(3.20921e-13 0 0)
(2.33397e-13 0 0)
(3.20921e-13 0 0)
(4.95969e-13 0 0)
(8.60652e-13 0 0)
(4.23032e-13 0 0)
(5.39731e-13 0 0)
(3.50096e-13 0 0)
(5.25144e-13 0 0)
(3.50096e-13 0 0)
(3.50096e-13 0 0)
(3.93858e-13 0 0)
(5.83493e-14 0 0)
(1.02111e-13 0 0)
(-1.31286e-13 0 0)
(5.83493e-14 0 0)
(-1.31286e-13 0 0)
(5.83493e-14 0 0)
(7.29366e-14 0 0)
(1.02111e-13 0 0)
(3.06334e-13 0 0)
(1.89635e-13 0 0)
(3.06334e-13 0 0)
(5.25144e-13 0 0)
(1.60461e-13 0 0)
(5.9808e-13 0 0)
(5.10556e-13 0 0)
(7.29366e-13 0 0)
(7.14779e-13 0 0)
(9.33589e-13 0 0)
(7.43953e-13 0 0)
(1.05029e-12 0 0)
(1.12322e-12 0 0)
(7.58541e-13 0 0)
(8.46065e-13 0 0)
(5.9808e-13 0 0)
(9.04414e-13 0 0)
(3.50096e-13 0 0)
(6.85604e-13 0 0)
(4.08445e-13 0 0)
(7.43953e-13 0 0)
(4.66794e-13 0 0)
(7.14779e-13 0 0)
(5.83493e-13 0 0)
(8.31477e-13 0 0)
(1.22533e-12 0 0)
(1.35662e-12 0 0)
(1.63378e-12 0 0)
(1.79424e-12 0 0)
(1.57543e-12 0 0)
(1.838e-12 0 0)
(1.50249e-12 0 0)
(1.32745e-12 0 0)
(1.22533e-12 0 0)
(1.21075e-12 0 0)
(8.89827e-13 0 0)
(9.91938e-13 0 0)
(6.41842e-13 0 0)
(8.1689e-13 0 0)
(9.62763e-13 0 0)
(7.58541e-13 0 0)
(9.48176e-13 0 0)
(7.14779e-13 0 0)
(9.19001e-13 0 0)
(7.00191e-13 0 0)
(7.29366e-13 0 0)
(4.08445e-13 0 0)
(8.46065e-13 0 0)
(5.10556e-13 0 0)
(7.29366e-13 0 0)
(4.52207e-13 0 0)
(5.83493e-13 0 0)
(1.75048e-13 0 0)
(2.33397e-13 0 0)
(2.10061e-26 0 0)
(1.60461e-13 0 0)
(-2.47984e-13 0 0)
(-8.75239e-14 0 0)
(-8.75239e-14 0 0)
(8.75239e-14 0 0)
(4.3762e-14 0 0)
(4.3762e-14 0 0)
(1.89635e-13 0 0)
(2.1881e-13 0 0)
(1.60461e-13 0 0)
(1.60461e-13 0 0)
(8.75239e-14 0 0)
(1.16699e-13 0 0)
(3.35508e-13 0 0)
(5.10556e-13 0 0)
(3.93858e-13 0 0)
(5.54318e-13 0 0)
(3.64683e-13 0 0)
(4.66794e-13 0 0)
(1.02111e-13 0 0)
(4.3762e-13 0 0)
(2.1881e-13 0 0)
(8.75239e-13 0 0)
(7.87715e-13 0 0)
(7.29366e-13 0 0)
(5.25144e-13 0 0)
)
;

boundaryField
{
    sides
    {
        type            zeroGradient;
    }
    empty
    {
        type            empty;
    }
}


// ************************************************************************* //
