/*--------------------------------*- C++ -*----------------------------------*\
  =========                 |
  \\      /  F ield         | OpenFOAM: The Open Source CFD Toolbox
   \\    /   O peration     | Website:  https://openfoam.org
    \\  /    A nd           | Version:  7
     \\/     M anipulation  |
\*---------------------------------------------------------------------------*/
FoamFile
{
    version     2.0;
    format      ascii;
    class       volScalarField;
    location    "4.9";
    object      p;
}
// * * * * * * * * * * * * * * * * * * * * * * * * * * * * * * * * * * * * * //

dimensions      [1 -1 -2 0 0 0 0];

internalField   nonuniform List<scalar> 
19968
(
1
1
1
1
1
1
1
1
1
1
1
1
1
1
1
1
1
1
1
1
1
1
1
1
1
1
1
1
1
1
1
1
1
1
1
1
1
1
1
1
1
1
1
1
1
1
1
1
1.51712
7.97372
10.431
10.4584
10.5177
10.5767
10.6378
10.6965
10.7515
10.803
10.8539
10.908
10.9655
11.023
11.0769
11.1255
11.1688
11.2083
11.2479
11.2911
11.3381
11.3864
11.4327
11.4752
11.5143
11.5513
11.5874
11.6227
11.6574
11.6916
11.726
11.7602
11.7929
11.8222
11.8466
11.8668
11.8853
11.9045
11.9264
11.9503
11.9738
11.9939
12.0091
12.0196
12.027
12.0325
12.0368
12.0413
1
1
1
1
1
1
1
1
1
1
1
1
1
1
1
1
1
1
1
1
1
1
1
1
1
1
1
1
1
1
1
1
1
1
1
1
1
1
1
1
1
1
1
1
1
1
1
1
1.48503
7.89965
10.4189
10.4587
10.5174
10.5762
10.6367
10.6949
10.7495
10.8008
10.8513
10.9046
10.9614
11.0185
11.0725
11.1211
11.1645
11.204
11.2436
11.2868
11.3337
11.3819
11.4284
11.4712
11.5105
11.5477
11.5839
11.6192
11.6538
11.688
11.7221
11.7558
11.7879
11.8165
11.8407
11.8612
11.8801
11.8997
11.9215
11.9449
11.9677
11.9873
12.0021
12.0126
12.02
12.0256
12.0299
12.0342
1
1
1
1
1
1
1
1
1
1
1
1
1
1
1
1
1
1
1
1
1
1
1
1
1
1
1
1
1
1
1
1
1
1
1
1
1
1
1
1
1
1
1
1
1
1
1
1
1.41533
7.74391
10.4131
10.4506
10.5101
10.5685
10.6288
10.6872
10.7421
10.7938
10.8441
10.8968
10.9531
11.0098
11.0642
11.113
11.1566
11.1961
11.2355
11.2783
11.3248
11.373
11.4199
11.4633
11.5032
11.5407
11.5769
11.6124
11.6472
11.6814
11.715
11.7479
11.779
11.8069
11.8311
11.8521
11.8717
11.8917
11.9133
11.936
11.9579
11.9767
11.9913
12.0018
12.0094
12.0152
12.0196
12.0239
1
1
1
1
1
1
1
1
1
1
1
1
1
1
1
1
1
1
1
1
1
1
1
1
1
1
1
1
1
1
1
1
1
1
1
1
1
1
1
1
1
1
1
1
1
1
1
1
1.31785
7.49479
10.4014
10.4439
10.5019
10.5599
10.6196
10.6777
10.7322
10.7837
10.8335
10.8854
10.941
10.9973
11.0521
11.1012
11.145
11.1845
11.2238
11.2661
11.312
11.3601
11.4073
11.4515
11.4919
11.5298
11.5662
11.6018
11.6367
11.6707
11.7037
11.7354
11.7652
11.7923
11.8165
11.838
11.8583
11.8785
11.8994
11.9208
11.9412
11.9591
11.9732
11.9839
11.992
11.9982
12.0029
12.0073
1
1
1
1
1
1
1
1
1
1
1
1
1
1
1
1
1
1
1
1
1
1
1
1
1
1
1
1
1
1
1
1
1
1
1
1
1
1
1
1
1
1
1
1
1
1
1
1
1.19504
7.17058
10.3873
10.4331
10.4907
10.5491
10.6086
10.6667
10.7212
10.7725
10.822
10.8733
10.9278
10.9832
11.0379
11.087
11.131
11.1706
11.2099
11.2518
11.2972
11.3449
11.3924
11.437
11.478
11.5162
11.553
11.5888
11.6238
11.6576
11.6897
11.7201
11.7487
11.7752
11.7995
11.8219
11.8428
11.8631
11.8831
11.9026
11.9208
11.9367
11.9495
11.9593
11.9667
11.9724
11.9767
11.9806
1
1
1
1
1
1
1
1
1
1
1
1
1
1
1
1
1
1
1
1
1
1
1
1
1
1
1
1
1
1
1
1
1
1
1
1
1
1
1
1
1
1
1
1
1
1
1
1
1.00795
6.63486
10.3686
10.4314
10.4855
10.5452
10.6031
10.6602
10.7139
10.7644
10.8131
10.8632
10.9159
10.9695
11.0232
11.0718
11.1157
11.1552
11.1943
11.2352
11.2792
11.3255
11.3718
11.4157
11.4562
11.494
11.5304
11.5659
11.6005
11.6335
11.6644
11.6933
11.7205
11.7463
11.7709
11.7941
11.816
11.8367
11.8563
11.8748
11.8919
11.9069
11.9194
11.9293
11.9368
11.9426
11.9464
11.95
1
1
1
1
1
1
1
1
1
1
1
1
1
1
1
1
1
1
1
1
1
1
1
1
1
1
1
1
1
1
1
1
1
1
1
1
1
1
1
1
1
1
1
1
1
1
1
1
1.00004
5.8983
10.2706
10.3913
10.4469
10.5103
10.5689
10.6269
10.681
10.7315
10.7801
10.83
10.8823
10.9351
10.9883
11.037
11.081
11.1208
11.1604
11.2013
11.2446
11.2897
11.3349
11.378
11.4181
11.4559
11.4925
11.5283
11.563
11.5958
11.6262
11.6543
11.6806
11.7061
11.7311
11.7553
11.7783
11.7996
11.819
11.8365
11.8523
11.8662
11.8782
11.888
11.8955
11.901
11.9041
11.9073
1
1
1
1
1
1
1
1
1
1
1
1
1
1
1
1
1
1
1
1
1
1
1
1
1
1
1
1
1
1
1
1
1
1
1
1
1
1
1
1
1
1
1
1
1
1
1
1
1
4.96654
10.1069
10.3607
10.4192
10.4852
10.5452
10.6039
10.6576
10.7072
10.755
10.8041
10.8553
10.9064
10.9581
11.0061
11.0495
11.0895
11.1295
11.1705
11.2127
11.256
11.2989
11.3403
11.379
11.4159
11.452
11.4873
11.5215
11.5536
11.583
11.6099
11.6353
11.66
11.6848
11.7094
11.733
11.7546
11.7736
11.7899
11.8041
11.8166
11.8278
11.8372
11.8441
11.8491
11.8513
11.854
1
1
1
1
1
1
1
1
1
1
1
1
1
1
1
1
1
1
1
1
1
1
1
1
1
1
1
1
1
1
1
1
1
1
1
1
1
1
1
1
1
1
1
1
1
1
1
1
1
3.90868
9.7947
10.3239
10.3843
10.4531
10.515
10.5745
10.6278
10.6768
10.724
10.7722
10.8225
10.8724
10.922
10.9689
11.0114
11.051
11.0907
11.1311
11.1713
11.2117
11.2511
11.2893
11.3254
11.3607
11.3958
11.4306
11.4641
11.4954
11.5238
11.5495
11.5737
11.5974
11.6215
11.6459
11.6698
11.6917
11.7107
11.7265
11.7398
11.7515
11.762
11.771
11.7776
11.7823
11.7838
11.7863
1
1
1
1
1
1
1
1
1
1
1
1
1
1
1
1
1
1
1
1
1
1
1
1
1
1
1
1
1
1
1
1
1
1
1
1
1
1
1
1
1
1
1
1
1
1
1
1
1
2.79597
9.24102
10.3066
10.3683
10.4363
10.4945
10.5502
10.6004
10.6472
10.6925
10.7388
10.7876
10.8363
10.8841
10.9296
10.971
11.01
11.0492
11.0891
11.1273
11.1644
11.1996
11.2335
11.2658
11.2979
11.3308
11.3638
11.3954
11.4245
11.4506
11.4743
11.4968
11.5193
11.5427
11.567
11.5911
11.6133
11.6322
11.6473
11.6593
11.6691
11.6776
11.6847
11.6898
11.6936
11.6945
11.6968
1
1
1
1
1
1
1
1
1
1
1
1
1
1
1
1
1
1
1
1
1
1
1
1
1
1
1
1
1
1
1
1
1
1
1
1
1
1
1
1
1
1
1
1
1
1
1
1
1
1.76229
8.27775
10.351
10.3379
10.404
10.4527
10.505
10.5547
10.602
10.6476
10.6933
10.7411
10.7898
10.8372
10.8825
10.924
10.9626
11.0006
11.0398
11.0769
11.1119
11.1439
11.1736
11.2022
11.2312
11.2616
11.2925
11.3215
11.3472
11.3695
11.3891
11.4075
11.4263
11.4461
11.4671
11.4882
11.5081
11.5252
11.539
11.55
11.5587
11.566
11.5719
11.5764
11.5805
11.5821
11.5853
1
1
1
1
1
1
1
1
1
1
1
1
1
1
1
1
1
1
1
1
1
1
1
1
1
1
1
1
1
1
1
1
1
1
1
1
1
1
1
1
1
1
1
1
1
1
1
1
1
1.02789
6.58384
10.3268
10.341
10.3899
10.4355
10.4827
10.5271
10.5687
10.609
10.6501
10.6938
10.7401
10.7852
10.827
10.8649
10.8999
10.9341
10.9705
11.0056
11.0378
11.0669
11.0924
11.1171
11.1421
11.1692
11.1973
11.224
11.2471
11.2664
11.2829
11.298
11.3135
11.3304
11.3489
11.368
11.3863
11.4021
11.4139
11.4214
11.425
11.4257
11.4241
11.4223
11.4224
11.4226
11.4251
1
1
1
1
1
1
1
1
1
1
1
1
1
1
1
1
1
1
1
1
1
1
1
1
1
1
1
1
1
1
1
1
1
1
1
1
1
1
1
1
1
1
1
1
1
1
1
1
1
1.00004
4.47345
9.89202
10.2044
10.2704
10.3316
10.3857
10.4333
10.4763
10.5164
10.5559
10.5968
10.6401
10.6837
10.7243
10.7611
10.7956
10.8284
10.8626
10.8972
10.9287
10.9575
10.982
11.0043
11.0258
11.0492
11.0742
11.0984
11.1193
11.1362
11.1492
11.1599
11.1696
11.1799
11.1914
11.2038
11.2152
11.2236
11.2277
11.2277
11.2245
11.2204
11.217
11.2153
11.2172
11.2187
11.2223
1
1
1
1
1
1
1
1
1
1
1
1
1
1
1
1
1
1
1
1
1
1
1
1
1
1
1
1
1
1
1
1
1
1
1
1
1
1
1
1
1
1
1
1
1
1
1
1
1
1
2.29679
8.72731
10.1645
10.2039
10.2757
10.3309
10.3785
10.4207
10.4597
10.497
10.5341
10.5726
10.6126
10.6506
10.6845
10.7158
10.7447
10.7727
10.8025
10.8306
10.8562
10.8778
10.8951
10.9101
10.9254
10.9426
10.9606
10.9768
10.9893
10.9978
11.0021
11.0032
11.0036
11.0056
11.0099
11.0149
11.018
11.0167
11.0098
10.9984
10.9828
10.9652
10.9435
10.9199
10.8955
10.8752
1
1
1
1
1
1
1
1
1
1
1
1
1
1
1
1
1
1
1
1
1
1
1
1
1
1
1
1
1
1
1
1
1
1
1
1
1
1
1
1
1
1
1
1
1
1
1
1
1
1
1.05177
6.25646
10.2174
10.2279
10.2604
10.2918
10.3228
10.3532
10.3834
10.4144
10.4461
10.4789
10.5137
10.5483
10.5788
10.606
10.6309
10.6534
10.677
10.7005
10.7215
10.7399
10.7536
10.7631
10.7696
10.776
10.7843
10.7933
10.8012
10.8056
10.8025
10.7935
10.7808
10.7679
10.7562
10.7442
10.7276
10.7021
10.6656
10.6192
10.5669
10.5139
10.4692
10.4302
10.4097
10.3993
1
1
1
1
1
1
1
1
1
1
1
1
1
1
1
1
1
1
1
1
1
1
1
1
1
1
1
1
1
1
1
1
1
1
1
1
1
1
1
1
1
1
1
1
1
1
1
1
1
1
1.00007
3.183
9.26875
10.0539
10.1069
10.1552
10.1946
10.2312
10.2673
10.303
10.3365
10.3673
10.3968
10.4259
10.4533
10.4788
10.503
10.5243
10.5425
10.5598
10.5754
10.589
10.5998
10.6053
10.6029
10.5963
10.5896
10.5851
10.5823
10.5779
10.5664
10.5459
10.5179
10.4849
10.4493
10.4111
10.3677
10.316
10.2544
10.185
10.1107
10.0347
9.94586
9.8609
9.74405
9.83068
1
1
1
1
1
1
1
1
1
1
1
1
1
1
1
1
1
1
1
1
1
1
1
1
1
1
1
1
1
1
1
1
1
1
1
1
1
1
1
1
1
1
1
1
1
1
1
1
1
1
1
1.20151
7.27618
10.0831
10.0712
10.0904
10.1213
10.1534
10.1883
10.2234
10.254
10.2781
10.2986
10.3193
10.3412
10.3628
10.3837
10.402
10.4156
10.4262
10.4355
10.4427
10.4486
10.4504
10.4425
10.4259
10.4059
10.3862
10.3693
10.3529
10.331
10.2996
10.2576
10.2051
10.1435
10.0741
9.99428
9.90086
9.78559
9.64358
9.45554
9.20527
8.82842
8.26971
7.33851
5.44079
1
1
1
1
1
1
1
1
1
1
1
1
1
1
1
1
1
1
1
1
1
1
1
1
1
1
1
1
1
1
1
1
1
1
1
1
1
1
1
1
1
1
1
1
1
1
1
1
1
1
1
1.0013
4.55533
9.58906
9.90357
9.95729
10.0069
10.0456
10.0861
10.1264
10.1597
10.1834
10.1993
10.2138
10.2306
10.2496
10.2687
10.2855
10.2971
10.3028
10.307
10.3097
10.3104
10.3085
10.2976
10.2757
10.2474
10.2162
10.1857
10.1556
10.1213
10.0782
10.0229
9.95373
9.86934
9.77092
9.65435
9.51973
9.35215
9.14862
8.87463
8.51956
8.00417
7.33764
6.11806
4.51174
1
1
1
1
1
1
1
1
1
1
1
1
1
1
1
1
1
1
1
1
1
1
1
1
1
1
1
1
1
1
1
1
1
1
1
1
1
1
1
1
1
1
1
1
1
1
1
1
1
1
1
0.999997
1.88309
8.15968
9.86993
9.89423
9.93982
9.97297
10.0138
10.0544
10.0846
10.1044
10.1144
10.123
10.1351
10.1504
10.1655
10.1774
10.1842
10.1844
10.1832
10.1806
10.1746
10.1659
10.1497
10.1221
10.0859
10.0442
10.0005
9.95596
9.90745
9.85106
9.78143
9.69589
9.59011
9.46612
9.31742
9.14588
8.93716
8.68493
8.36482
7.94799
7.41978
6.65657
5.65658
4.54492
1
1
1
1
1
1
1
1
1
1
1
1
1
1
1
1
1
1
1
1
1
1
1
1
1
1
1
1
1
1
1
1
1
1
1
1
1
1
1
1
1
1
1
1
1
1
1
1
1
1
1
1
1.02808
5.26883
9.64225
9.84209
9.89273
9.92132
9.94944
9.97276
9.98748
10.0024
10.0121
10.0211
10.0333
10.0481
10.0613
10.0682
10.0673
10.0604
10.0514
10.0416
10.0301
10.0163
9.99516
9.96285
9.91951
9.86853
9.81328
9.75618
9.69445
9.62557
9.54207
9.44129
9.31719
9.17227
9.00089
8.80194
8.5666
8.28499
7.94481
7.51847
6.99823
6.32797
5.57136
4.73322
1
1
1
1
1
1
1
1
1
1
1
1
1
1
1
1
1
1
1
1
1
1
1
1
1
1
1
1
1
1
1
1
1
1
1
1
1
1
1
1
1
1
1
1
1
1
1
1
1
1
1
1
1
2.09215
8.32694
9.83655
9.81081
9.85245
9.88384
9.90293
9.91107
9.91852
9.92343
9.9277
9.93527
9.94685
9.95607
9.95838
9.95129
9.93658
9.91861
9.90108
9.88459
9.86707
9.84195
9.80574
9.756
9.6964
9.63037
9.56218
9.48895
9.40844
9.31276
9.19861
9.06064
8.90109
8.71739
8.5056
8.25946
7.96806
7.62957
7.21503
6.74126
6.19176
5.59107
4.94337
1
1
1
1
1
1
1
1
1
1
1
1
1
1
1
1
1
1
1
1
1
1
1
1
1
1
1
1
1
1
1
1
1
1
1
1
1
1
1
1
1
1
1
1
1
1
1
1
1
1
1
1
0.999999
1.03874
5.29773
9.65728
9.75074
9.78093
9.80128
9.81531
9.82542
9.8338
9.8382
9.83945
9.84001
9.84494
9.84988
9.84926
9.84003
9.82034
9.79275
9.7638
9.73773
9.71354
9.68462
9.64599
9.59264
9.52775
9.45409
9.37684
9.29343
9.2018
9.09556
8.97128
8.82439
8.65622
8.46663
8.25216
8.00845
7.7233
7.40036
7.01465
6.60104
6.13517
5.64574
5.12169
1
1
1
1
1
1
1
1
1
1
1
1
1
1
1
1
1
1
1
1
1
1
1
1
1
1
1
1
1
1
1
1
1
1
1
1
1
1
1
1
1
1
1
1
1
1
1
1
1
1
1
1
1
1.00003
1.91785
8.08946
9.75922
9.72226
9.72949
9.7346
9.74109
9.74709
9.75027
9.7497
9.74428
9.74083
9.73775
9.72902
9.71834
9.69955
9.66848
9.6323
9.59624
9.56306
9.52765
9.48407
9.4272
9.35979
9.28361
9.20286
9.11376
9.01321
8.89732
8.76459
8.6122
8.44025
8.24934
8.03787
7.80494
7.53488
7.23528
6.89218
6.53198
6.12377
5.71053
5.26769
1
1
1
1
1
1
1
1
1
1
1
1
1
1
1
1
1
1
1
1
1
1
1
1
1
1
1
1
1
1
1
1
1
1
1
1
1
1
1
1
1
1
1
1
1
1
1
1
1
1
1
1
1
1
1.02618
4.72102
9.35336
9.62771
9.62961
9.6362
9.65377
9.66415
9.66907
9.66974
9.65986
9.64944
9.63697
9.61944
9.60411
9.58447
9.55196
9.5119
9.46662
9.42215
9.3763
9.32454
9.26278
9.194
9.1188
9.03779
8.9462
8.8402
8.71762
8.57967
8.42552
8.2538
8.06505
7.8581
7.63707
7.3832
7.11125
6.81071
6.4929
6.13868
5.78493
5.39761
1
1
1
1
1
1
1
1
1
1
1
1
1
1
1
1
1
1
1
1
1
1
1
1
1
1
1
1
1
1
1
1
1
1
1
1
1
1
1
1
1
1
1
1
1
1
1
1
1
1
1
1
1
1
1.00001
1.46271
7.48507
9.66657
9.61053
9.59712
9.58479
9.58183
9.58108
9.57579
9.56204
9.54535
9.52505
9.50059
9.4799
9.45989
9.42935
9.39059
9.34185
9.29034
9.23596
9.17612
9.1086
9.03703
8.96184
8.88091
8.78894
8.6814
8.55638
8.41629
8.26269
8.09375
7.91193
7.71063
7.49952
7.26397
7.01497
6.74807
6.46828
6.16208
5.84826
5.50701
1
1
1
1
1
1
1
1
1
1
1
1
1
1
1
1
1
1
1
1
1
1
1
1
1
1
1
1
1
1
1
1
1
1
1
1
1
1
1
1
1
1
1
1
1
1
1
1
1
1
1
1
1
1
1
1.00639
3.74737
8.94352
9.41175
9.45034
9.47289
9.47456
9.46972
9.45923
9.44556
9.42983
9.40939
9.38108
9.35484
9.33206
9.30303
9.26781
9.22009
9.16499
9.10234
9.03445
8.96252
8.88952
8.81336
8.73079
8.63768
8.53003
8.40669
8.26902
8.11957
7.95652
7.78589
7.59067
7.39046
7.17302
6.93897
6.70094
6.44888
6.17901
5.89707
5.60245
1
1
1
1
1
1
1
1
1
1
1
1
1
1
1
1
1
1
1
1
1
1
1
1
1
1
1
1
1
1
1
1
1
1
1
1
1
1
1
1
1
1
1
1
1
1
1
1
1
1
1
1
1
1
1
1
1.20103
6.14685
9.36545
9.40673
9.39221
9.38195
9.37445
9.36262
9.35008
9.33592
9.31588
9.2808
9.24475
9.21423
9.18309
9.15042
9.10675
9.0513
8.98554
8.91207
8.8372
8.76034
8.68166
8.59587
8.49996
8.3912
8.27059
8.13676
7.99304
7.83575
7.6758
7.48986
7.30345
7.10175
6.88359
6.66982
6.43311
6.19116
5.93723
5.67981
1
1
1
1
1
1
1
1
1
1
1
1
1
1
1
1
1
1
1
1
1
1
1
1
1
1
1
1
1
1
1
1
1
1
1
1
1
1
1
1
1
1
1
1
1
1
1
1
1
1
1
1
1
1
1
1
1.00123
2.09532
7.95852
9.31338
9.25935
9.26508
9.26808
9.26261
9.25059
9.23712
9.21915
9.18396
9.14162
9.10327
9.06718
9.03322
8.99173
8.93641
8.8721
8.79793
8.72074
8.64222
8.55919
8.4713
8.37296
8.26265
8.14419
8.01522
7.88178
7.72875
7.57684
7.40422
7.23139
7.04501
6.84608
6.64673
6.42298
6.2068
5.97575
5.74358
1
1
1
1
1
1
1
1
1
1
1
1
1
1
1
1
1
1
1
1
1
1
1
1
1
1
1
1
1
1
1
1
1
1
1
1
1
1
1
1
1
1
1
1
1
1
1
1
1
1
1
1
1
1
1
1
1
1.03436
4.08424
8.85774
9.15848
9.17446
9.17603
9.1674
9.15777
9.14526
9.12538
9.09108
9.047
9.00509
8.96556
8.92775
8.88394
8.82788
8.76333
8.69294
8.61533
8.53517
8.45098
8.36196
8.2618
8.15142
8.03478
7.91171
7.78367
7.63799
7.49324
7.33249
7.17062
6.99629
6.81434
6.62472
6.41881
6.22239
6.00879
5.79595
1
1
1
1
1
1
1
1
1
1
1
1
1
1
1
1
1
1
1
1
1
1
1
1
1
1
1
1
1
1
1
1
1
1
1
1
1
1
1
1
1
1
1
1
1
1
1
1
1
1
1
1
1
1
1
1
1
1.00006
1.24347
5.65247
9.00133
9.16475
9.13189
9.11292
9.09473
9.07392
9.04851
9.01134
8.96539
8.91909
8.87642
8.83213
8.78385
8.72498
8.65799
8.59223
8.51582
8.4364
8.35136
8.26128
8.16213
8.05298
7.93847
7.81978
7.69443
7.5603
7.42165
7.26955
7.11709
6.95295
6.78517
6.60573
6.41952
6.23552
6.03929
5.84305
1
1
1
1
1
1
1
1
1
1
1
1
1
1
1
1
1
1
1
1
1
1
1
1
1
1
1
1
1
1
1
1
1
1
1
1
1
1
1
1
1
1
1
1
1
1
1
1
1
1
1
1
1
1
1
1
1
1
1.00188
1.60131
7.14652
9.15386
9.09417
9.05984
9.01425
8.97897
8.94477
8.90861
8.86768
8.82475
8.78069
8.7362
8.68542
8.62622
8.55892
8.4918
8.41909
8.33962
8.25658
8.16842
8.07231
7.96623
7.85686
7.74159
7.62158
7.49559
7.36246
7.21827
7.07212
6.91633
6.75845
6.58971
6.41915
6.2444
6.0644
5.88317
1
1
1
1
1
1
1
1
1
1
1
1
1
1
1
1
1
1
1
1
1
1
1
1
1
1
1
1
1
1
1
1
1
1
1
1
1
1
1
1
1
1
1
1
1
1
1
1
1
1
1
1
1
1
1
1
1
1
1
1.01042
2.88727
8.24576
8.96938
8.90038
8.86636
8.83891
8.8185
8.79421
8.7653
8.73151
8.69148
8.64487
8.59496
8.53621
8.46928
8.40224
8.33114
8.25265
8.17118
8.08585
7.9919
7.89017
7.78469
7.67412
7.55835
7.43823
7.31033
7.17402
7.03349
6.88606
6.73566
6.57794
6.41801
6.25255
6.08584
5.91913
1
1
1
1
1
1
1
1
1
1
1
1
1
1
1
1
1
1
1
1
1
1
1
1
1
1
1
1
1
1
1
1
1
1
1
1
1
1
1
1
1
1
1
1
1
1
1
1
1
1
1
1
1
1
1
1
1
1
1
1.00001
1.09341
4.24904
8.58734
8.79996
8.76534
8.76552
8.74981
8.72618
8.69598
8.66126
8.62078
8.57321
8.52244
8.46593
8.3982
8.33064
8.2574
8.17811
8.09599
8.01183
7.9219
7.82336
7.72132
7.61518
7.50371
7.38834
7.26555
7.13597
7.00114
6.86151
6.71801
6.57004
6.41724
6.26023
6.10366
5.95039
1
1
1
1
1
1
1
1
1
1
1
1
1
1
1
1
1
1
1
1
1
1
1
1
1
1
1
1
1
1
1
1
1
1
1
1
1
1
1
1
1
1
1
1
1
1
1
1
1
1
1
1
1
1
1
1
1
1
1
1
1.0004
1.27261
5.07978
8.57355
8.70674
8.70965
8.70073
8.67434
8.64025
8.60061
8.556
8.50591
8.45353
8.39627
8.3313
8.26327
8.18927
8.11053
8.0287
7.94464
7.85682
7.76159
7.66067
7.55785
7.45145
7.34083
7.2237
7.10024
6.9715
6.839
6.70238
6.56226
6.41623
6.26732
6.11969
5.97803
1
1
1
1
1
1
1
1
1
1
1
1
1
1
1
1
1
1
1
1
1
1
1
1
1
1
1
1
1
1
1
1
1
1
1
1
1
1
1
1
1
1
1
1
1
1
1
1
1
1
1
1
1
1
1
1
1
1
1
1
1
1.00247
1.46061
5.74323
8.57265
8.68264
8.65726
8.62561
8.58745
8.54404
8.49671
8.44541
8.39222
8.33447
8.27192
8.20422
8.13098
8.05321
7.97198
7.88763
7.79964
7.70619
7.60705
7.50587
7.40333
7.29715
7.18513
7.06646
6.9426
6.81545
6.68468
6.55165
6.41389
6.27305
6.13442
6.0027
1
1
1
1
1
1
1
1
1
1
1
1
1
1
1
1
1
1
1
1
1
1
1
1
1
1
1
1
1
1
1
1
1
1
1
1
1
1
1
1
1
1
1
1
1
1
1
1
1
1
1
1
1
1
1
1
1
1
1
1
1
1
1.00643
1.67345
6.32219
8.54427
8.60373
8.57387
8.53374
8.49047
8.44174
8.38971
8.33405
8.27507
8.21299
8.14585
8.07373
7.99795
7.91862
7.8353
7.7475
7.65495
7.55808
7.45918
7.35878
7.25591
7.14797
7.03357
6.91434
6.79199
6.66751
6.54139
6.41233
6.27855
6.14883
6.02514
1
1
1
1
1
1
1
1
1
1
1
1
1
1
1
1
1
1
1
1
1
1
1
1
1
1
1
1
1
1
1
1
1
1
1
1
1
1
1
1
1
1
1
1
1
1
1
1
1
1
1
1
1
1
1
1
1
1
1
1
1
1
1.00001
1.01295
1.91867
6.75841
8.50004
8.51987
8.4918
8.44858
8.39907
8.34255
8.28249
8.22146
8.15768
8.08965
8.01846
7.94473
7.86755
7.78616
7.70026
7.60987
7.51556
7.41905
7.32024
7.21918
7.11412
7.0035
6.88867
6.77255
6.65542
6.53578
6.41469
6.28678
6.16475
6.04724
1
1
1
1
1
1
1
1
1
1
1
1
1
1
1
1
1
1
1
1
1
1
1
1
1
1
1
1
1
1
1
1
1
1
1
1
1
1
1
1
1
1
1
1
1
1
1
1
1
1
1
1
1
1
1
1
1
1
1
1
1
1
1
1.00003
1.02322
2.16277
7.0806
8.45655
8.45059
8.40761
8.35388
8.29613
8.23629
8.17434
8.10703
8.03665
7.96566
7.89302
7.81728
7.73742
7.65326
7.5652
7.47395
7.3805
7.2842
7.18522
7.08317
6.97682
6.86675
6.75645
6.64515
6.53186
6.41774
6.29546
6.17932
6.06672
1
1
1
1
1
1
1
1
1
1
1
1
1
1
1
1
1
1
1
1
1
1
1
1
1
1
1
1
1
1
1
1
1
1
1
1
1
1
1
1
1
1
1
1
1
1
1
1
1
1
1
1
1
1
1
1
1
1
1
1
1
1
1
1
1.00007
1.03657
2.3889
7.33453
8.39667
8.35563
8.30701
8.24749
8.18762
8.12463
8.05932
7.99241
7.92356
7.85157
7.77556
7.6954
7.61154
7.52448
7.43536
7.34467
7.2512
7.15475
7.05589
6.95407
6.84921
6.74416
6.63782
6.53024
6.4215
6.30466
6.19277
6.08461
1
1
1
1
1
1
1
1
1
1
1
1
1
1
1
1
1
1
1
1
1
1
1
1
1
1
1
1
1
1
1
1
1
1
1
1
1
1
1
1
1
1
1
1
1
1
1
1
1
1
1
1
1
1
1
1
1
1
1
1
1
1
1
1
1
1.00013
1.05182
2.67677
7.44129
8.28562
8.23899
8.18884
8.13667
8.07714
8.01506
7.94943
7.88106
7.8094
7.73368
7.65417
7.57157
7.48673
7.40019
7.31201
7.22163
7.12828
7.03262
6.93499
6.83496
6.73391
6.63131
6.52821
6.424
6.31306
6.20423
6.09969
1
1
1
1
1
1
1
1
1
1
1
1
1
1
1
1
1
1
1
1
1
1
1
1
1
1
1
1
1
1
1
1
1
1
1
1
1
1
1
1
1
1
1
1
1
1
1
1
1
1
1
1
1
1
1
1
1
1
1
1
1
1
1
1
1
1
1.00021
1.07498
2.80583
7.40835
8.18316
8.14317
8.09016
8.03647
7.97783
7.91559
7.84846
7.77576
7.69893
7.61968
7.53838
7.45541
7.37082
7.28462
7.19659
7.10577
7.01276
6.91836
6.8222
6.72484
6.62548
6.52566
6.42584
6.3196
6.21356
6.11213
1
1
1
1
1
1
1
1
1
1
1
1
1
1
1
1
1
1
1
1
1
1
1
1
1
1
1
1
1
1
1
1
1
1
1
1
1
1
1
1
1
1
1
1
1
1
1
1
1
1
1
1
1
1
1
1
1
1
1
1
1
1
1
1
1
1
1
1.00037
1.08813
2.79901
7.31995
8.09939
8.05416
7.99837
7.93894
7.87653
7.81014
7.73888
7.66352
7.58666
7.50769
7.42673
7.34397
7.25965
7.17324
7.08464
6.99458
6.90278
6.80951
6.71546
6.61887
6.52196
6.42441
6.32302
6.22198
6.12096
1
1
1
1
1
1
1
1
1
1
1
1
1
1
1
1
1
1
1
1
1
1
1
1
1
1
1
1
1
1
1
1
1
1
1
1
1
1
1
1
1
1
1
1
1
1
1
1
1
1
1
1
1
1
1
1
1
1
1
1
1
1
1
1
1
1
1
1
1.00049
1.08864
2.77554
7.15562
7.99717
7.96029
7.89749
7.83351
7.76422
7.69469
7.62504
7.55294
7.47843
7.40062
7.32036
7.23827
7.15401
7.0675
6.9791
6.88983
6.79938
6.70727
6.6147
6.5207
6.42459
6.32754
6.2284
6.13104
1
1
1
1
1
1
1
1
1
1
1
1
1
1
1
1
1
1
1
1
1
1
1
1
1
1
1
1
1
1
1
1
1
1
1
1
1
1
1
1
1
1
1
1
1
1
1
1
1
1
1
1
1
1
1
1
1
1
1
1
1
1
1
1
1
1
1
1
1
1.0005
1.08656
2.67616
6.90799
7.89089
7.86219
7.79309
7.72645
7.65748
7.58996
7.52075
7.44901
7.37517
7.29867
7.21852
7.13607
7.05105
6.96361
6.87642
6.78882
6.70026
6.60984
6.51791
6.42729
6.33295
6.23875
6.14736
1
1
1
1
1
1
1
1
1
1
1
1
1
1
1
1
1
1
1
1
1
1
1
1
1
1
1
1
1
1
1
1
1
1
1
1
1
1
1
1
1
1
1
1
1
1
1
1
1
1
1
1
1
1
1
1
1
1
1
1
1
1
1
1
1
1
1
1
1
1
1.00049
1.07756
2.50724
6.58735
7.772
7.75581
7.68656
7.62289
7.55691
7.48985
7.42042
7.34923
7.2752
7.19749
7.1171
7.03543
6.95238
6.86678
6.78035
6.69399
6.60609
6.51892
6.43236
6.34421
6.25508
6.16375
1
1
1
1
1
1
1
1
1
1
1
1
1
1
1
1
1
1
1
1
1
1
1
1
1
1
1
1
1
1
1
1
1
1
1
1
1
1
1
1
1
1
1
1
1
1
1
1
1
1
1
1
1
1
1
1
1
1
1
1
1
1
1
1
1
1
1
1
1
1
1
1.00042
1.06302
2.30391
6.11203
7.64661
7.67567
7.60364
7.53637
7.46181
7.38848
7.31633
7.24549
7.17339
7.0974
7.01896
6.93973
6.8587
6.77628
6.69353
6.61119
6.52687
6.44135
6.35611
6.26953
6.18389
1
1
1
1
1
1
1
1
1
1
1
1
1
1
1
1
1
1
1
1
1
1
1
1
1
1
1
1
1
1
1
1
1
1
1
1
1
1
1
1
1
1
1
1
1
1
1
1
1
1
1
1
1
1
1
1
1
1
1
1
1
1
1
1
1
1
1
1
1
1
1
1
1.00031
1.04798
2.03647
5.54897
7.47306
7.59937
7.50712
7.43951
7.36785
7.29446
7.22122
7.14779
7.07389
7.00044
6.92832
6.85475
6.77854
6.70034
6.61998
6.5386
6.45495
6.37152
6.28922
6.20435
1
1
1
1
1
1
1
1
1
1
1
1
1
1
1
1
1
1
1
1
1
1
1
1
1
1
1
1
1
1
1
1
1
1
1
1
1
1
1
1
1
1
1
1
1
1
1
1
1
1
1
1
1
1
1
1
1
1
1
1
1
1
1
1
1
1
1
1
1
1
1
1
1
1.00021
1.03114
1.7716
4.80384
7.28927
7.49766
7.41309
7.34824
7.28232
7.21502
7.1458
7.07513
7.00192
6.9272
6.85278
6.77982
6.70652
6.63189
6.55462
6.47332
6.39133
6.30778
6.22353
1
1
1
1
1
1
1
1
1
1
1
1
1
1
1
1
1
1
1
1
1
1
1
1
1
1
1
1
1
1
1
1
1
1
1
1
1
1
1
1
1
1
1
1
1
1
1
1
1
1
1
1
1
1
1
1
1
1
1
1
1
1
1
1
1
1
1
1
1
1
1
1
1
1
1.00011
1.01826
1.51206
4.03473
6.97955
7.39605
7.34116
7.28304
7.21218
7.14393
7.07394
7.00272
6.93065
6.85811
6.78522
6.71046
6.63525
6.55844
6.48131
6.40255
6.32357
6.24403
1
1
1
1
1
1
1
1
1
1
1
1
1
1
1
1
1
1
1
1
1
1
1
1
1
1
1
1
1
1
1
1
1
1
1
1
1
1
1
1
1
1
1
1
1
1
1
1
1
1
1
1
1
1
1
1
1
1
1
1
1
1
1
1
1
1
1
1
1
1
1
1
1
1
1
1.00005
1.00909
1.30744
3.28536
6.52597
7.29079
7.29426
7.2046
7.13998
7.07229
7.00261
6.9318
6.86055
6.7886
6.71644
6.64286
6.56761
6.4907
6.41364
6.33495
6.25783
1
1
1
1
1
1
1
1
1
1
1
1
1
1
1
1
1
1
1
1
1
1
1
1
1
1
1
1
1
1
1
1
1
1
1
1
1
1
1
1
1
1
1
1
1
1
1
1
1
1
1
1
1
1
1
1
1
1
1
1
1
1
1
1
1
1
1
1
1
1
1
1
1
1
1
1
1.00002
1.00392
1.16566
2.62676
5.85342
7.1407
7.2615
7.14329
7.07544
7.00961
6.94048
6.86784
6.79609
6.72397
6.65065
6.57546
6.50146
6.42479
6.35068
6.27194
1
1
1
1
1
1
1
1
1
1
1
1
1
1
1
1
1
1
1
1
1
1
1
1
1
1
1
1
1
1
1
1
1
1
1
1
1
1
1
1
1
1
1
1
1
1
1
1
1
1
1
1
1
1
1
1
1
1
1
1
1
1
1
1
1
1
1
1
1
1
1
1
1
1
1
1
1
1.00001
1.00148
1.08086
2.06671
4.96629
6.94645
7.14402
7.07856
7.00782
6.93841
6.87035
6.79908
6.72488
6.65492
6.58234
6.50956
6.43248
6.35882
6.27834
1
1
1
1
1
1
1
1
1
1
1
1
1
1
1
1
1
1
1
1
1
1
1
1
1
1
1
1
1
1
1
1
1
1
1
1
1
1
1
1
1
1
1
1
1
1
1
1
1
1
1
1
1
1
1
1
1
1
1
1
1
1
1
1
1
1
1
1
1
1
1
1
1
1
1
1
1
1
1
1.00049
1.03518
1.62484
3.96571
6.5832
7.03796
7.03417
6.93968
6.86868
6.80184
6.74028
6.66969
6.59873
6.52052
6.45028
6.36757
6.30451
1
1
1
1
1
1
1
1
1
1
1
1
1
1
1
1
1
1
1
1
1
1
1
1
1
1
1
1
1
1
1
1
1
1
1
1
1
1
1
1
1
1
1
1
1
1
1
1
1
1
1
1
1
1
1
1
1
1
1
1
1
1
1
1
1
1
1
1
1
1
1
1
1
1
1
1
1
1
1
1
1.00014
1.01335
1.31548
3.03578
5.93592
6.902
6.97946
6.90033
6.82303
6.75663
6.68545
6.60821
6.53011
6.47802
6.46031
6.51776
1
1
1
1
1
1
1
1
1
1
1
1
1
1
1
1
1
1
1
1
1
1
1
1
1
1
1
1
1
1
1
1
1
1
1
1
1
1
1
1
1
1
1
1
1
1
1
1
1
1
1
1
1
1
1
1
1
1
1
1
1
1
1
1
1
1
1
1
1
1
1
1
1
1
1
1
1
1
1
1
1
1.00003
1.00432
1.13696
2.26895
5.00351
6.68646
6.90185
6.86373
6.78755
6.68018
6.63191
6.65991
6.81112
7.17154
7.76431
1
1
1
1
1
1
1
1
1
1
1
1
1
1
1
1
1
1
1
1
1
1
1
1
1
1
1
1
1
1
1
1
1
1
1
1
1
1
1
1
1
1
1
1
1
1
1
1
1
1
1
1
1
1
1
1
1
1
1
1
1
1
1
1
1
1
1
1
1
1
1
1
1
1
1
1
1
1
1
1
1
1
1.00001
1.00115
1.05161
1.69589
3.89475
6.29195
6.78343
6.73439
6.87459
7.18787
7.75601
8.53041
9.16795
9.62779
1
1
1
1
1
1
1
1
1
1
1
1
1
1
1
1
1
1
1
1
1
1
1
1
1
1
1
1
1
1
1
1
1
1
1
1
1
1
1
1
1
1
1
1
1
1
1
1
1
1
1
1
1
1
1
1
1
1
1
1
1
1
1
1
1
1
1
1
1
1
1
1
1
1
1
1
1
1
1
1
1
1
1
1
1.00026
1.01674
1.31773
2.89492
5.36803
7.08263
8.60135
9.34017
9.9156
10.2683
10.314
10.2627
1
1
1
1
1
1
1
1
1
1
1
1
1
1
1
1
1
1
1
1
1
1
1
1
1
1
1
1
1
1
1
1
1
1
1
1
1
1
1
1
1
1
1
1
1
1
1
1
1
1
1
1
1
1
1
1
1
1
1
1
1
1
1
1
1
1
1
1
1
1
1
1
1
1
1
1
1
1
1
1
1
1
1
1
1
1.00005
1.0045
1.12497
2.04311
8.80075
11.3818
11.0636
10.8915
10.7194
10.5456
10.3908
1
1
1
1
1
1
1
1
1
1
1
1
1
1
1
1
1
1
1
1
1
1
1
1
1
1
1
1
1
1
1
1
1
1
1
1
1
1
1
1
1
1
1
1
1
1
1
1
1
1
1
1
1
1
1
1
1
1
1
1
1
1
1
1
1
1
1
1
1
1
1
1
1
1
1
1
1
1
1
1
1
1
1
1
1
1
1.00001
1.00128
1.88429
9.16703
11.1814
10.8525
10.6685
10.4656
10.316
10.1875
1
1
1
1
1
1
1
1
1
1
1
1
1
1
1
1
1
1
1
1
1
1
1
1
1
1
1
1
1
1
1
1
1
1
1
1
1
1
1
1
1
1
1
1
1
1
1
1
1
1
1
1
1
1
1
1
1
1
1
1
1
1
1
1
1
1
1
1
1
1
1
1
1
1
1
1
1
1
1
1
1
1
1
1
1
1
1
1
1.72948
8.45858
10.6326
10.5233
10.5176
10.4365
10.3828
10.3219
1
1
1
1
1
1
1
1
1
1
1
1
1
1
1
1
1
1
1
1
1
1
1
1
1
1
1
1
1
1
1
1
1
1
1
1
1
1
1
1
1
1
1
1
1
1
1
1
1
1
1
1
1
1
1
1
1
1
1
1
1
1
1
1
1
1
1
1
1
1
1
1
1
1
1
1
1
1
1
1
1
1
1
1
1
1
1
1
1.22687
7.24249
10.3765
10.4044
10.4209
10.4043
10.3732
10.3307
1
1
1
1
1
1
1
1
1
1
1
1
1
1
1
1
1
1
1
1
1
1
1
1
1
1
1
1
1
1
1
1
1
1
1
1
1
1
1
1
1
1
1
1
1
1
1
1
1
1
1
1
1
1
1
1
1
1
1
1
1
1
1
1
1
1
1
1
1
1
1
1
1
1
1
1
1
1
1
1
1
1
1
1
1
1
1
1
1.00436
5.71616
10.3199
10.4031
10.3803
10.3652
10.3514
10.3302
1
1
1
1
1
1
1
1
1
1
1
1
1
1
1
1
1
1
1
1
1
1
1
1
1
1
1
1
1
1
1
1
1
1
1
1
1
1
1
1
1
1
1
1
1
1
1
1
1
1
1
1
1
1
1
1
1
1
1
1
1
1
1
1
1
1
1
1
1
1
1
1
1
1
1
1
1
1
1
1
1
1
1
1
1
1
1
1
1
4.25522
9.98313
10.4217
10.3954
10.3733
10.3384
10.3034
1
1
1
1
1
1
1
1
1
1
1
1
1
1
1
1
1
1
1
1
1
1
1
1
1
1
1
1
1
1
1
1
1
1
1
1
1
1
1
1
1
1
1
1
1
1
1
1
1
1
1
1
1
1
1
1
1
1
1
1
1
1
1
1
1
1
1
1
1
1
1
1
1
1
1
1
1
1
1
1
1
1
1
1
1
1
1
1
1
2.97937
9.47463
10.4467
10.4036
10.3762
10.3395
10.3047
1
1
1
1
1
1
1
1
1
1
1
1
1
1
1
1
1
1
1
1
1
1
1
1
1
1
1
1
1
1
1
1
1
1
1
1
1
1
1
1
1
1
1
1
1
1
1
1
1
1
1
1
1
1
1
1
1
1
1
1
1
1
1
1
1
1
1
1
1
1
1
1
1
1
1
1
1
1
1
1
1
1
1
1
1
1
1
1
1
2.01124
8.72787
10.4849
10.4269
10.3918
10.3513
10.3103
1
1
1
1
1
1
1
1
1
1
1
1
1
1
1
1
1
1
1
1
1
1
1
1
1
1
1
1
1
1
1
1
1
1
1
1
1
1
1
1
1
1
1
1
1
1
1
1
1
1
1
1
1
1
1
1
1
1
1
1
1
1
1
1
1
1
1
1
1
1
1
1
1
1
1
1
1
1
1
1
1
1
1
1
1
1
1
1
1
1.40914
7.80406
10.5182
10.4558
10.4072
10.3614
10.3167
1
1
1
1
1
1
1
1
1
1
1
1
1
1
1
1
1
1
1
1
1
1
1
1
1
1
1
1
1
1
1
1
1
1
1
1
1
1
1
1
1
1
1
1
1
1
1
1
1
1
1
1
1
1
1
1
1
1
1
1
1
1
1
1
1
1
1
1
1
1
1
1
1
1
1
1
1
1
1
1
1
1
1
1
1
1
1
1
1
1.01142
6.68296
10.4517
10.4744
10.4122
10.3714
10.3263
1
1
1
1
1
1
1
1
1
1
1
1
1
1
1
1
1
1
1
1
1
1
1
1
1
1
1
1
1
1
1
1
1
1
1
1
1
1
1
1
1
1
1
1
1
1
1
1
1
1
1
1
1
1
1
1
1
1
1
1
1
1
1
1
1
1
1
1
1
1
1
1
1
1
1
1
1
1
1
1
1
1
1
1
1
1
1
1
1
1.00002
5.57585
10.2881
10.4498
10.3877
10.3539
10.3142
1
1
1
1
1
1
1
1
1
1
1
1
1
1
1
1
1
1
1
1
1
1
1
1
1
1
1
1
1
1
1
1
1
1
1
1
1
1
1
1
1
1
1
1
1
1
1
1
1
1
1
1
1
1
1
1
1
1
1
1
1
1
1
1
1
1
1
1
1
1
1
1
1
1
1
1
1
1
1
1
1
1
1
1
1
1
1
1
1
1
4.54067
10.076
10.4614
10.3948
10.3612
10.3222
1
1
1
1
1
1
1
1
1
1
1
1
1
1
1
1
1
1
1
1
1
1
1
1
1
1
1
1
1
1
1
1
1
1
1
1
1
1
1
1
1
1
1
1
1
1
1
1
1
1
1
1
1
1
1
1
1
1
1
1
1
1
1
1
1
1
1
1
1
1
1
1
1
1
1
1
1
1
1
1
1
1
1
1
1
1
1
1
1
1
3.6441
9.79923
10.4765
10.4021
10.3671
10.3274
1
1
1
1
1
1
1
1
1
1
1
1
1
1
1
1
1
1
1
1
1
1
1
1
1
1
1
1
1
1
1
1
1
1
1
1
1
1
1
1
1
1
1
1
1
1
1
1
1
1
1
1
1
1
1
1
1
1
1
1
1
1
1
1
1
1
1
1
1
1
1
1
1
1
1
1
1
1
1
1
1
1
1
1
1
1
1
1
1
1
2.88909
9.48304
10.4742
10.4039
10.3696
10.3311
1
1
1
1
1
1
1
1
1
1
1
1
1
1
1
1
1
1
1
1
1
1
1
1
1
1
1
1
1
1
1
1
1
1
1
1
1
1
1
1
1
1
1
1
1
1
1
1
1
1
1
1
1
1
1
1
1
1
1
1
1
1
1
1
1
1
1
1
1
1
1
1
1
1
1
1
1
1
1
1
1
1
1
1
1
1
1
1
1
1
2.3215
9.0818
10.4633
10.4076
10.3736
10.3367
1
1
1
1
1
1
1
1
1
1
1
1
1
1
1
1
1
1
1
1
1
1
1
1
1
1
1
1
1
1
1
1
1
1
1
1
1
1
1
1
1
1
1
1
1
1
1
1
1
1
1
1
1
1
1
1
1
1
1
1
1
1
1
1
1
1
1
1
1
1
1
1
1
1
1
1
1
1
1
1
1
1
1
1
1
1
1
1
1
1
1.91672
8.63241
10.4465
10.4026
10.3712
10.3364
1
1
1
1
1
1
1
1
1
1
1
1
1
1
1
1
1
1
1
1
1
1
1
1
1
1
1
1
1
1
1
1
1
1
1
1
1
1
1
1
1
1
1
1
1
1
1
1
1
1
1
1
1
1
1
1
1
1
1
1
1
1
1
1
1
1
1
1
1
1
1
1
1
1
1
1
1
1
1
1
1
1
1
1
1
1
1
1
1
1
1.63069
8.18747
10.435
10.4017
10.3749
10.3431
1
1
1
1
1
1
1
1
1
1
1
1
1
1
1
1
1
1
1
1
1
1
1
1
1
1
1
1
1
1
1
1
1
1
1
1
1
1
1
1
1
1
1
1
1
1
1
1
1
1
1
1
1
1
1
1
1
1
1
1
1
1
1
1
1
1
1
1
1
1
1
1
1
1
1
1
1
1
1
1
1
1
1
1
1
1
1
1
1
1
1.39602
7.69366
10.4413
10.4163
10.3815
10.3525
1
1
1
1
1
1
1
1
1
1
1
1
1
1
1
1
1
1
1
1
1
1
1
1
1
1
1
1
1
1
1
1
1
1
1
1
1
1
1
1
1
1
1
1
1
1
1
1
1
1
1
1
1
1
1
1
1
1
1
1
1
1
1
1
1
1
1
1
1
1
1
1
1
1
1
1
1
1
1
1
1
1
1
1
1
1
1
1
1
1
1.16829
7.13622
10.4669
10.4605
10.4085
10.3802
1
1
1
1
1
1
1
1
1
1
1
1
1
1
1
1
1
1
1
1
1
1
1
1
1
1
1
1
1
1
1
1
1
1
1
1
1
1
1
1
1
1
1
1
1
1
1
1
1
1
1
1
1
1
1
1
1
1
1
1
1
1
1
1
1
1
1
1
1
1
1
1
1
1
1
1
1
1
1
1
1
1
1
1
1
1
1
1
1
1
1.00333
6.66667
10.4935
10.5235
10.4479
10.4079
1
1
1
1
1
1
1
1
1
1
1
1
1
1
1
1
1
1
1
1
1
1
1
1
1
1
1
1
1
1
1
1
1
1
1
1
1
1
1
1
1
1
1
1
1
1
1
1
1
1
1
1
1
1
1
1
1
1
1
1
1
1
1
1
1
1
1
1
1
1
1
1
1
1
1
1
1
1
1
1
1
1
1
1
1
1
1
1
1
1
1.00001
6.21297
10.4742
10.5464
10.4707
10.4288
1
1
1
1
1
1
1
1
1
1
1
1
1
1
1
1
1
1
1
1
1
1
1
1
1
1
1
1
1
1
1
1
1
1
1
1
1
1
1
1
1
1
1
1
1
1
1
1
1
1
1
1
1
1
1
1
1
1
1
1
1
1
1
1
1
1
1
1
1
1
1
1
1
1
1
1
1
1
1
1
1
1
1
1
1
1
1
1
1
1
1
5.90617
10.4507
10.5558
10.4831
10.4408
1
1
1
1
1
1
1
1
1
1
1
1
1
1
1
1
1
1
1
1
1
1
1
1
1
1
1
1
1
1
1
1
1
1
1
1
1
1
1
1
1
1
1
1
1
1
1
1
1
1
1
1
1
1
1
1
1
1
1
1
1
1
1
1
1
1
1
1
1
1
1
1
1
1
1
1
1
1
1
1
1
1
1
1
1
1
1
1
1
1
1
5.76607
10.4152
10.5449
10.4805
10.4436
1.06243
0.241279
0.0478071
0.0173081
0.0274983
0.0550339
0.0816334
0.112203
0.157349
0.229204
0.309115
0.391013
0.493529
0.596158
0.649733
0.70881
0.76479
0.816591
0.868331
0.909787
0.950867
0.975797
1.00751
1.02936
1.04313
1.04822
1.06016
1.07055
1.07883
1.10399
1.13948
1.18248
1.21785
1.24115
1.25418
1.25055
1.24321
1.23872
1.2431
1.25073
1.26315
1.28726
1.30783
1.31206
1.31392
1.31256
1.30783
1.30569
1.30525
1.32932
1.68359
4.91233
6.3149
6.31889
6.29059
6.30629
6.32936
6.34694
6.34808
6.33537
6.31872
6.30165
6.28938
6.28435
6.28049
6.27337
6.25666
6.23043
6.19326
6.1468
6.0933
6.03931
5.99486
5.96192
5.93522
5.90389
5.86067
5.80481
5.74084
5.67831
5.62282
5.57578
5.53578
5.50118
5.46884
5.43551
5.39935
5.36011
5.31896
5.27763
5.23723
5.19775
5.15889
5.12079
5.08188
5.04064
4.99841
4.95688
4.91712
4.87854
4.8433
4.81464
4.79054