/*--------------------------------*- C++ -*----------------------------------*\
  =========                 |
  \\      /  F ield         | OpenFOAM: The Open Source CFD Toolbox
   \\    /   O peration     | Website:  https://openfoam.org
    \\  /    A nd           | Version:  7
     \\/     M anipulation  |
\*---------------------------------------------------------------------------*/
FoamFile
{
    version     2.0;
    format      ascii;
    class       volScalarField;
    location    "4.9";
    object      T;
}
// * * * * * * * * * * * * * * * * * * * * * * * * * * * * * * * * * * * * * //

dimensions      [0 0 0 1 0 0 0];

internalField   nonuniform List<scalar> 
19968
(
1
1
1
1
1
1
1
1
1
1
1
1
1
1
1
1
1
1
1
1
1
1
1
1
1
1
1
1
1
1
1
1
1
1
1
1
1
1
1
1
1
1
1
1
1
1
1
1
1.25641
2.44885
2.69421
2.6944
2.69702
2.69996
2.70359
2.70802
2.71317
2.71852
2.72342
2.72761
2.73104
2.73389
2.73652
2.7394
2.74276
2.74643
2.75004
2.75335
2.75629
2.75902
2.76175
2.76465
2.76769
2.77062
2.77324
2.77554
2.77768
2.77989
2.78226
2.78473
2.78705
2.78903
2.79061
2.79192
2.79316
2.79451
2.79604
2.79769
2.79928
2.80065
2.80171
2.8025
2.80311
2.80361
2.80398
2.80431
1
1
1
1
1
1
1
1
1
1
1
1
1
1
1
1
1
1
1
1
1
1
1
1
1
1
1
1
1
1
1
1
1
1
1
1
1
1
1
1
1
1
1
1
1
1
1
1
1.243
2.4418
2.69366
2.6943
2.6968
2.69973
2.70345
2.70797
2.71312
2.71838
2.72316
2.72723
2.7306
2.73345
2.73615
2.73909
2.7425
2.74617
2.74975
2.75303
2.75594
2.75867
2.76142
2.76437
2.76743
2.77038
2.773
2.77529
2.77743
2.77964
2.782
2.78443
2.78671
2.78865
2.79022
2.79154
2.79281
2.79418
2.79571
2.79733
2.79888
2.8002
2.80124
2.80203
2.80265
2.80314
2.80352
2.80384
1
1
1
1
1
1
1
1
1
1
1
1
1
1
1
1
1
1
1
1
1
1
1
1
1
1
1
1
1
1
1
1
1
1
1
1
1
1
1
1
1
1
1
1
1
1
1
1
1.21215
2.42436
2.69287
2.69324
2.69588
2.69912
2.70314
2.7078
2.71287
2.7179
2.7224
2.72626
2.72958
2.73252
2.73543
2.73856
2.74208
2.74573
2.74921
2.75237
2.75523
2.75796
2.76079
2.76382
2.76695
2.76992
2.77254
2.77482
2.77697
2.77918
2.78153
2.7839
2.78611
2.788
2.78957
2.79093
2.79225
2.79365
2.79516
2.79672
2.79821
2.79949
2.80051
2.8013
2.80194
2.80244
2.80283
2.80315
1
1
1
1
1
1
1
1
1
1
1
1
1
1
1
1
1
1
1
1
1
1
1
1
1
1
1
1
1
1
1
1
1
1
1
1
1
1
1
1
1
1
1
1
1
1
1
1
1.16692
2.39577
2.69038
2.69178
2.69515
2.69901
2.70332
2.70793
2.71262
2.71717
2.72124
2.72485
2.72816
2.7313
2.73454
2.73793
2.74156
2.74514
2.74845
2.75144
2.75421
2.75696
2.7599
2.76305
2.76625
2.76924
2.77185
2.77413
2.77628
2.77848
2.78079
2.78309
2.78521
2.78704
2.7886
2.79
2.79137
2.79277
2.79424
2.79571
2.7971
2.79831
2.7993
2.8001
2.80076
2.8013
2.80171
2.80203
1
1
1
1
1
1
1
1
1
1
1
1
1
1
1
1
1
1
1
1
1
1
1
1
1
1
1
1
1
1
1
1
1
1
1
1
1
1
1
1
1
1
1
1
1
1
1
1
1.10632
2.35677
2.68689
2.69034
2.69473
2.69922
2.70376
2.70819
2.71239
2.71637
2.72
2.72341
2.7268
2.73023
2.73383
2.73746
2.74112
2.74453
2.7476
2.75039
2.75308
2.75587
2.75893
2.76219
2.76546
2.76845
2.77104
2.77332
2.77546
2.77765
2.7799
2.78211
2.78414
2.78593
2.78751
2.78896
2.79037
2.79177
2.79316
2.79451
2.79574
2.79681
2.7977
2.79844
2.79906
2.79957
2.79995
2.80024
1
1
1
1
1
1
1
1
1
1
1
1
1
1
1
1
1
1
1
1
1
1
1
1
1
1
1
1
1
1
1
1
1
1
1
1
1
1
1
1
1
1
1
1
1
1
1
1
1.00394
2.28911
2.68348
2.69042
2.69528
2.70019
2.70469
2.70885
2.71254
2.71584
2.71894
2.72218
2.72572
2.72952
2.73353
2.73736
2.74089
2.74396
2.74668
2.74919
2.75174
2.75455
2.75767
2.76098
2.7642
2.76711
2.76963
2.77186
2.77397
2.7761
2.77827
2.78037
2.78231
2.78405
2.78564
2.78714
2.7886
2.79003
2.79139
2.79266
2.79381
2.79482
2.79569
2.79643
2.79705
2.79756
2.79791
2.79818
1
1
1
1
1
1
1
1
1
1
1
1
1
1
1
1
1
1
1
1
1
1
1
1
1
1
1
1
1
1
1
1
1
1
1
1
1
1
1
1
1
1
1
1
1
1
1
1
1.00001
2.19857
2.67685
2.68789
2.69277
2.69789
2.70237
2.7065
2.71003
2.71305
2.71598
2.71928
2.72309
2.72723
2.73157
2.73554
2.73894
2.74173
2.7442
2.74658
2.74915
2.75206
2.75528
2.75863
2.76181
2.76465
2.76712
2.76935
2.77149
2.77363
2.77576
2.77781
2.77969
2.7814
2.78302
2.78458
2.78611
2.78757
2.78891
2.79011
2.79117
2.79211
2.79294
2.79367
2.79427
2.79477
2.79506
2.79531
1
1
1
1
1
1
1
1
1
1
1
1
1
1
1
1
1
1
1
1
1
1
1
1
1
1
1
1
1
1
1
1
1
1
1
1
1
1
1
1
1
1
1
1
1
1
1
1
1
2.0697
2.6652
2.68464
2.6891
2.6941
2.69863
2.70293
2.70664
2.70993
2.71315
2.7167
2.72065
2.72481
2.72905
2.7329
2.73615
2.73885
2.74133
2.74384
2.74655
2.74959
2.75285
2.75613
2.75917
2.76189
2.76431
2.76653
2.76869
2.77082
2.77291
2.77488
2.77668
2.77835
2.77995
2.78154
2.7831
2.78457
2.78588
2.78699
2.78795
2.78879
2.78956
2.79025
2.79082
2.79127
2.79149
2.79171
1
1
1
1
1
1
1
1
1
1
1
1
1
1
1
1
1
1
1
1
1
1
1
1
1
1
1
1
1
1
1
1
1
1
1
1
1
1
1
1
1
1
1
1
1
1
1
1
1
1.89395
2.63555
2.67766
2.68243
2.68776
2.69262
2.6973
2.70144
2.70524
2.70899
2.71293
2.71707
2.72115
2.72511
2.72872
2.73183
2.73457
2.73727
2.74007
2.743
2.74612
2.7493
2.75239
2.75521
2.75778
2.76017
2.76245
2.76467
2.76684
2.7689
2.77079
2.77251
2.77412
2.7757
2.77729
2.77887
2.78036
2.78165
2.78273
2.78362
2.7844
2.78513
2.78579
2.78632
2.78674
2.78693
2.78712
1
1
1
1
1
1
1
1
1
1
1
1
1
1
1
1
1
1
1
1
1
1
1
1
1
1
1
1
1
1
1
1
1
1
1
1
1
1
1
1
1
1
1
1
1
1
1
1
1
1.65937
2.57751
2.67132
2.67647
2.68189
2.68659
2.69117
2.6955
2.69969
2.70388
2.70816
2.71248
2.71653
2.72024
2.7236
2.7266
2.72947
2.73247
2.73567
2.73886
2.74203
2.74503
2.74782
2.75034
2.75272
2.75506
2.75738
2.75964
2.76179
2.76376
2.76555
2.76718
2.76874
2.77031
2.77193
2.77354
2.77505
2.77635
2.77738
2.77818
2.77883
2.77941
2.77994
2.78037
2.78072
2.78087
2.78106
1
1
1
1
1
1
1
1
1
1
1
1
1
1
1
1
1
1
1
1
1
1
1
1
1
1
1
1
1
1
1
1
1
1
1
1
1
1
1
1
1
1
1
1
1
1
1
1
1
1.34454
2.46706
2.672
2.67204
2.67741
2.68144
2.68567
2.68984
2.69401
2.69825
2.70256
2.70691
2.71099
2.71462
2.71786
2.72083
2.72378
2.72695
2.73044
2.73387
2.7371
2.73996
2.74246
2.74473
2.74695
2.74927
2.75165
2.75394
2.75602
2.75783
2.7594
2.76081
2.76218
2.76357
2.76502
2.76648
2.76785
2.76904
2.76999
2.77073
2.7713
2.77181
2.77225
2.77264
2.77303
2.77324
2.77351
1
1
1
1
1
1
1
1
1
1
1
1
1
1
1
1
1
1
1
1
1
1
1
1
1
1
1
1
1
1
1
1
1
1
1
1
1
1
1
1
1
1
1
1
1
1
1
1
1
1.01294
2.28125
2.67666
2.67641
2.67902
2.68194
2.68513
2.68818
2.69118
2.69434
2.69783
2.70162
2.70547
2.70894
2.71191
2.71456
2.71723
2.72017
2.72358
2.72702
2.73019
2.73291
2.73515
2.73718
2.7392
2.74144
2.74385
2.74621
2.7483
2.75005
2.7515
2.75278
2.75403
2.75533
2.7567
2.75811
2.75943
2.76056
2.76139
2.7619
2.76212
2.76217
2.7621
2.76204
2.76213
2.76226
2.76249
1
1
1
1
1
1
1
1
1
1
1
1
1
1
1
1
1
1
1
1
1
1
1
1
1
1
1
1
1
1
1
1
1
1
1
1
1
1
1
1
1
1
1
1
1
1
1
1
1
1.00002
1.99147
2.6423
2.66331
2.66793
2.67285
2.67704
2.6804
2.68332
2.68618
2.68928
2.6927
2.69634
2.69983
2.70285
2.70548
2.70807
2.71082
2.71396
2.71731
2.72043
2.72317
2.72539
2.72732
2.72919
2.73131
2.73366
2.73604
2.73816
2.7399
2.74126
2.74238
2.74337
2.74436
2.74539
2.74644
2.74738
2.74805
2.74838
2.7484
2.74817
2.7479
2.74771
2.74763
2.74773
2.74772
2.7479
1
1
1
1
1
1
1
1
1
1
1
1
1
1
1
1
1
1
1
1
1
1
1
1
1
1
1
1
1
1
1
1
1
1
1
1
1
1
1
1
1
1
1
1
1
1
1
1
1
1
1.51263
2.50411
2.64778
2.65589
2.6638
2.66875
2.67261
2.67596
2.67915
2.68239
2.68577
2.6893
2.69281
2.69595
2.6986
2.70101
2.70335
2.70582
2.7086
2.71133
2.71383
2.71591
2.71758
2.71907
2.72067
2.72253
2.72456
2.72649
2.72809
2.72931
2.73016
2.7307
2.73116
2.73168
2.73233
2.73297
2.73337
2.73337
2.733
2.73227
2.73123
2.73002
2.72832
2.72604
2.72337
2.72124
1
1
1
1
1
1
1
1
1
1
1
1
1
1
1
1
1
1
1
1
1
1
1
1
1
1
1
1
1
1
1
1
1
1
1
1
1
1
1
1
1
1
1
1
1
1
1
1
1
1
1.02406
2.23395
2.65653
2.65625
2.65842
2.66095
2.66365
2.6665
2.66953
2.67277
2.67613
2.67954
2.683
2.68624
2.68898
2.69132
2.69342
2.69539
2.69754
2.6998
2.70196
2.7039
2.70543
2.70662
2.70762
2.70869
2.71002
2.71148
2.71292
2.71403
2.71435
2.71432
2.71406
2.7137
2.71336
2.71296
2.71215
2.71058
2.7081
2.70483
2.70111
2.69727
2.69382
2.69025
2.68767
2.68622
1
1
1
1
1
1
1
1
1
1
1
1
1
1
1
1
1
1
1
1
1
1
1
1
1
1
1
1
1
1
1
1
1
1
1
1
1
1
1
1
1
1
1
1
1
1
1
1
1
1
1.00004
1.73396
2.5574
2.63571
2.64151
2.64556
2.64885
2.65226
2.65603
2.66
2.66382
2.66732
2.67058
2.67371
2.67659
2.67918
2.68154
2.68357
2.68537
2.68718
2.68897
2.69071
2.69228
2.69337
2.69364
2.69372
2.69392
2.69432
2.69496
2.69545
2.69532
2.69467
2.69341
2.6917
2.68977
2.68762
2.68501
2.68166
2.67742
2.67241
2.66681
2.661
2.65541
2.65306
2.65015
2.66444
1
1
1
1
1
1
1
1
1
1
1
1
1
1
1
1
1
1
1
1
1
1
1
1
1
1
1
1
1
1
1
1
1
1
1
1
1
1
1
1
1
1
1
1
1
1
1
1
1
1
1
1.09629
2.34014
2.63433
2.63396
2.63561
2.63828
2.64149
2.64541
2.64959
2.6534
2.65655
2.65926
2.66191
2.66463
2.66728
2.66977
2.6719
2.67357
2.67502
2.67647
2.67791
2.67937
2.68035
2.6802
2.67959
2.67873
2.67789
2.6774
2.67702
2.67631
2.67491
2.67263
2.66951
2.66573
2.66133
2.65606
2.64962
2.64132
2.63065
2.61596
2.59587
2.56596
2.52345
2.45942
2.33153
1
1
1
1
1
1
1
1
1
1
1
1
1
1
1
1
1
1
1
1
1
1
1
1
1
1
1
1
1
1
1
1
1
1
1
1
1
1
1
1
1
1
1
1
1
1
1
1
1
1
1
1.00071
1.999
2.59957
2.61411
2.61838
2.62316
2.62764
2.63257
2.63765
2.64204
2.64533
2.64776
2.64999
2.65243
2.65512
2.65784
2.66027
2.66215
2.66345
2.66466
2.66594
2.66723
2.66814
2.66795
2.66702
2.66552
2.66374
2.66214
2.66073
2.65911
2.65682
2.65355
2.64917
2.64361
2.63694
2.6288
2.6191
2.6066
2.59083
2.56876
2.53905
2.49489
2.43695
2.32611
2.16366
1
1
1
1
1
1
1
1
1
1
1
1
1
1
1
1
1
1
1
1
1
1
1
1
1
1
1
1
1
1
1
1
1
1
1
1
1
1
1
1
1
1
1
1
1
1
1
1
1
1
1
0.999999
1.36935
2.42509
2.59612
2.60321
2.60951
2.61422
2.61994
2.62606
2.63104
2.63438
2.63639
2.63813
2.64026
2.6429
2.64576
2.6484
2.65038
2.65151
2.65254
2.65362
2.65461
2.65528
2.65501
2.65386
2.65184
2.64927
2.64662
2.64408
2.64133
2.638
2.6336
2.6279
2.62056
2.61173
2.60087
2.58803
2.57194
2.55179
2.52522
2.48906
2.44125
2.36793
2.26363
2.1356
1
1
1
1
1
1
1
1
1
1
1
1
1
1
1
1
1
1
1
1
1
1
1
1
1
1
1
1
1
1
1
1
1
1
1
1
1
1
1
1
1
1
1
1
1
1
1
1
1
1
1
1
1.01298
2.10173
2.59049
2.59524
2.59824
2.60185
2.60731
2.61333
2.61783
2.62104
2.62285
2.62441
2.62651
2.62938
2.63265
2.63546
2.63736
2.6384
2.6391
2.63978
2.6405
2.64106
2.64083
2.63966
2.63732
2.63415
2.63063
2.62707
2.62326
2.61893
2.61343
2.60647
2.59753
2.58677
2.57376
2.55832
2.53959
2.51643
2.48738
2.44924
2.40031
2.33273
2.24943
2.14951
1
1
1
1
1
1
1
1
1
1
1
1
1
1
1
1
1
1
1
1
1
1
1
1
1
1
1
1
1
1
1
1
1
1
1
1
1
1
1
1
1
1
1
1
1
1
1
1
1
1
1
1
1.00001
1.43311
2.43416
2.58672
2.5861
2.59086
2.59718
2.60295
2.60666
2.60878
2.60977
2.61065
2.61231
2.61512
2.61847
2.62155
2.62361
2.62451
2.62474
2.62493
2.62534
2.62585
2.62575
2.62473
2.62226
2.61869
2.61447
2.61008
2.60534
2.60009
2.59363
2.58556
2.57536
2.56315
2.54874
2.53177
2.51158
2.48695
2.45734
2.41936
2.37369
2.31732
2.25112
2.17334
1
1
1
1
1
1
1
1
1
1
1
1
1
1
1
1
1
1
1
1
1
1
1
1
1
1
1
1
1
1
1
1
1
1
1
1
1
1
1
1
1
1
1
1
1
1
1
1
1
1
1
1
1
1.01767
2.09999
2.58078
2.58298
2.5855
2.58928
2.5931
2.59578
2.59709
2.59734
2.59765
2.59848
2.60064
2.60388
2.60726
2.60965
2.61039
2.61005
2.60939
2.60912
2.60926
2.60924
2.60849
2.60622
2.60264
2.5981
2.59311
2.58761
2.5815
2.57421
2.56532
2.55432
2.54122
2.52598
2.50832
2.48779
2.46309
2.43423
2.39827
2.35788
2.30988
2.25625
2.19471
1
1
1
1
1
1
1
1
1
1
1
1
1
1
1
1
1
1
1
1
1
1
1
1
1
1
1
1
1
1
1
1
1
1
1
1
1
1
1
1
1
1
1
1
1
1
1
1
1
1
1
1
1
1.00002
1.37367
2.39619
2.57547
2.57698
2.58115
2.58431
2.58601
2.58629
2.586
2.58582
2.58586
2.58698
2.58944
2.59231
2.5948
2.59556
2.59494
2.59367
2.59251
2.59202
2.59172
2.59092
2.58889
2.58561
2.58124
2.5762
2.57036
2.56358
2.55557
2.54606
2.53464
2.52116
2.50563
2.48789
2.46785
2.44396
2.41668
2.3843
2.34892
2.30643
2.26164
2.21095
1
1
1
1
1
1
1
1
1
1
1
1
1
1
1
1
1
1
1
1
1
1
1
1
1
1
1
1
1
1
1
1
1
1
1
1
1
1
1
1
1
1
1
1
1
1
1
1
1
1
1
1
1
1
1.01204
2.00956
2.55086
2.56868
2.5713
2.57365
2.57598
2.57639
2.57614
2.57602
2.57552
2.57595
2.57728
2.57907
2.5809
2.58135
2.5805
2.57868
2.57651
2.57498
2.57389
2.57264
2.5706
2.56767
2.56378
2.55899
2.55309
2.54595
2.53747
2.52764
2.5162
2.50286
2.48753
2.47005
2.45081
2.42801
2.4029
2.37426
2.3429
2.30662
2.26846
2.22473
1
1
1
1
1
1
1
1
1
1
1
1
1
1
1
1
1
1
1
1
1
1
1
1
1
1
1
1
1
1
1
1
1
1
1
1
1
1
1
1
1
1
1
1
1
1
1
1
1
1
1
1
1
1
1.00001
1.20677
2.33302
2.56403
2.56185
2.56374
2.56506
2.56567
2.56578
2.56546
2.56485
2.56489
2.56534
2.56605
2.56691
2.5671
2.56617
2.56406
2.56117
2.55871
2.55674
2.55484
2.55247
2.54958
2.54598
2.54143
2.53563
2.52843
2.5198
2.50992
2.49873
2.48585
2.47133
2.45445
2.43607
2.4148
2.39164
2.36605
2.33837
2.30708
2.27367
2.23574
1
1
1
1
1
1
1
1
1
1
1
1
1
1
1
1
1
1
1
1
1
1
1
1
1
1
1
1
1
1
1
1
1
1
1
1
1
1
1
1
1
1
1
1
1
1
1
1
1
1
1
1
1
1
1
1.00302
1.82631
2.4959
2.53955
2.5467
2.55076
2.55229
2.5527
2.5525
2.55238
2.55269
2.55323
2.55328
2.55332
2.55319
2.55213
2.54996
2.54675
2.54355
2.54053
2.53771
2.53484
2.53182
2.52822
2.52363
2.51778
2.51056
2.50206
2.49243
2.48177
2.46966
2.45644
2.44039
2.42319
2.40371
2.38196
2.35916
2.33426
2.30673
2.27696
2.2447
1
1
1
1
1
1
1
1
1
1
1
1
1
1
1
1
1
1
1
1
1
1
1
1
1
1
1
1
1
1
1
1
1
1
1
1
1
1
1
1
1
1
1
1
1
1
1
1
1
1
1
1
1
1
1
1
1.09158
2.19079
2.53596
2.53944
2.53857
2.53869
2.53904
2.53919
2.53968
2.54072
2.54176
2.54147
2.5408
2.54006
2.53875
2.53676
2.53372
2.53013
2.52643
2.52272
2.51925
2.51567
2.51171
2.50677
2.5006
2.49315
2.48474
2.47535
2.46522
2.4538
2.44182
2.42695
2.41135
2.3936
2.37355
2.35329
2.33006
2.30555
2.279
2.25125
1
1
1
1
1
1
1
1
1
1
1
1
1
1
1
1
1
1
1
1
1
1
1
1
1
1
1
1
1
1
1
1
1
1
1
1
1
1
1
1
1
1
1
1
1
1
1
1
1
1
1
1
1
1
1
1
1.00056
1.42255
2.35855
2.51692
2.51599
2.5185
2.52112
2.52298
2.52457
2.52658
2.52865
2.52874
2.52803
2.52687
2.52533
2.52344
2.52069
2.51701
2.51315
2.50901
2.50497
2.50092
2.49633
2.491
2.48441
2.47657
2.46804
2.4588
2.44939
2.43833
2.42721
2.4138
2.39977
2.38379
2.3659
2.34734
2.32564
2.3041
2.28033
2.25578
1
1
1
1
1
1
1
1
1
1
1
1
1
1
1
1
1
1
1
1
1
1
1
1
1
1
1
1
1
1
1
1
1
1
1
1
1
1
1
1
1
1
1
1
1
1
1
1
1
1
1
1
1
1
1
1
1
1.01552
1.87592
2.46627
2.49791
2.50286
2.50544
2.50735
2.5095
2.51202
2.51451
2.51542
2.51479
2.5136
2.51208
2.51027
2.50766
2.50408
2.50019
2.49624
2.49198
2.48757
2.48267
2.47701
2.47004
2.46189
2.45314
2.444
2.4347
2.42402
2.41344
2.40117
2.38834
2.37377
2.35782
2.34047
2.3209
2.30175
2.28012
2.25805
1
1
1
1
1
1
1
1
1
1
1
1
1
1
1
1
1
1
1
1
1
1
1
1
1
1
1
1
1
1
1
1
1
1
1
1
1
1
1
1
1
1
1
1
1
1
1
1
1
1
1
1
1
1
1
1
1
1.00003
1.11059
2.11116
2.47745
2.49672
2.4951
2.4961
2.49757
2.49929
2.50117
2.50193
2.50132
2.50006
2.49862
2.49667
2.49408
2.49062
2.48678
2.4834
2.47934
2.47503
2.47002
2.46419
2.45715
2.44889
2.44
2.43082
2.42128
2.4112
2.40084
2.38918
2.37718
2.36364
2.34921
2.33305
2.31571
2.29813
2.27875
2.25879
1
1
1
1
1
1
1
1
1
1
1
1
1
1
1
1
1
1
1
1
1
1
1
1
1
1
1
1
1
1
1
1
1
1
1
1
1
1
1
1
1
1
1
1
1
1
1
1
1
1
1
1
1
1
1
1
1
1
1.00083
1.25656
2.25766
2.4783
2.47839
2.48096
2.48188
2.48311
2.48435
2.48522
2.48508
2.48445
2.48331
2.48171
2.47933
2.47626
2.47281
2.4697
2.4663
2.46227
2.45763
2.45208
2.44533
2.43726
2.42864
2.41947
2.41
2.4002
2.38992
2.37864
2.36701
2.35414
2.34064
2.32561
2.30993
2.29341
2.27597
2.25796
1
1
1
1
1
1
1
1
1
1
1
1
1
1
1
1
1
1
1
1
1
1
1
1
1
1
1
1
1
1
1
1
1
1
1
1
1
1
1
1
1
1
1
1
1
1
1
1
1
1
1
1
1
1
1
1
1
1
1
1.00468
1.62026
2.36327
2.45712
2.4552
2.45748
2.46021
2.46306
2.46517
2.46651
2.46692
2.4665
2.4653
2.46354
2.46109
2.45822
2.45564
2.45288
2.44942
2.44532
2.44034
2.434
2.42643
2.41817
2.4093
2.39999
2.39042
2.38027
2.36939
2.35802
2.34575
2.33282
2.3188
2.30414
2.28854
2.27249
2.2562
1
1
1
1
1
1
1
1
1
1
1
1
1
1
1
1
1
1
1
1
1
1
1
1
1
1
1
1
1
1
1
1
1
1
1
1
1
1
1
1
1
1
1
1
1
1
1
1
1
1
1
1
1
1
1
1
1
1
1
1.00001
1.04189
1.88613
2.41223
2.44441
2.44343
2.44567
2.4472
2.44845
2.44936
2.44973
2.4495
2.44866
2.44743
2.44582
2.44354
2.44153
2.43919
2.43624
2.43262
2.4282
2.4226
2.41563
2.40789
2.39953
2.39062
2.3814
2.37158
2.36116
2.35018
2.33853
2.32618
2.31301
2.29894
2.28407
2.26894
2.25397
1
1
1
1
1
1
1
1
1
1
1
1
1
1
1
1
1
1
1
1
1
1
1
1
1
1
1
1
1
1
1
1
1
1
1
1
1
1
1
1
1
1
1
1
1
1
1
1
1
1
1
1
1
1
1
1
1
1
1
1
1.00016
1.12245
2.00766
2.40967
2.43416
2.43703
2.43788
2.43728
2.43644
2.43542
2.43424
2.43287
2.43155
2.43013
2.42841
2.42673
2.42471
2.42218
2.41899
2.415
2.41004
2.40381
2.39657
2.38884
2.38062
2.372
2.36282
2.35306
2.34273
2.33183
2.32019
2.3078
2.29437
2.28023
2.26588
2.25193
1
1
1
1
1
1
1
1
1
1
1
1
1
1
1
1
1
1
1
1
1
1
1
1
1
1
1
1
1
1
1
1
1
1
1
1
1
1
1
1
1
1
1
1
1
1
1
1
1
1
1
1
1
1
1
1
1
1
1
1
1
1.00106
1.19939
2.08567
2.39681
2.42827
2.42793
2.42725
2.42586
2.42398
2.42194
2.41989
2.41805
2.41625
2.41449
2.41266
2.41054
2.40799
2.40487
2.40104
2.39638
2.39071
2.38408
2.37693
2.36947
2.36164
2.35329
2.34433
2.33479
2.32471
2.3139
2.30242
2.28997
2.27671
2.26324
2.2502
1
1
1
1
1
1
1
1
1
1
1
1
1
1
1
1
1
1
1
1
1
1
1
1
1
1
1
1
1
1
1
1
1
1
1
1
1
1
1
1
1
1
1
1
1
1
1
1
1
1
1
1
1
1
1
1
1
1
1
1
1
1
1.00279
1.27785
2.14024
2.38694
2.41043
2.41296
2.41282
2.41202
2.41044
2.40847
2.40631
2.40412
2.40198
2.39968
2.3971
2.39418
2.39081
2.38684
2.38216
2.37672
2.37055
2.36392
2.35705
2.34994
2.34243
2.33433
2.32571
2.31656
2.30689
2.29656
2.28534
2.27304
2.26062
2.24843
1
1
1
1
1
1
1
1
1
1
1
1
1
1
1
1
1
1
1
1
1
1
1
1
1
1
1
1
1
1
1
1
1
1
1
1
1
1
1
1
1
1
1
1
1
1
1
1
1
1
1
1
1
1
1
1
1
1
1
1
1
1
1
1.00567
1.3578
2.17965
2.37303
2.39005
2.39491
2.39647
2.39626
2.39522
2.39369
2.39192
2.38984
2.38732
2.38444
2.38121
2.37754
2.37333
2.36854
2.36313
2.35716
2.35084
2.34426
2.33756
2.33064
2.32332
2.31563
2.30769
2.2993
2.29014
2.28019
2.26888
2.25753
2.24617
1
1
1
1
1
1
1
1
1
1
1
1
1
1
1
1
1
1
1
1
1
1
1
1
1
1
1
1
1
1
1
1
1
1
1
1
1
1
1
1
1
1
1
1
1
1
1
1
1
1
1
1
1
1
1
1
1
1
1
1
1
1
1
1.00001
1.01021
1.42898
2.20759
2.36067
2.37151
2.37518
2.37674
2.37754
2.37744
2.37685
2.37542
2.37338
2.37093
2.36797
2.36443
2.36027
2.3555
2.35018
2.34439
2.33828
2.33191
2.3254
2.31881
2.31204
2.30504
2.29798
2.29056
2.28248
2.2737
2.26343
2.2531
2.2426
1
1
1
1
1
1
1
1
1
1
1
1
1
1
1
1
1
1
1
1
1
1
1
1
1
1
1
1
1
1
1
1
1
1
1
1
1
1
1
1
1
1
1
1
1
1
1
1
1
1
1
1
1
1
1
1
1
1
1
1
1
1
1
1
1.00002
1.01614
1.48931
2.22808
2.35293
2.35366
2.35489
2.35576
2.35673
2.3574
2.35733
2.35676
2.35552
2.35349
2.35062
2.34695
2.34258
2.33759
2.33215
2.32639
2.32031
2.314
2.30764
2.30121
2.29463
2.28805
2.28119
2.27385
2.2659
2.25656
2.24708
2.23746
1
1
1
1
1
1
1
1
1
1
1
1
1
1
1
1
1
1
1
1
1
1
1
1
1
1
1
1
1
1
1
1
1
1
1
1
1
1
1
1
1
1
1
1
1
1
1
1
1
1
1
1
1
1
1
1
1
1
1
1
1
1
1
1
1
1.00005
1.02297
1.55873
2.24484
2.33968
2.33787
2.33715
2.33714
2.33714
2.33724
2.33713
2.33671
2.33576
2.33405
2.33152
2.32821
2.32419
2.31957
2.31448
2.30899
2.30317
2.29716
2.29103
2.28473
2.27831
2.27162
2.26463
2.25717
2.2486
2.2397
2.23079
1
1
1
1
1
1
1
1
1
1
1
1
1
1
1
1
1
1
1
1
1
1
1
1
1
1
1
1
1
1
1
1
1
1
1
1
1
1
1
1
1
1
1
1
1
1
1
1
1
1
1
1
1
1
1
1
1
1
1
1
1
1
1
1
1
1
1.00008
1.0333
1.58858
2.2439
2.3279
2.32593
2.32377
2.32211
2.32062
2.31947
2.31844
2.31726
2.31582
2.31404
2.31177
2.30891
2.30545
2.3014
2.29686
2.29182
2.28642
2.28077
2.27484
2.26866
2.26211
2.25528
2.24815
2.24005
2.23155
2.22315
1
1
1
1
1
1
1
1
1
1
1
1
1
1
1
1
1
1
1
1
1
1
1
1
1
1
1
1
1
1
1
1
1
1
1
1
1
1
1
1
1
1
1
1
1
1
1
1
1
1
1
1
1
1
1
1
1
1
1
1
1
1
1
1
1
1
1
1.00014
1.03908
1.58688
2.23333
2.31771
2.31509
2.31205
2.30913
2.30634
2.3037
2.30113
2.2987
2.29651
2.29431
2.29192
2.2892
2.2861
2.28253
2.27849
2.27405
2.26919
2.26389
2.25823
2.25203
2.24549
2.2386
2.23102
2.22314
2.21497
1
1
1
1
1
1
1
1
1
1
1
1
1
1
1
1
1
1
1
1
1
1
1
1
1
1
1
1
1
1
1
1
1
1
1
1
1
1
1
1
1
1
1
1
1
1
1
1
1
1
1
1
1
1
1
1
1
1
1
1
1
1
1
1
1
1
1
1
1.00018
1.03921
1.58095
2.21575
2.30601
2.30401
2.30015
2.29635
2.29232
2.28869
2.28539
2.2822
2.27914
2.2761
2.27308
2.27005
2.26689
2.26349
2.25978
2.25573
2.25125
2.24623
2.24079
2.23487
2.22842
2.22156
2.21418
2.20669
1
1
1
1
1
1
1
1
1
1
1
1
1
1
1
1
1
1
1
1
1
1
1
1
1
1
1
1
1
1
1
1
1
1
1
1
1
1
1
1
1
1
1
1
1
1
1
1
1
1
1
1
1
1
1
1
1
1
1
1
1
1
1
1
1
1
1
1
1
1.00018
1.03822
1.55711
2.18779
2.29364
2.29243
2.28816
2.28402
2.27975
2.27577
2.27181
2.26777
2.26379
2.25986
2.25598
2.25224
2.24852
2.2447
2.24088
2.23687
2.23253
2.22773
2.22248
2.21706
2.21098
2.20462
2.19827
1
1
1
1
1
1
1
1
1
1
1
1
1
1
1
1
1
1
1
1
1
1
1
1
1
1
1
1
1
1
1
1
1
1
1
1
1
1
1
1
1
1
1
1
1
1
1
1
1
1
1
1
1
1
1
1
1
1
1
1
1
1
1
1
1
1
1
1
1
1
1.00018
1.03408
1.51549
2.15146
2.27734
2.27938
2.27601
2.27228
2.26798
2.26356
2.25916
2.25471
2.25009
2.24536
2.24066
2.23612
2.23171
2.22728
2.2229
2.21854
2.21397
2.20934
2.20463
2.19961
2.1943
2.18855
1
1
1
1
1
1
1
1
1
1
1
1
1
1
1
1
1
1
1
1
1
1
1
1
1
1
1
1
1
1
1
1
1
1
1
1
1
1
1
1
1
1
1
1
1
1
1
1
1
1
1
1
1
1
1
1
1
1
1
1
1
1
1
1
1
1
1
1
1
1
1
1.00015
1.02751
1.46245
2.09207
2.2579
2.26901
2.26458
2.26058
2.2559
2.2512
2.24652
2.2419
2.23711
2.23198
2.2268
2.22176
2.21674
2.21179
2.20696
2.20228
2.1975
2.19268
2.18793
2.18303
2.17816
1
1
1
1
1
1
1
1
1
1
1
1
1
1
1
1
1
1
1
1
1
1
1
1
1
1
1
1
1
1
1
1
1
1
1
1
1
1
1
1
1
1
1
1
1
1
1
1
1
1
1
1
1
1
1
1
1
1
1
1
1
1
1
1
1
1
1
1
1
1
1
1
1.00011
1.02077
1.38695
2.01937
2.22784
2.25719
2.25097
2.2476
2.24359
2.23908
2.23434
2.22939
2.22429
2.21927
2.21445
2.20953
2.20439
2.19909
2.1937
2.1884
2.1831
2.17802
2.17315
2.16807
1
1
1
1
1
1
1
1
1
1
1
1
1
1
1
1
1
1
1
1
1
1
1
1
1
1
1
1
1
1
1
1
1
1
1
1
1
1
1
1
1
1
1
1
1
1
1
1
1
1
1
1
1
1
1
1
1
1
1
1
1
1
1
1
1
1
1
1
1
1
1
1
1
1.00007
1.01333
1.30428
1.90864
2.19546
2.2401
2.23533
2.23317
2.23046
2.22715
2.22324
2.21892
2.21413
2.20905
2.20391
2.19878
2.19353
2.18815
2.18264
2.17691
2.17125
2.16552
2.15979
1
1
1
1
1
1
1
1
1
1
1
1
1
1
1
1
1
1
1
1
1
1
1
1
1
1
1
1
1
1
1
1
1
1
1
1
1
1
1
1
1
1
1
1
1
1
1
1
1
1
1
1
1
1
1
1
1
1
1
1
1
1
1
1
1
1
1
1
1
1
1
1
1
1
1.00004
1.00771
1.21111
1.78371
2.15151
2.21907
2.21814
2.21762
2.21565
2.21335
2.21038
2.20684
2.2028
2.19836
2.19357
2.18837
2.18299
2.1774
2.17174
2.16592
2.16009
2.15418
1
1
1
1
1
1
1
1
1
1
1
1
1
1
1
1
1
1
1
1
1
1
1
1
1
1
1
1
1
1
1
1
1
1
1
1
1
1
1
1
1
1
1
1
1
1
1
1
1
1
1
1
1
1
1
1
1
1
1
1
1
1
1
1
1
1
1
1
1
1
1
1
1
1
1
1.00002
1.00374
1.13017
1.6491
2.10016
2.19001
2.20159
2.19836
2.19809
2.19708
2.19531
2.19284
2.18973
2.18605
2.18192
2.17733
2.17231
2.16692
2.16133
2.15544
2.14953
1
1
1
1
1
1
1
1
1
1
1
1
1
1
1
1
1
1
1
1
1
1
1
1
1
1
1
1
1
1
1
1
1
1
1
1
1
1
1
1
1
1
1
1
1
1
1
1
1
1
1
1
1
1
1
1
1
1
1
1
1
1
1
1
1
1
1
1
1
1
1
1
1
1
1
1
1.00001
1.00156
1.07039
1.51799
2.02224
2.15869
2.18952
2.18141
2.18122
2.18067
2.17947
2.17752
2.17515
2.17229
2.16889
2.16488
2.16058
2.15568
2.15066
2.14493
1
1
1
1
1
1
1
1
1
1
1
1
1
1
1
1
1
1
1
1
1
1
1
1
1
1
1
1
1
1
1
1
1
1
1
1
1
1
1
1
1
1
1
1
1
1
1
1
1
1
1
1
1
1
1
1
1
1
1
1
1
1
1
1
1
1
1
1
1
1
1
1
1
1
1
1
1
1
1.00056
1.03415
1.38343
1.90585
2.13112
2.16963
2.16683
2.16481
2.16334
2.1621
2.16052
2.15847
2.15649
2.15391
2.15088
2.14702
2.14291
2.13775
1
1
1
1
1
1
1
1
1
1
1
1
1
1
1
1
1
1
1
1
1
1
1
1
1
1
1
1
1
1
1
1
1
1
1
1
1
1
1
1
1
1
1
1
1
1
1
1
1
1
1
1
1
1
1
1
1
1
1
1
1
1
1
1
1
1
1
1
1
1
1
1
1
1
1
1
1
1
1
1.00017
1.01473
1.24746
1.7566
2.08931
2.14635
2.15281
2.14815
2.14627
2.14493
2.14418
2.14264
2.14084
2.13809
2.13565
2.13193
2.12867
1
1
1
1
1
1
1
1
1
1
1
1
1
1
1
1
1
1
1
1
1
1
1
1
1
1
1
1
1
1
1
1
1
1
1
1
1
1
1
1
1
1
1
1
1
1
1
1
1
1
1
1
1
1
1
1
1
1
1
1
1
1
1
1
1
1
1
1
1
1
1
1
1
1
1
1
1
1
1
1
1.00005
1.0055
1.13173
1.59356
2.01654
2.11708
2.14034
2.13575
2.13231
2.13049
2.12833
2.12584
2.12275
2.12304
2.12681
2.13673
1
1
1
1
1
1
1
1
1
1
1
1
1
1
1
1
1
1
1
1
1
1
1
1
1
1
1
1
1
1
1
1
1
1
1
1
1
1
1
1
1
1
1
1
1
1
1
1
1
1
1
1
1
1
1
1
1
1
1
1
1
1
1
1
1
1
1
1
1
1
1
1
1
1
1
1
1
1
1
1
1
1.00001
1.0017
1.05759
1.42997
1.89789
2.08874
2.12524
2.12392
2.11995
2.11249
2.11387
2.1204
2.13993
2.17761
2.23288
1
1
1
1
1
1
1
1
1
1
1
1
1
1
1
1
1
1
1
1
1
1
1
1
1
1
1
1
1
1
1
1
1
1
1
1
1
1
1
1
1
1
1
1
1
1
1
1
1
1
1
1
1
1
1
1
1
1
1
1
1
1
1
1
1
1
1
1
1
1
1
1
1
1
1
1
1
1
1
1
1
1
1
1.00042
1.0215
1.26811
1.73766
2.04101
2.10664
2.10435
2.11974
2.15129
2.20155
2.26451
2.31476
2.34906
1
1
1
1
1
1
1
1
1
1
1
1
1
1
1
1
1
1
1
1
1
1
1
1
1
1
1
1
1
1
1
1
1
1
1
1
1
1
1
1
1
1
1
1
1
1
1
1
1
1
1
1
1
1
1
1
1
1
1
1
1
1
1
1
1
1
1
1
1
1
1
1
1
1
1
1
1
1
1
1
1
1
1
1
1.00009
1.00686
1.13161
1.56041
1.93423
2.1174
2.25166
2.30703
2.347
2.36997
2.37707
2.37459
1
1
1
1
1
1
1
1
1
1
1
1
1
1
1
1
1
1
1
1
1
1
1
1
1
1
1
1
1
1
1
1
1
1
1
1
1
1
1
1
1
1
1
1
1
1
1
1
1
1
1
1
1
1
1
1
1
1
1
1
1
1
1
1
1
1
1
1
1
1
1
1
1
1
1
1
1
1
1
1
1
1
1
1
1
1.00002
1.00176
1.05219
1.36184
2.30689
2.49351
2.46889
2.4513
2.43511
2.42031
2.40659
1
1
1
1
1
1
1
1
1
1
1
1
1
1
1
1
1
1
1
1
1
1
1
1
1
1
1
1
1
1
1
1
1
1
1
1
1
1
1
1
1
1
1
1
1
1
1
1
1
1
1
1
1
1
1
1
1
1
1
1
1
1
1
1
1
1
1
1
1
1
1
1
1
1
1
1
1
1
1
1
1
1
1
1
1
1
1
1.00044
1.40923
2.55326
2.63801
2.5974
2.55618
2.51617
2.48422
2.45794
1
1
1
1
1
1
1
1
1
1
1
1
1
1
1
1
1
1
1
1
1
1
1
1
1
1
1
1
1
1
1
1
1
1
1
1
1
1
1
1
1
1
1
1
1
1
1
1
1
1
1
1
1
1
1
1
1
1
1
1
1
1
1
1
1
1
1
1
1
1
1
1
1
1
1
1
1
1
1
1
1
1
1
1
1
1
1
1
1.35411
2.53222
2.6978
2.67967
2.66107
2.63315
2.60526
2.57707
1
1
1
1
1
1
1
1
1
1
1
1
1
1
1
1
1
1
1
1
1
1
1
1
1
1
1
1
1
1
1
1
1
1
1
1
1
1
1
1
1
1
1
1
1
1
1
1
1
1
1
1
1
1
1
1
1
1
1
1
1
1
1
1
1
1
1
1
1
1
1
1
1
1
1
1
1
1
1
1
1
1
1
1
1
1
1
1
1.12196
2.38608
2.70862
2.70589
2.70151
2.69298
2.68066
2.66501
1
1
1
1
1
1
1
1
1
1
1
1
1
1
1
1
1
1
1
1
1
1
1
1
1
1
1
1
1
1
1
1
1
1
1
1
1
1
1
1
1
1
1
1
1
1
1
1
1
1
1
1
1
1
1
1
1
1
1
1
1
1
1
1
1
1
1
1
1
1
1
1
1
1
1
1
1
1
1
1
1
1
1
1
1
1
1
1
1.00205
2.18499
2.70232
2.70782
2.70572
2.70309
2.69951
2.69433
1
1
1
1
1
1
1
1
1
1
1
1
1
1
1
1
1
1
1
1
1
1
1
1
1
1
1
1
1
1
1
1
1
1
1
1
1
1
1
1
1
1
1
1
1
1
1
1
1
1
1
1
1
1
1
1
1
1
1
1
1
1
1
1
1
1
1
1
1
1
1
1
1
1
1
1
1
1
1
1
1
1
1
1
1
1
1
1
1
1.96266
2.66698
2.70559
2.70348
2.70115
2.6974
2.69328
1
1
1
1
1
1
1
1
1
1
1
1
1
1
1
1
1
1
1
1
1
1
1
1
1
1
1
1
1
1
1
1
1
1
1
1
1
1
1
1
1
1
1
1
1
1
1
1
1
1
1
1
1
1
1
1
1
1
1
1
1
1
1
1
1
1
1
1
1
1
1
1
1
1
1
1
1
1
1
1
1
1
1
1
1
1
1
1
1
1.71108
2.61437
2.69994
2.69653
2.69426
2.69136
2.68863
1
1
1
1
1
1
1
1
1
1
1
1
1
1
1
1
1
1
1
1
1
1
1
1
1
1
1
1
1
1
1
1
1
1
1
1
1
1
1
1
1
1
1
1
1
1
1
1
1
1
1
1
1
1
1
1
1
1
1
1
1
1
1
1
1
1
1
1
1
1
1
1
1
1
1
1
1
1
1
1
1
1
1
1
1
1
1
1
1
1.44017
2.53124
2.69659
2.69224
2.68978
2.68705
2.68444
1
1
1
1
1
1
1
1
1
1
1
1
1
1
1
1
1
1
1
1
1
1
1
1
1
1
1
1
1
1
1
1
1
1
1
1
1
1
1
1
1
1
1
1
1
1
1
1
1
1
1
1
1
1
1
1
1
1
1
1
1
1
1
1
1
1
1
1
1
1
1
1
1
1
1
1
1
1
1
1
1
1
1
1
1
1
1
1
1
1.20803
2.42946
2.6985
2.69419
2.69086
2.68765
2.68451
1
1
1
1
1
1
1
1
1
1
1
1
1
1
1
1
1
1
1
1
1
1
1
1
1
1
1
1
1
1
1
1
1
1
1
1
1
1
1
1
1
1
1
1
1
1
1
1
1
1
1
1
1
1
1
1
1
1
1
1
1
1
1
1
1
1
1
1
1
1
1
1
1
1
1
1
1
1
1
1
1
1
1
1
1
1
1
1
1
1.00552
2.29796
2.69669
2.6996
2.69492
2.69164
2.68796
1
1
1
1
1
1
1
1
1
1
1
1
1
1
1
1
1
1
1
1
1
1
1
1
1
1
1
1
1
1
1
1
1
1
1
1
1
1
1
1
1
1
1
1
1
1
1
1
1
1
1
1
1
1
1
1
1
1
1
1
1
1
1
1
1
1
1
1
1
1
1
1
1
1
1
1
1
1
1
1
1
1
1
1
1
1
1
1
1
1.00001
2.15848
2.68657
2.70256
2.69808
2.69547
2.69221
1
1
1
1
1
1
1
1
1
1
1
1
1
1
1
1
1
1
1
1
1
1
1
1
1
1
1
1
1
1
1
1
1
1
1
1
1
1
1
1
1
1
1
1
1
1
1
1
1
1
1
1
1
1
1
1
1
1
1
1
1
1
1
1
1
1
1
1
1
1
1
1
1
1
1
1
1
1
1
1
1
1
1
1
1
1
1
1
1
1
2.00667
2.66944
2.70701
2.70235
2.70003
2.697
1
1
1
1
1
1
1
1
1
1
1
1
1
1
1
1
1
1
1
1
1
1
1
1
1
1
1
1
1
1
1
1
1
1
1
1
1
1
1
1
1
1
1
1
1
1
1
1
1
1
1
1
1
1
1
1
1
1
1
1
1
1
1
1
1
1
1
1
1
1
1
1
1
1
1
1
1
1
1
1
1
1
1
1
1
1
1
1
1
1
1.85052
2.64539
2.7093
2.70414
2.70184
2.69884
1
1
1
1
1
1
1
1
1
1
1
1
1
1
1
1
1
1
1
1
1
1
1
1
1
1
1
1
1
1
1
1
1
1
1
1
1
1
1
1
1
1
1
1
1
1
1
1
1
1
1
1
1
1
1
1
1
1
1
1
1
1
1
1
1
1
1
1
1
1
1
1
1
1
1
1
1
1
1
1
1
1
1
1
1
1
1
1
1
1
1.68922
2.61445
2.70799
2.70331
2.70132
2.69853
1
1
1
1
1
1
1
1
1
1
1
1
1
1
1
1
1
1
1
1
1
1
1
1
1
1
1
1
1
1
1
1
1
1
1
1
1
1
1
1
1
1
1
1
1
1
1
1
1
1
1
1
1
1
1
1
1
1
1
1
1
1
1
1
1
1
1
1
1
1
1
1
1
1
1
1
1
1
1
1
1
1
1
1
1
1
1
1
1
1
1.5395
2.57347
2.705
2.70143
2.69934
2.69643
1
1
1
1
1
1
1
1
1
1
1
1
1
1
1
1
1
1
1
1
1
1
1
1
1
1
1
1
1
1
1
1
1
1
1
1
1
1
1
1
1
1
1
1
1
1
1
1
1
1
1
1
1
1
1
1
1
1
1
1
1
1
1
1
1
1
1
1
1
1
1
1
1
1
1
1
1
1
1
1
1
1
1
1
1
1
1
1
1
1
1.4113
2.52806
2.70147
2.69826
2.69539
2.69174
1
1
1
1
1
1
1
1
1
1
1
1
1
1
1
1
1
1
1
1
1
1
1
1
1
1
1
1
1
1
1
1
1
1
1
1
1
1
1
1
1
1
1
1
1
1
1
1
1
1
1
1
1
1
1
1
1
1
1
1
1
1
1
1
1
1
1
1
1
1
1
1
1
1
1
1
1
1
1
1
1
1
1
1
1
1
1
1
1
1
1.30567
2.48171
2.69781
2.6943
2.69065
2.68709
1
1
1
1
1
1
1
1
1
1
1
1
1
1
1
1
1
1
1
1
1
1
1
1
1
1
1
1
1
1
1
1
1
1
1
1
1
1
1
1
1
1
1
1
1
1
1
1
1
1
1
1
1
1
1
1
1
1
1
1
1
1
1
1
1
1
1
1
1
1
1
1
1
1
1
1
1
1
1
1
1
1
1
1
1
1
1
1
1
1
1.20495
2.42436
2.694
2.69072
2.68663
2.68456
1
1
1
1
1
1
1
1
1
1
1
1
1
1
1
1
1
1
1
1
1
1
1
1
1
1
1
1
1
1
1
1
1
1
1
1
1
1
1
1
1
1
1
1
1
1
1
1
1
1
1
1
1
1
1
1
1
1
1
1
1
1
1
1
1
1
1
1
1
1
1
1
1
1
1
1
1
1
1
1
1
1
1
1
1
1
1
1
1
1
1.09352
2.35447
2.69144
2.69118
2.68793
2.68729
1
1
1
1
1
1
1
1
1
1
1
1
1
1
1
1
1
1
1
1
1
1
1
1
1
1
1
1
1
1
1
1
1
1
1
1
1
1
1
1
1
1
1
1
1
1
1
1
1
1
1
1
1
1
1
1
1
1
1
1
1
1
1
1
1
1
1
1
1
1
1
1
1
1
1
1
1
1
1
1
1
1
1
1
1
1
1
1
1
1
1.00172
2.29127
2.69006
2.69902
2.69409
2.69234
1
1
1
1
1
1
1
1
1
1
1
1
1
1
1
1
1
1
1
1
1
1
1
1
1
1
1
1
1
1
1
1
1
1
1
1
1
1
1
1
1
1
1
1
1
1
1
1
1
1
1
1
1
1
1
1
1
1
1
1
1
1
1
1
1
1
1
1
1
1
1
1
1
1
1
1
1
1
1
1
1
1
1
1
1
1
1
1
1
1
1
2.23611
2.69072
2.70396
2.69858
2.69596
1
1
1
1
1
1
1
1
1
1
1
1
1
1
1
1
1
1
1
1
1
1
1
1
1
1
1
1
1
1
1
1
1
1
1
1
1
1
1
1
1
1
1
1
1
1
1
1
1
1
1
1
1
1
1
1
1
1
1
1
1
1
1
1
1
1
1
1
1
1
1
1
1
1
1
1
1
1
1
1
1
1
1
1
1
1
1
1
1
1
1
2.19859
2.69266
2.70572
2.70049
2.6976
1
1
1
1
1
1
1
1
1
1
1
1
1
1
1
1
1
1
1
1
1
1
1
1
1
1
1
1
1
1
1
1
1
1
1
1
1
1
1
1
1
1
1
1
1
1
1
1
1
1
1
1
1
1
1
1
1
1
1
1
1
1
1
1
1
1
1
1
1
1
1
1
1
1
1
1
1
1
1
1
1
1
1
1
1
1
1
1
1
1
1
2.1815
2.69186
2.70523
2.70057
2.69802
1.48611
0.94502
0.594354
0.553914
0.731826
0.924618
0.966879
1.01138
1.08274
1.17402
1.25246
1.32853
1.41267
1.46269
1.4624
1.47236
1.5064
1.57188
1.62268
1.62359
1.60657
1.58397
1.58585
1.60392
1.62723
1.63124
1.62692
1.60769
1.59037
1.59156
1.60583
1.63404
1.6533
1.65682
1.65503
1.64651
1.63666
1.63345
1.63566
1.64032
1.64599
1.6529
1.65707
1.65733
1.65791
1.65755
1.65523
1.6519
1.64702
1.65246
1.7857
2.50337
2.69578
2.68796
2.67552
2.67483
2.67594
2.67682
2.67511
2.66922
2.66057
2.65045
2.64109
2.63443
2.63026
2.6274
2.62377
2.61959
2.61432
2.60764
2.59958
2.59093
2.58295
2.57612
2.57017
2.56413
2.55745
2.55026
2.54295
2.53618
2.52998
2.52399
2.51777
2.51107
2.50364
2.49546
2.48691
2.47863
2.47122
2.46508
2.46022
2.4564
2.45323
2.45035
2.44717
2.44313
2.4381
2.43215
2.42555
2.4186
2.41203
2.40649
2.40177
2.39621
2.39027
2.38442
2.37827
2.3719
2.36623
2.36128
2.35631
2.3512
2.34554
2.33934
2.33253
2.32541
2.31878