/*--------------------------------*- C++ -*----------------------------------*\
  =========                 |
  \\      /  F ield         | OpenFOAM: The Open Source CFD Toolbox
   \\    /   O peration     | Website:  https://openfoam.org
    \\  /    A nd           | Version:  7
     \\/     M anipulation  |
\*---------------------------------------------------------------------------*/
FoamFile
{
    version     2.0;
    format      ascii;
    class       volScalarField;
    location    "2.56";
    object      T;
}
// * * * * * * * * * * * * * * * * * * * * * * * * * * * * * * * * * * * * * //

dimensions      [0 0 0 1 0 0 0];

internalField   nonuniform List<scalar> 
1000
(
0
0
0
0
0
0
0
0
0
0
0
0
0
0
0
0
0
0
0
0
0
0
0
0
0
0
0
0
0
0
0
0
0
0
0
0
0
0
0
0
0
0
0
0
0
0
0
0
0
0
0
0
0
0
0
0
0
0
0
0
0
0
0
0
0
0
0
0
0
0
0
0
0
0
0
0
0
0
0
0
0
0
0
0
0
0
0
0
0
0
0
0
0
0
0
0
0
0
0
0
0
0
0
0
0
0
0
0
0
0
0
0
0
0
0
0
0
0
0
0
0
0
0
0
0
0
0
0
0
0
0
0
0
0
0
0
0
0
0
0
0
0
0
0
0
0
0
0
0
0
0
0
0
0
0
0
0
0
0
0
0
0
0
0
0
0
0
0
0
0
0
0
0
0
0
0
0
0
0
0
0
0
0
0
0
0
0
0
0
0
0
0
0
0
6.44115e-232
-7.41376e-229
4.24457e-226
-1.61165e-223
4.56552e-221
-1.02921e-218
1.92319e-216
-3.06385e-214
4.24792e-212
-5.20682e-210
5.71259e-208
-5.66638e-206
5.12364e-204
-4.25265e-202
3.25918e-200
-2.31808e-198
1.53686e-196
-9.53472e-195
5.55437e-193
-3.04746e-191
1.57908e-189
-7.74631e-188
3.60562e-186
-1.59564e-184
6.72603e-183
-2.70511e-181
1.03965e-179
-3.82371e-178
1.34757e-176
-4.55631e-175
1.47968e-173
-4.6203e-172
1.3885e-170
-4.01974e-169
1.122e-167
-3.02193e-166
7.8595e-165
-1.9753e-163
4.8005e-162
-1.12883e-160
2.56985e-159
-5.66723e-158
1.21127e-156
-2.51034e-155
5.04713e-154
-9.84845e-153
1.86587e-151
-3.43362e-150
6.13961e-149
-1.06708e-147
1.80326e-146
-2.96387e-145
4.73942e-144
-7.37517e-143
1.11714e-141
-1.64755e-140
2.36623e-139
-3.31018e-138
4.51134e-137
-5.99091e-136
7.75326e-135
-9.78009e-134
1.20261e-132
-1.44173e-131
1.68525e-130
-1.9209e-129
2.13519e-128
-2.31467e-127
2.44728e-126
-2.52367e-125
2.53832e-124
-2.49016e-123
2.38269e-122
-2.2236e-121
2.02384e-120
-1.79638e-119
1.55484e-118
-1.31219e-117
1.07964e-116
-8.65904e-116
6.76852e-115
-5.15545e-114
3.82553e-113
-2.76476e-112
1.94552e-111
-1.33255e-110
8.88051e-110
-5.7559e-109
3.62661e-108
-2.22003e-107
1.31953e-106
-7.60967e-106
4.25443e-105
-2.30371e-104
1.20681e-103
-6.10804e-103
2.98214e-102
-1.4018e-101
6.32923e-101
-2.7367e-100
1.12884e-99
-4.41882e-99
1.62953e-98
-5.59892e-98
1.76016e-97
-4.89268e-97
1.10866e-96
-1.48339e-96
-2.87443e-96
3.22854e-95
-1.5607e-94
5.53693e-94
-1.50688e-93
2.72429e-93
1.99601e-94
-2.76307e-92
1.41923e-91
-4.62995e-91
9.91702e-91
-5.87192e-91
-6.30555e-90
3.55875e-89
-1.10669e-88
1.9431e-88
9.49873e-89
-2.13067e-87
8.57296e-87
-1.88755e-86
7.58568e-87
1.27168e-85
-5.8802e-85
1.33629e-84
-5.25649e-85
-8.75448e-84
3.79982e-83
-7.46963e-83
-2.00189e-83
6.55039e-82
-2.20836e-81
2.82791e-81
6.84989e-81
-4.46713e-80
9.96369e-80
-1.36268e-81
-7.21658e-79
2.31836e-78
-2.12574e-78
-9.86633e-78
4.48817e-77
-6.51945e-77
-1.18529e-76
7.86864e-76
-1.42213e-75
-1.33324e-75
1.3101e-74
-2.63014e-74
-1.64728e-74
2.13007e-73
-4.34235e-73
-2.75912e-73
3.41578e-72
-6.46141e-72
-5.99983e-72
5.36063e-71
-8.47609e-71
-1.36066e-70
8.04772e-70
-9.09203e-70
-2.84349e-69
1.11538e-68
-5.93878e-69
-5.24643e-68
1.35188e-67
4.12089e-68
-8.35111e-67
1.28513e-66
2.32997e-66
-1.10876e-65
6.19054e-66
4.94649e-65
-1.13554e-64
-8.17927e-65
7.24688e-64
-6.73775e-64
-2.75375e-63
7.45311e-63
3.49601e-63
-4.25328e-62
3.97474e-62
1.59633e-61
-4.00911e-61
-2.8254e-61
2.29475e-60
-1.35184e-60
-9.44163e-60
1.70115e-59
2.60373e-59
-1.07273e-58
-1.07693e-59
5.0586e-58
-4.40424e-58
-1.88679e-57
3.70318e-57
5.19377e-57
-2.08895e-56
-5.7422e-57
9.61035e-56
-4.86678e-56
-3.791e-55
4.78202e-55
1.28671e-54
-2.86577e-54
-3.59373e-54
1.41058e-53
6.72686e-54
-6.16334e-53
4.91589e-54
2.47097e-52
-1.368e-52
-9.25169e-52
9.33997e-52
3.27017e-51
-4.87413e-51
-1.0994e-50
2.23691e-50
3.53664e-50
-9.48817e-50
-1.09534e-49
3.81176e-49
3.29343e-49
-1.47132e-48
-9.74309e-49
5.50735e-48
2.89882e-48
-2.01141e-47
-8.95405e-48
7.19577e-47
2.9709e-47
-2.52669e-46
-1.07791e-46
8.71075e-46
4.22696e-46
-2.94428e-45
-1.73494e-45
9.72587e-45
7.21049e-45
-3.12328e-44
-2.96265e-44
9.67247e-44
1.18593e-43
-2.85332e-43
-4.58416e-43
7.85549e-43
1.70078e-42
-1.9407e-42
-6.02354e-42
3.89866e-42
2.02345e-41
-3.97198e-42
-6.38936e-41
-1.58077e-41
1.86964e-40
1.36492e-40
-4.94228e-40
-6.6025e-40
1.11751e-39
2.56057e-39
-1.83104e-39
-8.53919e-39
1.78207e-40
2.47436e-38
1.52367e-38
-6.06192e-38
-8.39156e-38
1.13235e-37
3.15359e-37
-8.80301e-38
-9.40384e-37
-4.68604e-37
2.21969e-36
3.03409e-36
-3.58276e-36
-1.11512e-35
2.67572e-37
3.00604e-35
2.55195e-35
-5.69218e-35
-1.18756e-34
3.98599e-35
3.4718e-34
2.27359e-34
-6.76758e-34
-1.25092e-33
4.80758e-34
3.6747e-33
2.57107e-33
-6.58236e-33
-1.3451e-32
1.96771e-33
3.56402e-32
3.46113e-32
-4.90875e-32
-1.40922e-31
-4.23903e-32
2.93859e-31
4.5047e-31
-1.70596e-31
-1.29101e-30
-1.17524e-30
1.62325e-30
4.83436e-30
2.29707e-30
-8.45867e-30
-1.63934e-29
-1.71907e-30
3.59862e-29
5.2298e-29
-1.24847e-29
-1.37915e-28
-1.62177e-28
8.96771e-29
4.97526e-28
5.05022e-28
-4.03478e-28
-1.73046e-27
-1.62747e-27
1.48667e-27
5.87513e-27
5.52966e-27
-4.70393e-27
-1.95277e-26
-1.97807e-26
1.23612e-26
6.31445e-26
7.30005e-26
-2.1927e-26
-1.95405e-25
-2.69853e-25
-1.60137e-26
5.61014e-25
9.6885e-25
4.094e-25
-1.40363e-24
-3.27416e-24
-2.59313e-24
2.55903e-24
1.00196e-23
1.20817e-23
-9.91067e-26
-2.59688e-23
-4.62685e-23
-2.81186e-23
4.72872e-23
1.46003e-22
1.6822e-22
2.41215e-24
-3.50832e-22
-6.62503e-22
-5.10142e-22
4.2606e-22
1.88549e-21
2.72699e-21
1.31546e-21
-3.1552e-21
-8.92146e-21
-1.09485e-20
-3.02227e-21
1.68333e-20
3.9973e-20
4.53407e-20
8.50542e-21
-7.70047e-20
-1.75123e-19
-2.00043e-19
-4.98933e-20
3.11312e-19
7.53463e-19
9.36296e-19
4.14675e-19
-1.05892e-18
-3.11403e-18
-4.47734e-18
-3.19545e-18
2.34424e-18
1.16932e-17
2.0679e-17
2.12016e-17
4.02289e-18
-3.48471e-17
-8.57661e-17
-1.19642e-16
-9.14794e-17
4.06119e-17
2.80509e-16
5.53752e-16
6.8559e-16
4.29924e-16
-4.23634e-16
-1.86531e-15
-3.45586e-15
-4.20833e-15
-2.72273e-15
2.27933e-15
1.09892e-14
2.1321e-14
2.80211e-14
2.28952e-14
-2.95326e-15
-5.43337e-14
-1.25048e-13
-1.90817e-13
-2.05876e-13
-1.08489e-13
1.59415e-13
6.15976e-13
1.19027e-12
1.67383e-12
1.698e-12
7.72099e-13
-1.58074e-12
-5.56577e-12
-1.07474e-11
-1.56379e-11
-1.7393e-11
-1.18482e-11
5.81e-12
3.9447e-11
8.92911e-11
1.4827e-10
1.97975e-10
2.05526e-10
1.23359e-10
-1.05303e-10
-5.32232e-10
-1.17848e-09
-1.99599e-09
-2.81854e-09
-3.30908e-09
-2.91794e-09
-8.7516e-10
3.74997e-09
1.18803e-08
2.41065e-08
4.01637e-08
5.81813e-08
7.37125e-08
7.86125e-08
5.99229e-08
-9.44157e-10
-1.28261e-07
-3.50593e-07
-6.97018e-07
-1.18971e-06
-1.83134e-06
-2.58528e-06
-3.34662e-06
-3.90113e-06
-3.86978e-06
-2.63572e-06
7.48957e-07
7.67927e-06
2.01386e-05
4.08662e-05
7.35529e-05
0.000123063
0.00019568
0.00029938
0.000444114
0.000642109
0.000908168
0.00125996
0.00171831
0.00230741
0.00305508
0.00399284
0.00515606
0.00658392
0.0083193
0.0104086
0.0129015
0.0158504
0.01931
0.0233367
0.0279878
0.0333206
0.0393916
0.0462557
0.0539648
0.0625671
0.0721061
0.0826192
0.0941376
0.106684
0.120275
0.134915
0.150602
0.167322
0.185053
0.203763
0.223408
0.243938
0.265291
0.287399
0.310186
0.333569
0.357461
0.381768
0.406396
0.431246
0.45622
0.48122
0.506149
0.530911
0.555416
0.579578
0.603314
0.626549
0.649213
0.671244
0.692587
0.713193
0.733022
0.752042
0.770226
0.787556
0.80402
0.819614
0.834339
0.848201
0.861212
0.873389
0.884752
0.895326
0.905138
0.914217
0.922595
0.930305
0.937381
0.943859
0.949773
0.955159
0.960051
0.964484
0.968489
0.972101
0.975349
0.978263
0.980871
0.9832
0.985275
0.987119
0.988754
0.990202
0.991479
0.992605
0.993594
0.994462
0.995221
0.995882
0.996456
0.996951
0.997374
0.997731
0.998024
0.998256
0.998426
0.99853
0.998564
0.998518
0.998383
0.998142
0.997778
0.997269
0.99659
0.99571
0.994595
0.993208
0.991508
0.989447
0.986979
0.98405
0.980608
0.976595
0.971956
0.966633
0.96057
0.953713
0.94601
0.937412
0.927877
0.917367
0.905851
0.893306
0.879718
0.865079
0.849393
0.832674
0.814943
0.796235
0.77659
0.756061
0.734708
0.7126
0.689813
0.66643
0.642539
0.618232
0.593604
0.568754
0.543779
0.51878
0.493851
0.469089
0.444584
0.420422
0.396686
0.373451
0.350787
0.328756
0.307413
0.286807
0.266978
0.247958
0.229774
0.212444
0.19598
0.180386
0.165661
0.151799
0.138788
0.126611
0.115248
0.104674
0.0948622
0.0857834
0.0774055
0.0696954
0.0626189
0.056141
0.0502267
0.0448409
0.0399488
0.0355164
0.0315105
0.027899
0.024651
0.021737
0.0191289
0.0168
0.0147253
0.0128814
0.0112463
0.00979963
0.00852255
0.00739768
0.00640903
0.00554201
0.00478327
0.00412071
0.00354335
0.00304129
0.00260559
0.00222827
0.00190216
0.00162088
0.00137874
0.00117071
0.000992335
0.000839676
0.000709278
0.000598106
0.000503503
0.000423149
0.000355023
0.000297371
0.000248671
0.000207605
0.00017304
0.000143996
0.000119636
9.92383e-05
8.21885e-05
6.79612e-05
5.61093e-05
4.62527e-05
3.8069e-05
3.12856e-05
2.56719e-05
2.10339e-05
1.72081e-05
1.40573e-05
1.14665e-05
9.33957e-06
7.5961e-06
6.16919e-06
5.00316e-06
4.05175e-06
3.27663e-06
2.64608e-06
2.1339e-06
1.71847e-06
1.38202e-06
1.10993e-06
8.90196e-07
7.13003e-07
5.70317e-07
4.55579e-07
3.63445e-07
2.89563e-07
2.304e-07
1.83088e-07
1.45304e-07
1.15171e-07
9.11706e-08
7.20809e-08
5.6917e-08
4.48872e-08
3.53563e-08
2.78149e-08
2.18553e-08
1.71518e-08
1.34444e-08
1.05257e-08
8.23081e-09
6.42868e-09
5.01523e-09
3.90798e-09
3.04165e-09
2.36464e-09
1.83622e-09
1.42426e-09
1.10347e-09
8.5397e-10
6.60146e-10
5.09746e-10
3.93177e-10
3.02932e-10
2.33146e-10
1.79242e-10
1.37652e-10
1.05599e-10
8.09234e-11
6.19481e-11
4.73722e-11
3.6188e-11
2.76155e-11
2.1052e-11
1.60319e-11
1.21964e-11
9.26911e-12
7.03727e-12
5.33745e-12
4.04416e-12
3.0612e-12
2.31486e-12
1.74877e-12
1.31982e-12
9.95116e-13
7.49572e-13
5.64073e-13
4.24075e-13
3.1852e-13
2.39012e-13
1.79182e-13
1.34203e-13
1.00422e-13
7.50741e-14
5.6073e-14
4.18427e-14
3.11953e-14
2.32363e-14
1.72923e-14
1.28573e-14
9.55127e-15
7.08902e-15
5.25689e-15
3.89485e-15
2.88319e-15
2.13246e-15
1.57584e-15
1.16351e-15
8.58336e-16
6.32668e-16
4.65937e-16
3.42857e-16
2.52078e-16
1.85181e-16
1.35924e-16
9.96875e-17
7.30513e-17
5.34886e-17
3.91329e-17
2.86069e-17
2.08955e-17
1.52506e-17
1.11218e-17
8.10435e-18
5.90092e-18
4.29321e-18
3.12108e-18
2.2672e-18
1.64565e-18
1.19367e-18
8.64465e-19
6.31196e-19
4.15349e-19
)
;

boundaryField
{
    sides
    {
        type            zeroGradient;
    }
    empty
    {
        type            empty;
    }
}


// ************************************************************************* //
