/*--------------------------------*- C++ -*----------------------------------*\
  =========                 |
  \\      /  F ield         | OpenFOAM: The Open Source CFD Toolbox
   \\    /   O peration     | Website:  https://openfoam.org
    \\  /    A nd           | Version:  7
     \\/     M anipulation  |
\*---------------------------------------------------------------------------*/
FoamFile
{
    version     2.0;
    format      ascii;
    class       volScalarField;
    location    "3.7";
    object      rho;
}
// * * * * * * * * * * * * * * * * * * * * * * * * * * * * * * * * * * * * * //

dimensions      [1 -3 0 0 0 0 0];

internalField   nonuniform List<scalar> 
19968
(
1.40001
1.40001
1.40001
1.40001
1.40001
1.40001
1.40001
1.40001
1.40001
1.40001
1.40001
1.40001
1.40001
1.40001
1.40001
1.40001
1.40001
1.40001
1.40001
1.40001
1.40001
1.40001
1.40001
1.40001
1.40001
1.40001
1.40001
1.40001
1.40001
1.40001
1.40001
1.40001
1.40001
1.40001
1.40001
1.40001
1.40001
1.40001
1.40001
1.40001
1.40001
1.40001
1.40001
1.40001
1.40001
1.40001
1.40001
1.40001
1.54541
4.33407
5.438
5.44477
5.46022
5.47613
5.4945
5.51581
5.53953
5.56378
5.58662
5.60699
5.62518
5.64286
5.66188
5.68213
5.70139
5.71773
5.73102
5.7428
5.7552
5.76958
5.78712
5.80717
5.82626
5.84165
5.8534
5.86326
5.87292
5.88341
5.89519
5.908
5.92103
5.93349
5.94485
5.95475
5.96281
5.9689
5.97347
5.97749
5.98204
5.98767
5.99418
6.00076
6.00649
6.01081
6.0137
6.01585
1.40001
1.40001
1.40001
1.40001
1.40001
1.40001
1.40001
1.40001
1.40001
1.40001
1.40001
1.40001
1.40001
1.40001
1.40001
1.40001
1.40001
1.40001
1.40001
1.40001
1.40001
1.40001
1.40001
1.40001
1.40001
1.40001
1.40001
1.40001
1.40001
1.40001
1.40001
1.40001
1.40001
1.40001
1.40001
1.40001
1.40001
1.40001
1.40001
1.40001
1.40001
1.40001
1.40001
1.40001
1.40001
1.40001
1.40001
1.40001
1.53418
4.30289
5.43331
5.44318
5.45893
5.47532
5.49391
5.51534
5.53903
5.56307
5.58554
5.60549
5.62344
5.64113
5.66017
5.68045
5.6998
5.71638
5.73005
5.74209
5.75464
5.76901
5.78647
5.80635
5.82522
5.84044
5.85205
5.86185
5.87147
5.88194
5.8937
5.90643
5.91929
5.9315
5.94258
5.95226
5.96023
5.96641
5.9712
5.97549
5.98021
5.98586
5.99223
5.99857
6.00408
6.00826
6.01112
6.01332
1.40001
1.40001
1.40001
1.40001
1.40001
1.40001
1.40001
1.40001
1.40001
1.40001
1.40001
1.40001
1.40001
1.40001
1.40001
1.40001
1.40001
1.40001
1.40001
1.40001
1.40001
1.40001
1.40001
1.40001
1.40001
1.40001
1.40001
1.40001
1.40001
1.40001
1.40001
1.40001
1.40001
1.40001
1.40001
1.40001
1.40001
1.40001
1.40001
1.40001
1.40001
1.40001
1.40001
1.40001
1.40001
1.40001
1.40001
1.40001
1.50816
4.24599
5.42976
5.43867
5.45573
5.47299
5.49229
5.51416
5.53801
5.56189
5.58392
5.60323
5.62066
5.63801
5.65676
5.67697
5.69644
5.71344
5.72777
5.74025
5.75311
5.76745
5.78477
5.80428
5.82281
5.83786
5.84948
5.85936
5.86908
5.87961
5.89136
5.90396
5.91657
5.9285
5.93933
5.94883
5.95676
5.96307
5.96814
5.97268
5.97747
5.98294
5.98887
5.99465
5.99962
6.00342
6.00609
6.00828
1.40001
1.40001
1.40001
1.40001
1.40001
1.40001
1.40001
1.40001
1.40001
1.40001
1.40001
1.40001
1.40001
1.40001
1.40001
1.40001
1.40001
1.40001
1.40001
1.40001
1.40001
1.40001
1.40001
1.40001
1.40001
1.40001
1.40001
1.40001
1.40001
1.40001
1.40001
1.40001
1.40001
1.40001
1.40001
1.40001
1.40001
1.40001
1.40001
1.40001
1.40001
1.40001
1.40001
1.40001
1.40001
1.40001
1.40001
1.40001
1.45034
4.1574
5.42309
5.43402
5.45175
5.46941
5.48922
5.51149
5.53549
5.55928
5.58089
5.59949
5.61622
5.63293
5.65116
5.6711
5.69063
5.70808
5.72317
5.7362
5.74949
5.76385
5.78102
5.8
5.81797
5.83262
5.84408
5.854
5.86382
5.87445
5.88618
5.89858
5.91085
5.9224
5.93298
5.94242
5.95056
5.95735
5.96306
5.96821
5.97334
5.97869
5.98408
5.98904
5.99318
5.99637
5.99868
6.00078
1.40001
1.40001
1.40001
1.40001
1.40001
1.40001
1.40001
1.40001
1.40001
1.40001
1.40001
1.40001
1.40001
1.40001
1.40001
1.40001
1.40001
1.40001
1.40001
1.40001
1.40001
1.40001
1.40001
1.40001
1.40001
1.40001
1.40001
1.40001
1.40001
1.40001
1.40001
1.40001
1.40001
1.40001
1.40001
1.40001
1.40001
1.40001
1.40001
1.40001
1.40001
1.40001
1.40001
1.40001
1.40001
1.40001
1.40001
1.40001
1.40163
4.00971
5.40541
5.42538
5.44422
5.46319
5.4844
5.50788
5.53263
5.55669
5.57807
5.59601
5.6119
5.62754
5.64471
5.66374
5.68277
5.7003
5.71608
5.72985
5.74398
5.75875
5.77609
5.79466
5.81205
5.82615
5.83737
5.84729
5.85725
5.86799
5.87966
5.89171
5.90343
5.91442
5.92462
5.93397
5.9423
5.94951
5.95577
5.96141
5.96676
5.9719
5.97665
5.9807
5.98394
5.98647
5.98837
5.99036
1.40001
1.40001
1.40001
1.40001
1.40001
1.40001
1.40001
1.40001
1.40001
1.40001
1.40001
1.40001
1.40001
1.40001
1.40001
1.40001
1.40001
1.40001
1.40001
1.40001
1.40001
1.40001
1.40001
1.40001
1.40001
1.40001
1.40001
1.40001
1.40001
1.40001
1.40001
1.40001
1.40001
1.40001
1.40001
1.40001
1.40001
1.40001
1.40001
1.40001
1.40001
1.40001
1.40001
1.40001
1.40001
1.40001
1.40001
1.40001
1.40002
3.77474
5.37805
5.41472
5.43387
5.45444
5.47675
5.50113
5.52642
5.55081
5.57232
5.5902
5.60581
5.62065
5.63686
5.6548
5.67295
5.69024
5.70647
5.7209
5.73587
5.75105
5.76854
5.78657
5.80321
5.81652
5.82732
5.83718
5.8473
5.85821
5.86985
5.88154
5.89265
5.90306
5.91295
5.9223
5.9309
5.93856
5.94534
5.95143
5.957
5.96199
5.96624
5.9696
5.97216
5.97424
5.97588
5.97788
1.40001
1.40001
1.40001
1.40001
1.40001
1.40001
1.40001
1.40001
1.40001
1.40001
1.40001
1.40001
1.40001
1.40001
1.40001
1.40001
1.40001
1.40001
1.40001
1.40001
1.40001
1.40001
1.40001
1.40001
1.40001
1.40001
1.40001
1.40001
1.40001
1.40001
1.40001
1.40001
1.40001
1.40001
1.40001
1.40001
1.40001
1.40001
1.40001
1.40001
1.40001
1.40001
1.40001
1.40001
1.40001
1.40001
1.40001
1.40001
1.40001
3.459
5.34242
5.4046
5.42267
5.44435
5.4676
5.49315
5.51927
5.54429
5.56635
5.58483
5.60066
5.61502
5.63021
5.64667
5.66323
5.67943
5.69544
5.7101
5.72575
5.74141
5.75919
5.77689
5.79294
5.8055
5.81582
5.82549
5.83563
5.84651
5.8579
5.86902
5.87935
5.889
5.89838
5.90756
5.91624
5.92415
5.93123
5.93757
5.94322
5.94805
5.95192
5.95476
5.95683
5.95861
5.96007
5.96212
1.40001
1.40001
1.40001
1.40001
1.40001
1.40001
1.40001
1.40001
1.40001
1.40001
1.40001
1.40001
1.40001
1.40001
1.40001
1.40001
1.40001
1.40001
1.40001
1.40001
1.40001
1.40001
1.40001
1.40001
1.40001
1.40001
1.40001
1.40001
1.40001
1.40001
1.40001
1.40001
1.40001
1.40001
1.40001
1.40001
1.40001
1.40001
1.40001
1.40001
1.40001
1.40001
1.40001
1.40001
1.40001
1.40001
1.40001
1.40001
1.40001
3.0616
5.27738
5.40079
5.41655
5.43728
5.45988
5.4854
5.51166
5.53686
5.55934
5.57857
5.59474
5.60876
5.62289
5.63775
5.65239
5.667
5.68229
5.69682
5.71282
5.72881
5.74674
5.76414
5.77962
5.79138
5.80102
5.81024
5.82017
5.83093
5.8422
5.8531
5.86305
5.87231
5.8814
5.89045
5.89915
5.90711
5.91421
5.92043
5.92579
5.93014
5.93339
5.93555
5.93695
5.93824
5.93935
5.94125
1.40001
1.40001
1.40001
1.40001
1.40001
1.40001
1.40001
1.40001
1.40001
1.40001
1.40001
1.40001
1.40001
1.40001
1.40001
1.40001
1.40001
1.40001
1.40001
1.40001
1.40001
1.40001
1.40001
1.40001
1.40001
1.40001
1.40001
1.40001
1.40001
1.40001
1.40001
1.40001
1.40001
1.40001
1.40001
1.40001
1.40001
1.40001
1.40001
1.40001
1.40001
1.40001
1.40001
1.40001
1.40001
1.40001
1.40001
1.40001
1.40001
2.59517
5.15415
5.41418
5.42423
5.43974
5.459
5.48243
5.50763
5.53217
5.55432
5.57366
5.58978
5.60341
5.61662
5.63018
5.64315
5.65585
5.66963
5.68317
5.69838
5.714
5.73136
5.74825
5.76309
5.77403
5.78263
5.79087
5.80004
5.81028
5.82126
5.83197
5.84162
5.85037
5.85885
5.86734
5.87562
5.88334
5.89032
5.89651
5.90187
5.90621
5.9094
5.91145
5.91269
5.91384
5.9148
5.91666
1.40001
1.40001
1.40001
1.40001
1.40001
1.40001
1.40001
1.40001
1.40001
1.40001
1.40001
1.40001
1.40001
1.40001
1.40001
1.40001
1.40001
1.40001
1.40001
1.40001
1.40001
1.40001
1.40001
1.40001
1.40001
1.40001
1.40001
1.40001
1.40001
1.40001
1.40001
1.40001
1.40001
1.40001
1.40001
1.40001
1.40001
1.40001
1.40001
1.40001
1.40001
1.40001
1.40001
1.40001
1.40001
1.40001
1.40001
1.40001
1.40001
2.0887
4.91845
5.43448
5.43075
5.44079
5.45539
5.47575
5.49893
5.52247
5.54436
5.5641
5.58078
5.59474
5.60775
5.6208
5.63311
5.64462
5.65698
5.6693
5.68296
5.69783
5.71422
5.73081
5.74532
5.75597
5.76359
5.77053
5.77849
5.78792
5.7985
5.80911
5.81858
5.82681
5.83443
5.84191
5.84917
5.85594
5.86206
5.86743
5.872
5.87559
5.87801
5.87928
5.87975
5.88018
5.88053
5.88193
1.40001
1.40001
1.40001
1.40001
1.40001
1.40001
1.40001
1.40001
1.40001
1.40001
1.40001
1.40001
1.40001
1.40001
1.40001
1.40001
1.40001
1.40001
1.40001
1.40001
1.40001
1.40001
1.40001
1.40001
1.40001
1.40001
1.40001
1.40001
1.40001
1.40001
1.40001
1.40001
1.40001
1.40001
1.40001
1.40001
1.40001
1.40001
1.40001
1.40001
1.40001
1.40001
1.40001
1.40001
1.40001
1.40001
1.40001
1.40001
1.40001
1.62745
4.48867
5.45427
5.43587
5.445
5.45523
5.47036
5.48919
5.50954
5.52937
5.5481
5.56478
5.5792
5.59257
5.60582
5.61827
5.62934
5.64049
5.65153
5.66304
5.67645
5.69101
5.70696
5.72119
5.73191
5.73878
5.74431
5.75073
5.75901
5.76891
5.77922
5.78841
5.7959
5.8022
5.80798
5.81344
5.81853
5.82328
5.82772
5.83183
5.8353
5.83781
5.8392
5.83969
5.83996
5.84004
5.84121
1.40001
1.40001
1.40001
1.40001
1.40001
1.40001
1.40001
1.40001
1.40001
1.40001
1.40001
1.40001
1.40001
1.40001
1.40001
1.40001
1.40001
1.40001
1.40001
1.40001
1.40001
1.40001
1.40001
1.40001
1.40001
1.40001
1.40001
1.40001
1.40001
1.40001
1.40001
1.40001
1.40001
1.40001
1.40001
1.40001
1.40001
1.40001
1.40001
1.40001
1.40001
1.40001
1.40001
1.40001
1.40001
1.40001
1.40001
1.40001
1.40001
1.40521
3.78452
5.35636
5.38361
5.40378
5.42255
5.44029
5.45911
5.47892
5.49878
5.51805
5.53603
5.55214
5.5668
5.5807
5.59371
5.60527
5.61622
5.627
5.63734
5.64929
5.66213
5.67699
5.69112
5.70227
5.70909
5.71352
5.71828
5.72503
5.73387
5.74365
5.75262
5.75968
5.76502
5.76939
5.77322
5.77662
5.7796
5.78229
5.78458
5.78601
5.78642
5.78563
5.78388
5.78225
5.78098
5.78126
1.40001
1.40001
1.40001
1.40001
1.40001
1.40001
1.40001
1.40001
1.40001
1.40001
1.40001
1.40001
1.40001
1.40001
1.40001
1.40001
1.40001
1.40001
1.40001
1.40001
1.40001
1.40001
1.40001
1.40001
1.40001
1.40001
1.40001
1.40001
1.40001
1.40001
1.40001
1.40001
1.40001
1.40001
1.40001
1.40001
1.40001
1.40001
1.40001
1.40001
1.40001
1.40001
1.40001
1.40001
1.40001
1.40001
1.40001
1.40001
1.40001
1.40001
2.88616
5.16505
5.36742
5.39457
5.41411
5.42965
5.445
5.46102
5.47767
5.49443
5.51067
5.52576
5.53967
5.55274
5.56509
5.57652
5.58707
5.59741
5.60705
5.61696
5.62746
5.63942
5.65209
5.66285
5.66973
5.67339
5.67649
5.68121
5.68814
5.69642
5.70443
5.71054
5.71441
5.71659
5.71779
5.71792
5.71693
5.71573
5.71455
5.71358
5.71264
5.71161
5.71018
5.70923
5.70832
5.70879
1.40001
1.40001
1.40001
1.40001
1.40001
1.40001
1.40001
1.40001
1.40001
1.40001
1.40001
1.40001
1.40001
1.40001
1.40001
1.40001
1.40001
1.40001
1.40001
1.40001
1.40001
1.40001
1.40001
1.40001
1.40001
1.40001
1.40001
1.40001
1.40001
1.40001
1.40001
1.40001
1.40001
1.40001
1.40001
1.40001
1.40001
1.40001
1.40001
1.40001
1.40001
1.40001
1.40001
1.40001
1.40001
1.40001
1.40001
1.40001
1.40001
1.40001
1.92683
4.74953
5.39788
5.39017
5.40705
5.42032
5.43488
5.44939
5.46412
5.47899
5.49359
5.50729
5.51965
5.53061
5.5406
5.55011
5.55933
5.56851
5.57722
5.58477
5.59211
5.59976
5.60892
5.61794
5.62451
5.62773
5.62926
5.63124
5.63476
5.63967
5.64503
5.6493
5.65159
5.65196
5.65079
5.64776
5.64358
5.6392
5.63484
5.63049
5.6254
5.61919
5.61077
5.60179
5.59306
5.58607
1.40001
1.40001
1.40001
1.40001
1.40001
1.40001
1.40001
1.40001
1.40001
1.40001
1.40001
1.40001
1.40001
1.40001
1.40001
1.40001
1.40001
1.40001
1.40001
1.40001
1.40001
1.40001
1.40001
1.40001
1.40001
1.40001
1.40001
1.40001
1.40001
1.40001
1.40001
1.40001
1.40001
1.40001
1.40001
1.40001
1.40001
1.40001
1.40001
1.40001
1.40001
1.40001
1.40001
1.40001
1.40001
1.40001
1.40001
1.40001
1.40001
1.40001
1.41972
3.6122
5.33682
5.3824
5.40119
5.41308
5.42465
5.43595
5.44764
5.45963
5.47152
5.48274
5.49273
5.50127
5.50876
5.51603
5.52363
5.53156
5.53941
5.54568
5.55038
5.55412
5.5584
5.56379
5.56878
5.5715
5.57167
5.57071
5.5699
5.56977
5.5704
5.57131
5.57086
5.56821
5.56247
5.55304
5.54095
5.52675
5.51064
5.49273
5.47343
5.45343
5.43615
5.42182
5.41544
5.4126
1.40001
1.40001
1.40001
1.40001
1.40001
1.40001
1.40001
1.40001
1.40001
1.40001
1.40001
1.40001
1.40001
1.40001
1.40001
1.40001
1.40001
1.40001
1.40001
1.40001
1.40001
1.40001
1.40001
1.40001
1.40001
1.40001
1.40001
1.40001
1.40001
1.40001
1.40001
1.40001
1.40001
1.40001
1.40001
1.40001
1.40001
1.40001
1.40001
1.40001
1.40001
1.40001
1.40001
1.40001
1.40001
1.40001
1.40001
1.40001
1.40001
1.40001
1.40002
2.23197
4.92771
5.3746
5.37261
5.38631
5.3983
5.41073
5.42278
5.43463
5.44616
5.45682
5.46585
5.47279
5.47794
5.48235
5.48711
5.49274
5.49886
5.5038
5.50613
5.50646
5.50585
5.5058
5.50691
5.50799
5.50678
5.50319
5.49729
5.49002
5.4834
5.47773
5.47145
5.46304
5.45074
5.43381
5.41253
5.38773
5.36034
5.33154
5.30225
5.27297
5.23622
5.19463
5.14006
5.15973
1.40001
1.40001
1.40001
1.40001
1.40001
1.40001
1.40001
1.40001
1.40001
1.40001
1.40001
1.40001
1.40001
1.40001
1.40001
1.40001
1.40001
1.40001
1.40001
1.40001
1.40001
1.40001
1.40001
1.40001
1.40001
1.40001
1.40001
1.40001
1.40001
1.40001
1.40001
1.40001
1.40001
1.40001
1.40001
1.40001
1.40001
1.40001
1.40001
1.40001
1.40001
1.40001
1.40001
1.40001
1.40001
1.40001
1.40001
1.40001
1.40001
1.40001
1.40001
1.44887
3.97227
5.33907
5.34612
5.36111
5.37265
5.38495
5.3964
5.40761
5.41848
5.42863
5.43726
5.44366
5.44775
5.45037
5.4527
5.45565
5.45916
5.46213
5.46294
5.46096
5.45639
5.45123
5.44752
5.44529
5.44221
5.43648
5.42661
5.41357
5.39961
5.3862
5.37261
5.35705
5.33712
5.31123
5.27833
5.23819
5.1893
5.13059
5.0553
4.95683
4.80827
4.58006
4.17755
3.2799
1.40001
1.40001
1.40001
1.40001
1.40001
1.40001
1.40001
1.40001
1.40001
1.40001
1.40001
1.40001
1.40001
1.40001
1.40001
1.40001
1.40001
1.40001
1.40001
1.40001
1.40001
1.40001
1.40001
1.40001
1.40001
1.40001
1.40001
1.40001
1.40001
1.40001
1.40001
1.40001
1.40001
1.40001
1.40001
1.40001
1.40001
1.40001
1.40001
1.40001
1.40001
1.40001
1.40001
1.40001
1.40001
1.40001
1.40001
1.40001
1.40001
1.40001
1.40001
1.39998
2.75664
5.06166
5.31606
5.32935
5.34471
5.3567
5.36718
5.37763
5.38796
5.39799
5.40712
5.4143
5.4189
5.42133
5.42253
5.42355
5.42488
5.42607
5.42572
5.42247
5.41565
5.4067
5.39831
5.39181
5.38569
5.37742
5.36503
5.34822
5.32828
5.30719
5.28541
5.2618
5.23351
5.19852
5.15384
5.09924
5.02993
4.94526
4.8326
4.68781
4.47918
4.21218
3.66997
2.91139
1.40001
1.40001
1.40001
1.40001
1.40001
1.40001
1.40001
1.40001
1.40001
1.40001
1.40001
1.40001
1.40001
1.40001
1.40001
1.40001
1.40001
1.40001
1.40001
1.40001
1.40001
1.40001
1.40001
1.40001
1.40001
1.40001
1.40001
1.40001
1.40001
1.40001
1.40001
1.40001
1.40001
1.40001
1.40001
1.40001
1.40001
1.40001
1.40001
1.40001
1.40001
1.40001
1.40001
1.40001
1.40001
1.40001
1.40001
1.40001
1.40001
1.40001
1.40001
1.4
1.64807
4.49854
5.36401
5.34323
5.34124
5.34448
5.34966
5.35603
5.36269
5.36938
5.37613
5.38223
5.38658
5.38881
5.38924
5.38845
5.38731
5.38601
5.38412
5.37996
5.37209
5.3608
5.34838
5.33666
5.32583
5.31409
5.29905
5.27922
5.2545
5.22659
5.19628
5.16395
5.12652
5.08252
5.02717
4.96021
4.87562
4.77139
4.63761
4.46516
4.24407
3.92284
3.48536
2.95963
1.40001
1.40001
1.40001
1.40001
1.40001
1.40001
1.40001
1.40001
1.40001
1.40001
1.40001
1.40001
1.40001
1.40001
1.40001
1.40001
1.40001
1.40001
1.40001
1.40001
1.40001
1.40001
1.40001
1.40001
1.40001
1.40001
1.40001
1.40001
1.40001
1.40001
1.40001
1.40001
1.40001
1.40001
1.40001
1.40001
1.40001
1.40001
1.40001
1.40001
1.40001
1.40001
1.40001
1.40001
1.40001
1.40001
1.40001
1.40001
1.40001
1.40001
1.40001
1.4
1.40353
3.22668
5.18145
5.30546
5.31386
5.32173
5.32582
5.32826
5.33108
5.33506
5.34013
5.34573
5.35006
5.35191
5.35157
5.34959
5.34678
5.34328
5.33965
5.33418
5.32528
5.31277
5.2978
5.28194
5.26624
5.25023
5.23167
5.20877
5.18016
5.14686
5.10905
5.06811
5.02165
4.9687
4.90477
4.82815
4.73458
4.61971
4.47844
4.2977
4.07707
3.7897
3.44882
3.07453
1.40001
1.40001
1.40001
1.40001
1.40001
1.40001
1.40001
1.40001
1.40001
1.40001
1.40001
1.40001
1.40001
1.40001
1.40001
1.40001
1.40001
1.40001
1.40001
1.40001
1.40001
1.40001
1.40001
1.40001
1.40001
1.40001
1.40001
1.40001
1.40001
1.40001
1.40001
1.40001
1.40001
1.40001
1.40001
1.40001
1.40001
1.40001
1.40001
1.40001
1.40001
1.40001
1.40001
1.40001
1.40001
1.40001
1.40001
1.40001
1.40001
1.40001
1.40001
1.40001
1.4
1.84006
4.65081
5.32221
5.30664
5.31015
5.31244
5.31178
5.31184
5.31309
5.31494
5.31703
5.31859
5.31831
5.31601
5.31225
5.30764
5.3015
5.29499
5.28748
5.27728
5.26379
5.24716
5.22837
5.20841
5.18811
5.16572
5.13957
5.10755
5.07005
5.02677
4.97886
4.92505
4.86438
4.79388
4.71111
4.61318
4.49548
4.35537
4.18074
3.97961
3.73722
3.47318
3.17629
1.40001
1.40001
1.40001
1.40001
1.40001
1.40001
1.40001
1.40001
1.40001
1.40001
1.40001
1.40001
1.40001
1.40001
1.40001
1.40001
1.40001
1.40001
1.40001
1.40001
1.40001
1.40001
1.40001
1.40001
1.40001
1.40001
1.40001
1.40001
1.40001
1.40001
1.40001
1.40001
1.40001
1.40001
1.40001
1.40001
1.40001
1.40001
1.40001
1.40001
1.40001
1.40001
1.40001
1.40001
1.40001
1.40001
1.40001
1.40001
1.40001
1.40001
1.40001
1.40001
1.4
1.41259
3.28129
5.17571
5.27987
5.28511
5.29504
5.29613
5.29552
5.29561
5.29566
5.29477
5.29288
5.28967
5.28405
5.27673
5.2691
5.26038
5.25086
5.24109
5.22909
5.21339
5.19413
5.1723
5.14894
5.12547
5.10003
5.07085
5.03562
4.99455
4.94759
4.89524
4.8367
4.77082
4.69599
4.61021
4.51159
4.39571
4.2618
4.10208
3.92514
3.72334
3.50628
3.2662
1.40001
1.40001
1.40001
1.40001
1.40001
1.40001
1.40001
1.40001
1.40001
1.40001
1.40001
1.40001
1.40001
1.40001
1.40001
1.40001
1.40001
1.40001
1.40001
1.40001
1.40001
1.40001
1.40001
1.40001
1.40001
1.40001
1.40001
1.40001
1.40001
1.40001
1.40001
1.40001
1.40001
1.40001
1.40001
1.40001
1.40001
1.40001
1.40001
1.40001
1.40001
1.40001
1.40001
1.40001
1.40001
1.40001
1.40001
1.40001
1.40001
1.40001
1.40001
1.40001
1.40001
1.4
1.76972
4.58561
5.30601
5.28749
5.28358
5.28046
5.27799
5.27738
5.2771
5.27418
5.2692
5.26256
5.25398
5.24319
5.23241
5.2216
5.20943
5.19735
5.18343
5.16568
5.14383
5.11914
5.09292
5.06669
5.03864
5.00692
4.96915
4.92547
4.87611
4.82136
4.76039
4.6919
4.61509
4.52846
4.43186
4.31905
4.19384
4.04952
3.89518
3.72159
3.54006
3.33893
1.40001
1.40001
1.40001
1.40001
1.40001
1.40001
1.40001
1.40001
1.40001
1.40001
1.40001
1.40001
1.40001
1.40001
1.40001
1.40001
1.40001
1.40001
1.40001
1.40001
1.40001
1.40001
1.40001
1.40001
1.40001
1.40001
1.40001
1.40001
1.40001
1.40001
1.40001
1.40001
1.40001
1.40001
1.40001
1.40001
1.40001
1.40001
1.40001
1.40001
1.40001
1.40001
1.40001
1.40001
1.40001
1.40001
1.40001
1.40001
1.40001
1.40001
1.40001
1.40001
1.40001
1.4
1.40781
3.09113
5.06195
5.23282
5.2347
5.24078
5.24459
5.24759
5.24922
5.2476
5.24285
5.23542
5.22543
5.2116
5.19667
5.18257
5.16785
5.15382
5.13822
5.11916
5.09506
5.06763
5.03859
5.00928
4.97833
4.944
4.90397
4.8586
4.80799
4.75245
4.69111
4.6226
4.54665
4.46167
4.3693
4.26137
4.14542
4.01522
3.87911
3.72461
3.56866
3.39699
1.40001
1.40001
1.40001
1.40001
1.40001
1.40001
1.40001
1.40001
1.40001
1.40001
1.40001
1.40001
1.40001
1.40001
1.40001
1.40001
1.40001
1.40001
1.40001
1.40001
1.40001
1.40001
1.40001
1.40001
1.40001
1.40001
1.40001
1.40001
1.40001
1.40001
1.40001
1.40001
1.40001
1.40001
1.40001
1.40001
1.40001
1.40001
1.40001
1.40001
1.40001
1.40001
1.40001
1.40001
1.40001
1.40001
1.40001
1.40001
1.40001
1.40001
1.40001
1.40001
1.40001
1.40001
1.4
1.5937
4.29227
5.26355
5.2419
5.23231
5.22857
5.22909
5.22978
5.22761
5.2216
5.21185
5.19902
5.18247
5.16411
5.14712
5.13002
5.11384
5.09579
5.07495
5.04975
5.02188
4.99171
4.95979
4.9254
4.8876
4.84497
4.79853
4.74782
4.69244
4.63163
4.56407
4.49026
4.40779
4.31972
4.21915
4.11205
3.99426
3.87233
3.73305
3.59729
3.44595
1.40001
1.40001
1.40001
1.40001
1.40001
1.40001
1.40001
1.40001
1.40001
1.40001
1.40001
1.40001
1.40001
1.40001
1.40001
1.40001
1.40001
1.40001
1.40001
1.40001
1.40001
1.40001
1.40001
1.40001
1.40001
1.40001
1.40001
1.40001
1.40001
1.40001
1.40001
1.40001
1.40001
1.40001
1.40001
1.40001
1.40001
1.40001
1.40001
1.40001
1.40001
1.40001
1.40001
1.40001
1.40001
1.40001
1.40001
1.40001
1.40001
1.40001
1.40001
1.40001
1.40001
1.40001
1.4
1.40192
2.62299
4.95315
5.18994
5.19507
5.19851
5.20003
5.19953
5.19584
5.18892
5.17897
5.16557
5.14874
5.12903
5.10952
5.09014
5.07195
5.05131
5.0288
5.00381
4.97735
4.94766
4.91394
4.87615
4.83433
4.78876
4.74144
4.69155
4.63725
4.57846
4.51251
4.44172
4.36192
4.2783
4.18646
4.08745
3.98072
3.87031
3.74567
3.62478
3.48826
1.40001
1.40001
1.40001
1.40001
1.40001
1.40001
1.40001
1.40001
1.40001
1.40001
1.40001
1.40001
1.40001
1.40001
1.40001
1.40001
1.40001
1.40001
1.40001
1.40001
1.40001
1.40001
1.40001
1.40001
1.40001
1.40001
1.40001
1.40001
1.40001
1.40001
1.40001
1.40001
1.40001
1.40001
1.40001
1.40001
1.40001
1.40001
1.40001
1.40001
1.40001
1.40001
1.40001
1.40001
1.40001
1.40001
1.40001
1.40001
1.40001
1.40001
1.40001
1.40001
1.40001
1.40001
1.40001
1.40001
1.49768
3.67394
5.13616
5.18514
5.181
5.17902
5.17746
5.17441
5.1684
5.15882
5.14413
5.12671
5.10658
5.08415
5.06249
5.04164
5.01799
4.99269
4.96678
4.94042
4.9117
4.87689
4.83623
4.79073
4.74168
4.69288
4.64282
4.58918
4.53313
4.46845
4.40061
4.32434
4.2447
4.16056
4.06807
3.97118
3.87037
3.75967
3.65032
3.52861
1.40001
1.40001
1.40001
1.40001
1.40001
1.40001
1.40001
1.40001
1.40001
1.40001
1.40001
1.40001
1.40001
1.40001
1.40001
1.40001
1.40001
1.40001
1.40001
1.40001
1.40001
1.40001
1.40001
1.40001
1.40001
1.40001
1.40001
1.40001
1.40001
1.40001
1.40001
1.40001
1.40001
1.40001
1.40001
1.40001
1.40001
1.40001
1.40001
1.40001
1.40001
1.40001
1.40001
1.40001
1.40001
1.40001
1.40001
1.40001
1.40001
1.40001
1.40001
1.40001
1.40001
1.40001
1.40001
1.40001
1.40045
1.82071
4.56177
5.21033
5.1784
5.16706
5.1575
5.15011
5.14203
5.13047
5.1138
5.09539
5.07587
5.05289
5.0301
5.00803
4.98329
4.95651
4.92997
4.90339
4.87544
4.84076
4.79924
4.752
4.70093
4.65127
4.60033
4.54718
4.49291
4.43026
4.36587
4.29468
4.21841
4.13979
4.05258
3.96446
3.87087
3.77258
3.67266
3.56476
1.40001
1.40001
1.40001
1.40001
1.40001
1.40001
1.40001
1.40001
1.40001
1.40001
1.40001
1.40001
1.40001
1.40001
1.40001
1.40001
1.40001
1.40001
1.40001
1.40001
1.40001
1.40001
1.40001
1.40001
1.40001
1.40001
1.40001
1.40001
1.40001
1.40001
1.40001
1.40001
1.40001
1.40001
1.40001
1.40001
1.40001
1.40001
1.40001
1.40001
1.40001
1.40001
1.40001
1.40001
1.40001
1.40001
1.40001
1.40001
1.40001
1.40001
1.40001
1.40001
1.40001
1.40001
1.40001
1.40001
1.40001
1.40985
2.82745
4.99017
5.137
5.13016
5.12634
5.11958
5.11094
5.09945
5.08265
5.06409
5.04574
5.02371
5.00083
4.97806
4.9535
4.92653
4.89935
4.87219
4.84385
4.80938
4.76747
4.72012
4.66902
4.61889
4.56695
4.51363
4.45912
4.39884
4.33763
4.27091
4.19873
4.12415
4.04258
3.96146
3.87288
3.78424
3.69196
3.59509
1.40001
1.40001
1.40001
1.40001
1.40001
1.40001
1.40001
1.40001
1.40001
1.40001
1.40001
1.40001
1.40001
1.40001
1.40001
1.40001
1.40001
1.40001
1.40001
1.40001
1.40001
1.40001
1.40001
1.40001
1.40001
1.40001
1.40001
1.40001
1.40001
1.40001
1.40001
1.40001
1.40001
1.40001
1.40001
1.40001
1.40001
1.40001
1.40001
1.40001
1.40001
1.40001
1.40001
1.40001
1.40001
1.40001
1.40001
1.40001
1.40001
1.40001
1.40001
1.40001
1.40001
1.40001
1.40001
1.40001
1.40001
1.40002
1.52412
3.57234
5.05906
5.12027
5.11349
5.10674
5.09578
5.08196
5.06343
5.04271
5.02335
5.00106
4.97736
4.95311
4.92836
4.90109
4.87252
4.84431
4.81425
4.77988
4.73777
4.69149
4.64188
4.59184
4.54097
4.4881
4.43413
4.37549
4.31606
4.25199
4.18391
4.11272
4.03729
3.96091
3.877
3.79535
3.70869
3.61951
1.40001
1.40001
1.40001
1.40001
1.40001
1.40001
1.40001
1.40001
1.40001
1.40001
1.40001
1.40001
1.40001
1.40001
1.40001
1.40001
1.40001
1.40001
1.40001
1.40001
1.40001
1.40001
1.40001
1.40001
1.40001
1.40001
1.40001
1.40001
1.40001
1.40001
1.40001
1.40001
1.40001
1.40001
1.40001
1.40001
1.40001
1.40001
1.40001
1.40001
1.40001
1.40001
1.40001
1.40001
1.40001
1.40001
1.40001
1.40001
1.40001
1.40001
1.40001
1.40001
1.40001
1.40001
1.40001
1.40001
1.40001
1.40001
1.40083
1.71697
4.1999
5.13374
5.12192
5.10398
5.08171
5.06226
5.03957
5.0174
4.99695
4.97535
4.95233
4.92795
4.90246
4.87551
4.84658
4.81762
4.78608
4.75145
4.71012
4.66527
4.61766
4.56896
4.51956
4.46827
4.41552
4.35877
4.30081
4.23833
4.17372
4.10547
4.03512
3.962
3.88349
3.80647
3.72407
3.64126
1.40001
1.40001
1.40001
1.40001
1.40001
1.40001
1.40001
1.40001
1.40001
1.40001
1.40001
1.40001
1.40001
1.40001
1.40001
1.40001
1.40001
1.40001
1.40001
1.40001
1.40001
1.40001
1.40001
1.40001
1.40001
1.40001
1.40001
1.40001
1.40001
1.40001
1.40001
1.40001
1.40001
1.40001
1.40001
1.40001
1.40001
1.40001
1.40001
1.40001
1.40001
1.40001
1.40001
1.40001
1.40001
1.40001
1.40001
1.40001
1.40001
1.40001
1.40001
1.40001
1.40001
1.40001
1.40001
1.40001
1.40001
1.40001
1.40001
1.40541
2.16475
4.74102
5.1353
5.09467
5.07192
5.04354
5.01905
4.99638
4.97602
4.95475
4.93201
4.90771
4.88169
4.85466
4.82708
4.79655
4.76398
4.72827
4.68706
4.64285
4.59691
4.55024
4.50258
4.45346
4.40219
4.34778
4.29116
4.23039
4.16842
4.10257
4.03524
3.96464
3.8915
3.81778
3.73924
3.66245
1.40001
1.40001
1.40001
1.40001
1.40001
1.40001
1.40001
1.40001
1.40001
1.40001
1.40001
1.40001
1.40001
1.40001
1.40001
1.40001
1.40001
1.40001
1.40001
1.40001
1.40001
1.40001
1.40001
1.40001
1.40001
1.40001
1.40001
1.40001
1.40001
1.40001
1.40001
1.40001
1.40001
1.40001
1.40001
1.40001
1.40001
1.40001
1.40001
1.40001
1.40001
1.40001
1.40001
1.40001
1.40001
1.40001
1.40001
1.40001
1.40001
1.40001
1.40001
1.40001
1.40001
1.40001
1.40001
1.40001
1.40001
1.40001
1.40001
1.40001
1.43293
2.91873
4.96243
5.06138
5.03156
5.01535
4.99684
4.97752
4.95736
4.93669
4.91453
4.89042
4.86429
4.83653
4.80872
4.77744
4.74411
4.70725
4.66629
4.62299
4.57859
4.53368
4.48771
4.44062
4.39091
4.33875
4.28357
4.22547
4.16638
4.10323
4.03846
3.97101
3.90189
3.83064
3.75581
3.68438
1.40001
1.40001
1.40001
1.40001
1.40001
1.40001
1.40001
1.40001
1.40001
1.40001
1.40001
1.40001
1.40001
1.40001
1.40001
1.40001
1.40001
1.40001
1.40001
1.40001
1.40001
1.40001
1.40001
1.40001
1.40001
1.40001
1.40001
1.40001
1.40001
1.40001
1.40001
1.40001
1.40001
1.40001
1.40001
1.40001
1.40001
1.40001
1.40001
1.40001
1.40001
1.40001
1.40001
1.40001
1.40001
1.40001
1.40001
1.40001
1.40001
1.40001
1.40001
1.40001
1.40001
1.40001
1.40001
1.40001
1.40001
1.40001
1.40001
1.40001
1.40011
1.53635
3.38969
4.97521
5.00053
4.99211
4.98552
4.97135
4.9534
4.93193
4.90821
4.88258
4.85511
4.82612
4.79647
4.76458
4.73013
4.69237
4.65167
4.6092
4.56593
4.52191
4.4768
4.4306
4.38219
4.33173
4.27786
4.22239
4.16592
4.10577
4.04378
3.9791
3.91287
3.84449
3.77402
3.70749
1.40001
1.40001
1.40001
1.40001
1.40001
1.40001
1.40001
1.40001
1.40001
1.40001
1.40001
1.40001
1.40001
1.40001
1.40001
1.40001
1.40001
1.40001
1.40001
1.40001
1.40001
1.40001
1.40001
1.40001
1.40001
1.40001
1.40001
1.40001
1.40001
1.40001
1.40001
1.40001
1.40001
1.40001
1.40001
1.40001
1.40001
1.40001
1.40001
1.40001
1.40001
1.40001
1.40001
1.40001
1.40001
1.40001
1.40001
1.40001
1.40001
1.40001
1.40001
1.40001
1.40001
1.40001
1.40001
1.40001
1.40001
1.40001
1.40001
1.40001
1.40001
1.40111
1.65231
3.68838
4.98163
4.99033
4.98081
4.96727
4.94855
4.92744
4.90346
4.87723
4.84888
4.81882
4.78736
4.75404
4.71842
4.68029
4.64027
4.59907
4.55699
4.51371
4.46913
4.42313
4.37538
4.32586
4.27308
4.21929
4.16485
4.10775
4.04887
3.98741
3.92419
3.85922
3.79282
3.73045
1.40001
1.40001
1.40001
1.40001
1.40001
1.40001
1.40001
1.40001
1.40001
1.40001
1.40001
1.40001
1.40001
1.40001
1.40001
1.40001
1.40001
1.40001
1.40001
1.40001
1.40001
1.40001
1.40001
1.40001
1.40001
1.40001
1.40001
1.40001
1.40001
1.40001
1.40001
1.40001
1.40001
1.40001
1.40001
1.40001
1.40001
1.40001
1.40001
1.40001
1.40001
1.40001
1.40001
1.40001
1.40001
1.40001
1.40001
1.40001
1.40001
1.40001
1.40001
1.40001
1.40001
1.40001
1.40001
1.40001
1.40001
1.40001
1.40001
1.40001
1.40001
1.40001
1.40352
1.7618
3.95144
4.99489
4.98638
4.96691
4.94439
4.92111
4.89651
4.86972
4.84143
4.81151
4.77969
4.74563
4.70949
4.67172
4.63278
4.59283
4.55167
4.509
4.46479
4.41884
4.37142
4.32257
4.27109
4.21832
4.16496
4.11015
4.05393
3.99484
3.93424
3.8729
3.81089
3.7521
1.40001
1.40001
1.40001
1.40001
1.40001
1.40001
1.40001
1.40001
1.40001
1.40001
1.40001
1.40001
1.40001
1.40001
1.40001
1.40001
1.40001
1.40001
1.40001
1.40001
1.40001
1.40001
1.40001
1.40001
1.40001
1.40001
1.40001
1.40001
1.40001
1.40001
1.40001
1.40001
1.40001
1.40001
1.40001
1.40001
1.40001
1.40001
1.40001
1.40001
1.40001
1.40001
1.40001
1.40001
1.40001
1.40001
1.40001
1.40001
1.40001
1.40001
1.40001
1.40001
1.40001
1.40001
1.40001
1.40001
1.40001
1.40001
1.40001
1.40001
1.40001
1.40001
1.40001
1.40711
1.87913
4.16823
4.99674
4.97761
4.94999
4.92347
4.8948
4.86611
4.83648
4.80566
4.77298
4.73832
4.70231
4.66524
4.62726
4.58828
4.54792
4.50595
4.46232
4.41686
4.36998
4.32176
4.27141
4.21923
4.16619
4.11319
4.05926
4.00212
3.94402
3.88601
3.82802
3.77153
1.40001
1.40001
1.40001
1.40001
1.40001
1.40001
1.40001
1.40001
1.40001
1.40001
1.40001
1.40001
1.40001
1.40001
1.40001
1.40001
1.40001
1.40001
1.40001
1.40001
1.40001
1.40001
1.40001
1.40001
1.40001
1.40001
1.40001
1.40001
1.40001
1.40001
1.40001
1.40001
1.40001
1.40001
1.40001
1.40001
1.40001
1.40001
1.40001
1.40001
1.40001
1.40001
1.40001
1.40001
1.40001
1.40001
1.40001
1.40001
1.40001
1.40001
1.40001
1.40001
1.40001
1.40001
1.40001
1.40001
1.40001
1.40001
1.40001
1.40001
1.40001
1.40001
1.40001
1.40002
1.41232
2.00004
4.31836
4.99121
4.96657
4.93569
4.90406
4.87253
4.8407
4.807
4.77168
4.73545
4.69874
4.66131
4.62313
4.58414
4.54405
4.50264
4.45982
4.41527
4.36915
4.32164
4.27255
4.22198
4.17029
4.11885
4.06695
4.01172
3.95516
3.89905
3.84459
3.7896
1.40001
1.40001
1.40001
1.40001
1.40001
1.40001
1.40001
1.40001
1.40001
1.40001
1.40001
1.40001
1.40001
1.40001
1.40001
1.40001
1.40001
1.40001
1.40001
1.40001
1.40001
1.40001
1.40001
1.40001
1.40001
1.40001
1.40001
1.40001
1.40001
1.40001
1.40001
1.40001
1.40001
1.40001
1.40001
1.40001
1.40001
1.40001
1.40001
1.40001
1.40001
1.40001