/*--------------------------------*- C++ -*----------------------------------*\
  =========                 |
  \\      /  F ield         | OpenFOAM: The Open Source CFD Toolbox
   \\    /   O peration     | Website:  https://openfoam.org
    \\  /    A nd           | Version:  7
     \\/     M anipulation  |
\*---------------------------------------------------------------------------*/
FoamFile
{
    version     2.0;
    format      ascii;
    class       volScalarField;
    location    "3.7";
    object      T;
}
// * * * * * * * * * * * * * * * * * * * * * * * * * * * * * * * * * * * * * //

dimensions      [0 0 0 1 0 0 0];

internalField   nonuniform List<scalar> 
19968
(
1
1
1
1
1
1
1
1
1
1
1
1
1
1
1
1
1
1
1
1
1
1
1
1
1
1
1
1
1
1
1
1
1
1
1
1
1
1
1
1
1
1
1
1
1
1
1
1
1.13714
2.37953
2.68576
2.69198
2.69803
2.70327
2.70824
2.71288
2.71702
2.7204
2.723
2.72514
2.72749
2.7307
2.7352
2.74066
2.74603
2.75033
2.75318
2.7549
2.75628
2.75796
2.76048
2.76399
2.76796
2.77165
2.77462
2.7768
2.77845
2.78005
2.78202
2.78457
2.78753
2.79047
2.79299
2.79487
2.79614
2.797
2.79767
2.7984
2.79943
2.80095
2.803
2.80541
2.80788
2.80997
2.81135
2.81204
1
1
1
1
1
1
1
1
1
1
1
1
1
1
1
1
1
1
1
1
1
1
1
1
1
1
1
1
1
1
1
1
1
1
1
1
1
1
1
1
1
1
1
1
1
1
1
1
1.12771
2.37121
2.68539
2.6919
2.69779
2.70303
2.70798
2.71262
2.71675
2.72012
2.72268
2.7248
2.72715
2.73041
2.73495
2.74041
2.74578
2.75011
2.753
2.75476
2.75617
2.75785
2.76037
2.76387
2.76782
2.77149
2.77442
2.77657
2.7782
2.77979
2.78176
2.78429
2.78722
2.79011
2.79257
2.7944
2.79566
2.79653
2.79725
2.79803
2.7991
2.80062
2.80264
2.80501
2.80743
2.80949
2.81086
2.81157
1
1
1
1
1
1
1
1
1
1
1
1
1
1
1
1
1
1
1
1
1
1
1
1
1
1
1
1
1
1
1
1
1
1
1
1
1
1
1
1
1
1
1
1
1
1
1
1
1.10318
2.35182
2.68485
2.69139
2.69743
2.70255
2.70739
2.71196
2.7161
2.71951
2.72212
2.72429
2.72669
2.73
2.73454
2.73998
2.74533
2.74966
2.75261
2.75442
2.75587
2.75757
2.76011
2.7636
2.76753
2.77119
2.77411
2.77623
2.77784
2.77941
2.78137
2.78388
2.78676
2.7896
2.79199
2.79377
2.79501
2.79591
2.79668
2.79751
2.79861
2.80011
2.80204
2.8043
2.80661
2.80859
2.80992
2.81062
1
1
1
1
1
1
1
1
1
1
1
1
1
1
1
1
1
1
1
1
1
1
1
1
1
1
1
1
1
1
1
1
1
1
1
1
1
1
1
1
1
1
1
1
1
1
1
1
1.04901
2.32255
2.68474
2.69127
2.6971
2.70196
2.70658
2.71101
2.71511
2.71857
2.7213
2.72358
2.72608
2.72944
2.73395
2.73931
2.74457
2.74888
2.75188
2.75372
2.75523
2.75693
2.75949
2.76296
2.76687
2.7705
2.77338
2.77545
2.77702
2.77857
2.78049
2.78295
2.78575
2.78851
2.79084
2.79259
2.79386
2.79485
2.79574
2.7967
2.79788
2.79936
2.8012
2.8033
2.80543
2.80728
2.80853
2.8092
1
1
1
1
1
1
1
1
1
1
1
1
1
1
1
1
1
1
1
1
1
1
1
1
1
1
1
1
1
1
1
1
1
1
1
1
1
1
1
1
1
1
1
1
1
1
1
1
1.00124
2.27504
2.68266
2.69095
2.69656
2.70131
2.70583
2.71017
2.71424
2.71776
2.72062
2.72304
2.72565
2.72899
2.73336
2.7385
2.74357
2.74779
2.75083
2.7527
2.75428
2.75601
2.75861
2.76209
2.76601
2.76964
2.77251
2.77455
2.77607
2.77755
2.77939
2.78175
2.78443
2.78708
2.78932
2.79105
2.79234
2.7934
2.79439
2.79546
2.79669
2.79815
2.79986
2.80178
2.80374
2.80543
2.80659
2.80724
1
1
1
1
1
1
1
1
1
1
1
1
1
1
1
1
1
1
1
1
1
1
1
1
1
1
1
1
1
1
1
1
1
1
1
1
1
1
1
1
1
1
1
1
1
1
1
1
1
2.20343
2.67768
2.69069
2.69617
2.70089
2.70515
2.70917
2.71292
2.71632
2.71924
2.72183
2.72461
2.72797
2.73225
2.73723
2.74216
2.74634
2.74941
2.75127
2.75285
2.75453
2.75709
2.76052
2.76445
2.76811
2.77102
2.77306
2.77454
2.77595
2.77769
2.77991
2.78247
2.785
2.78719
2.7889
2.79023
2.79136
2.79245
2.79361
2.79489
2.79633
2.79795
2.79974
2.80155
2.80315
2.80425
2.8049
1
1
1
1
1
1
1
1
1
1
1
1
1
1
1
1
1
1
1
1
1
1
1
1
1
1
1
1
1
1
1
1
1
1
1
1
1
1
1
1
1
1
1
1
1
1
1
1
1
2.09976
2.66649
2.68927
2.6952
2.70023
2.70431
2.70791
2.71118
2.71425
2.71711
2.71986
2.72284
2.7263
2.73057
2.73548
2.74036
2.74456
2.74768
2.74948
2.75099
2.75252
2.75496
2.7583
2.76228
2.76607
2.76913
2.77124
2.7727
2.774
2.77557
2.77759
2.77997
2.78238
2.78449
2.78617
2.7875
2.78867
2.78982
2.79103
2.79233
2.79373
2.79528
2.79696
2.79867
2.80022
2.80129
2.80195
1
1
1
1
1
1
1
1
1
1
1
1
1
1
1
1
1
1
1
1
1
1
1
1
1
1
1
1
1
1
1
1
1
1
1
1
1
1
1
1
1
1
1
1
1
1
1
1
1
1.95603
2.64284
2.68441
2.69198
2.69763
2.70171
2.70504
2.70788
2.71056
2.71325
2.71613
2.71933
2.72298
2.72737
2.73239
2.73741
2.74182
2.74514
2.74698
2.74839
2.74971
2.7519
2.75506
2.75904
2.76301
2.76632
2.76859
2.77006
2.77125
2.77266
2.77454
2.77682
2.77919
2.78129
2.78297
2.78431
2.78548
2.78662
2.78782
2.78907
2.79037
2.79179
2.79332
2.79491
2.79636
2.79738
2.79802
1
1
1
1
1
1
1
1
1
1
1
1
1
1
1
1
1
1
1
1
1
1
1
1
1
1
1
1
1
1
1
1
1
1
1
1
1
1
1
1
1
1
1
1
1
1
1
1
1
1.76766
2.60325
2.67513
2.6863
2.69306
2.69758
2.70099
2.70369
2.7061
2.70857
2.71142
2.71472
2.71853
2.72306
2.72825
2.73352
2.73824
2.74188
2.74387
2.74515
2.74619
2.74798
2.75078
2.75462
2.75873
2.7623
2.76477
2.76628
2.76737
2.76862
2.77033
2.77252
2.77485
2.77693
2.77857
2.77986
2.78099
2.78211
2.7833
2.78455
2.78586
2.78724
2.78874
2.79029
2.79173
2.79273
2.79337
1
1
1
1
1
1
1
1
1
1
1
1
1
1
1
1
1
1
1
1
1
1
1
1
1
1
1
1
1
1
1
1
1
1
1
1
1
1
1
1
1
1
1
1
1
1
1
1
1
1.50764
2.52663
2.66556
2.67875
2.68724
2.69233
2.69606
2.69896
2.70148
2.70395
2.70675
2.70995
2.71359
2.71791
2.72298
2.72836
2.73342
2.73757
2.74002
2.74132
2.7422
2.74357
2.74597
2.74951
2.75366
2.75749
2.76024
2.76187
2.76292
2.76404
2.76561
2.76771
2.77
2.77205
2.77363
2.77479
2.77577
2.77674
2.77778
2.77888
2.78004
2.78126
2.7826
2.78399
2.7853
2.78623
2.7868
1
1
1
1
1
1
1
1
1
1
1
1
1
1
1
1
1
1
1
1
1
1
1
1
1
1
1
1
1
1
1
1
1
1
1
1
1
1
1
1
1
1
1
1
1
1
1
1
1
1.19127
2.40342
2.67259
2.67577
2.68258
2.6877
2.69182
2.69519
2.69806
2.70058
2.70308
2.70571
2.70862
2.71214
2.71654
2.72162
2.72678
2.73141
2.73455
2.73611
2.73703
2.73801
2.73992
2.74297
2.74693
2.75088
2.75394
2.7558
2.75692
2.75796
2.75938
2.76132
2.76351
2.76547
2.76691
2.76786
2.76858
2.76931
2.77018
2.7712
2.77234
2.77357
2.7749
2.7763
2.77762
2.77856
2.77914
1
1
1
1
1
1
1
1
1
1
1
1
1
1
1
1
1
1
1
1
1
1
1
1
1
1
1
1
1
1
1
1
1
1
1
1
1
1
1
1
1
1
1
1
1
1
1
1
1
1.0036
2.21513
2.67499
2.67318
2.67468
2.67812
2.68247
2.68694
2.69098
2.69439
2.69729
2.69987
2.70237
2.7052
2.70875
2.71317
2.71809
2.72295
2.72685
2.7291
2.73038
2.73127
2.73282
2.73536
2.7389
2.74277
2.74606
2.74825
2.74955
2.75059
2.75188
2.75365
2.75573
2.75768
2.75909
2.75992
2.76042
2.76087
2.76143
2.76212
2.76287
2.76369
2.76457
2.76551
2.7665
2.76722
2.76765
1
1
1
1
1
1
1
1
1
1
1
1
1
1
1
1
1
1
1
1
1
1
1
1
1
1
1
1
1
1
1
1
1
1
1
1
1
1
1
1
1
1
1
1
1
1
1
1
1
1
1.89795
2.63203
2.66334
2.66746
2.6719
2.67626
2.68056
2.68456
2.68804
2.69093
2.69337
2.69558
2.69795
2.70086
2.70454
2.70887
2.71341
2.71751
2.72038
2.72203
2.72301
2.72422
2.72622
2.72911
2.73256
2.73582
2.73826
2.73978
2.74082
2.74192
2.7434
2.74522
2.74702
2.74828
2.74883
2.74884
2.74861
2.74851
2.74858
2.74883
2.74935
2.75018
2.75114
2.75212
2.75271
2.75305
1
1
1
1
1
1
1
1
1
1
1
1
1
1
1
1
1
1
1
1
1
1
1
1
1
1
1
1
1
1
1
1
1
1
1
1
1
1
1
1
1
1
1
1
1
1
1
1
1
1
1.39061
2.46599
2.64741
2.65422
2.66225
2.66732
2.67197
2.67611
2.67972
2.68281
2.6855
2.688
2.69054
2.69334
2.69659
2.70026
2.70413
2.70784
2.71084
2.71272
2.71385
2.71479
2.71627
2.71849
2.72131
2.72422
2.72664
2.72819
2.72909
2.72982
2.73079
2.73212
2.73363
2.73475
2.73507
2.73478
2.73414
2.73345
2.73291
2.73258
2.73234
2.73213
2.73148
2.73019
2.72824
2.72634
1
1
1
1
1
1
1
1
1
1
1
1
1
1
1
1
1
1
1
1
1
1
1
1
1
1
1
1
1
1
1
1
1
1
1
1
1
1
1
1
1
1
1
1
1
1
1
1
1
1
1.01261
2.14725
2.6486
2.64779
2.65
2.65432
2.65929
2.66374
2.66757
2.67088
2.67385
2.67669
2.67959
2.68268
2.68595
2.68933
2.69271
2.6959
2.69873
2.70081
2.7022
2.70317
2.70429
2.70592
2.70807
2.71043
2.71254
2.71392
2.71451
2.71469
2.71494
2.71551
2.7163
2.71679
2.71658
2.71556
2.71365
2.71109
2.70819
2.7051
2.70198
2.69898
2.69655
2.69413
2.69252
2.69146
1
1
1
1
1
1
1
1
1
1
1
1
1
1
1
1
1
1
1
1
1
1
1
1
1
1
1
1
1
1
1
1
1
1
1
1
1
1
1
1
1
1
1
1
1
1
1
1
1
1
1.00001
1.5594
2.50152
2.62943
2.63588
2.64276
2.64745
2.65154
2.65512
2.65833
2.66131
2.66423
2.66728
2.67052
2.67385
2.67706
2.67998
2.68261
2.68497
2.68694
2.68843
2.68963
2.69062
2.69177
2.6933
2.69505
2.69659
2.69743
2.69735
2.69681
2.69602
2.69541
2.69493
2.69427
2.69298
2.69071
2.68729
2.68285
2.67775
2.67232
2.66673
2.66135
2.65687
2.65608
2.65442
2.66909
1
1
1
1
1
1
1
1
1
1
1
1
1
1
1
1
1
1
1
1
1
1
1
1
1
1
1
1
1
1
1
1
1
1
1
1
1
1
1
1
1
1
1
1
1
1
1
1
1
1
1
1.03078
2.25091
2.63707
2.63661
2.63932
2.64231
2.64526
2.64777
2.64997
2.65198
2.65405
2.65642
2.65918
2.66223
2.66521
2.66779
2.66989
2.67164
2.67323
2.6747
2.67589
2.67683
2.67771
2.67871
2.67982
2.68072
2.68101
2.68045
2.67916
2.67741
2.6756
2.67374
2.67161
2.66876
2.66476
2.65922
2.65193
2.64258
2.63096
2.61562
2.59536
2.56622
2.52534
2.46411
2.33872
1
1
1
1
1
1
1
1
1
1
1
1
1
1
1
1
1
1
1
1
1
1
1
1
1
1
1
1
1
1
1
1
1
1
1
1
1
1
1
1
1
1
1
1
1
1
1
1
1
1
1
1.00004
1.82053
2.56238
2.62657
2.63113
2.63526
2.63833
2.64085
2.64299
2.64469
2.64621
2.64792
2.65001
2.6525
2.65512
2.65743
2.65914
2.6604
2.66151
2.6626
2.66356
2.66439
2.66508
2.66566
2.66616
2.66644
2.66624
2.66527
2.66339
2.66084
2.65794
2.65472
2.65102
2.64639
2.64047
2.63256
2.62244
2.60898
2.59189
2.56847
2.53768
2.4935
2.43866
2.32682
2.16604
1
1
1
1
1
1
1
1
1
1
1
1
1
1
1
1
1
1
1
1
1
1
1
1
1
1
1
1
1
1
1
1
1
1
1
1
1
1
1
1
1
1
1
1
1
1
1
1
1
1
1
0.999999
1.17861
2.36028
2.62073
2.62097
2.62373
2.62783
2.63188
2.63532
2.63771
2.63916
2.64025
2.64149
2.64314
2.64518
2.6472
2.64855
2.64926
2.64962
2.65
2.65047
2.65098
2.65138
2.6515
2.65137
2.65103
2.65023
2.64867
2.64625
2.64302
2.63917
2.63465
2.62942
2.62296
2.61508
2.60486
2.59213
2.57547
2.55417
2.52594
2.48843
2.43941
2.36613
2.26216
2.13011
1
1
1
1
1
1
1
1
1
1
1
1
1
1
1
1
1
1
1
1
1
1
1
1
1
1
1
1
1
1
1
1
1
1
1
1
1
1
1
1
1
1
1
1
1
1
1
1
1
1
1
1
1.00244
1.99857
2.5821
2.60362
2.60745
2.61209
2.61723
2.62217
2.62608
2.62856
2.63002
2.63126
2.63272
2.63454
2.63646
2.63777
2.6382
2.63801
2.63769
2.6374
2.63719
2.637
2.63664
2.63601
2.63504
2.63356
2.6313
2.62822
2.62427
2.61959
2.61396
2.6074
2.59933
2.58962
2.57747
2.56253
2.5438
2.52007
2.48994
2.45002
2.39972
2.33127
2.24517
2.14768
1
1
1
1
1
1
1
1
1
1
1
1
1
1
1
1
1
1
1
1
1
1
1
1
1
1
1
1
1
1
1
1
1
1
1
1
1
1
1
1
1
1
1
1
1
1
1
1
1
1
1
1
1
1.30836
2.38931
2.5891
2.59043
2.59548
2.60182
2.60791
2.61299
2.61641
2.61832
2.6197
2.62123
2.62311
2.62517
2.62691
2.62746
2.62704
2.62615
2.62504
2.62391
2.62291
2.62189
2.62067
2.61904
2.61688
2.61389
2.61005
2.60528
2.59975
2.59324
2.58564
2.57647
2.5654
2.55189
2.53546
2.51554
2.49094
2.46082
2.4219
2.37546
2.31708
2.2506
2.17185
1
1
1
1
1
1
1
1
1
1
1
1
1
1
1
1
1
1
1
1
1
1
1
1
1
1
1
1
1
1
1
1
1
1
1
1
1
1
1
1
1
1
1
1
1
1
1
1
1
1
1
1
1
1.00803
2.01359
2.56619
2.57791
2.58315
2.58957
2.59507
2.59954
2.6028
2.60488
2.60631
2.6079
2.60999
2.61245
2.61473
2.61583
2.61552
2.61449
2.61299
2.61113
2.60912
2.6071
2.60502
2.60267
2.59996
2.59642
2.59184
2.58612
2.57958
2.57222
2.56389
2.55412
2.54237
2.52818
2.51113
2.49088
2.46642
2.43742
2.4017
2.36078
2.31233
2.25804
2.19534
1
1
1
1
1
1
1
1
1
1
1
1
1
1
1
1
1
1
1
1
1
1
1
1
1
1
1
1
1
1
1
1
1
1
1
1
1
1
1
1
1
1
1
1
1
1
1
1
1
1
1
1
1
1
1.25921
2.36408
2.57623
2.57662
2.57988
2.58373
2.58683
2.58914
2.59082
2.59177
2.59301
2.59501
2.59782
2.60073
2.60269
2.60279
2.60208
2.60068
2.5986
2.59597
2.59311
2.59021
2.58719
2.58397
2.57998
2.57482
2.56827
2.5607
2.5524
2.54337
2.53318
2.5212
2.50696
2.48998
2.47023
2.44632
2.4191
2.38681
2.35129
2.30968
2.26479
2.21336
1
1
1
1
1
1
1
1
1
1
1
1
1
1
1
1
1
1
1
1
1
1
1
1
1
1
1
1
1
1
1
1
1
1
1
1
1
1
1
1
1
1
1
1
1
1
1
1
1
1
1
1
1
1
1.00505
1.93787
2.53444
2.56483
2.56785
2.57082
2.57289
2.57446
2.57567
2.57653
2.57756
2.57941
2.58228
2.58533
2.58763
2.58823
2.58771
2.58663
2.58476
2.58211
2.57883
2.57539
2.57187
2.56821
2.56383
2.55824
2.55105
2.54267
2.53348
2.52373
2.51315
2.50115
2.48733
2.47101
2.45243
2.42971
2.40456
2.3755
2.34438
2.30781
2.26978
2.22669
1
1
1
1
1
1
1
1
1
1
1
1
1
1
1
1
1
1
1
1
1
1
1
1
1
1
1
1
1
1
1
1
1
1
1
1
1
1
1
1
1
1
1
1
1
1
1
1
1
1
1
1
1
1
1
1.13271
2.28991
2.56368
2.5591
2.56028
2.56174
2.56288
2.56369
2.56398
2.56432
2.56528
2.56731
2.56992
2.57205
2.57282
2.57239
2.57143
2.56959
2.56701
2.56386
2.56063
2.55724
2.55348
2.54887
2.54294
2.53536
2.52656
2.51684
2.50644
2.49535
2.48315
2.46966
2.45399
2.43658
2.41573
2.39272
2.36662
2.33896
2.30647
2.27395
2.23664
1
1
1
1
1
1
1
1
1
1
1
1
1
1
1
1
1
1
1
1
1
1
1
1
1
1
1
1
1
1
1
1
1
1
1
1
1
1
1
1
1
1
1
1
1
1
1
1
1
1
1
1
1
1
1
1.00118
1.71099
2.46179
2.52978
2.54226
2.54742
2.54946
2.55015
2.54986
2.54972
2.55015
2.55165
2.55401
2.55581
2.55614
2.55567
2.55456
2.5524
2.54976
2.54701
2.5445
2.54172
2.53823
2.53362
2.52753
2.51985
2.51108
2.5014
2.49078
2.4795
2.46703
2.45377
2.43849
2.42208
2.40332
2.38231
2.35891
2.33407
2.30528
2.27674
2.24365
1
1
1
1
1
1
1
1
1
1
1
1
1
1
1
1
1
1
1
1
1
1
1
1
1
1
1
1
1
1
1
1
1
1
1
1
1
1
1
1
1
1
1
1
1
1
1
1
1
1
1
1
1
1
1
1
1.06093
2.11702
2.53285
2.53648
2.5366
2.53718
2.53767
2.53759
2.53748
2.53781
2.53893
2.54095
2.5422
2.54195
2.54111
2.53946
2.53662
2.5334
2.53056
2.52831
2.52615
2.52308
2.51867
2.51267
2.50506
2.49662
2.48724
2.47675
2.46574
2.45308
2.43998
2.42512
2.4094
2.39232
2.37287
2.35184
2.32928
2.30389
2.27833
2.24922
1
1
1
1
1
1
1
1
1
1
1
1
1
1
1
1
1
1
1
1
1
1
1
1
1
1
1
1
1
1
1
1
1
1
1
1
1
1
1
1
1
1
1
1
1
1
1
1
1
1
1
1
1
1
1
1
1.00026
1.28425
2.32763
2.52466
2.52117
2.52215
2.52257
2.52277
2.52294
2.52334
2.5243
2.52609
2.52719
2.52678
2.52573
2.5238
2.52059
2.51682
2.51361
2.51121
2.50934
2.50669
2.50274
2.49718
2.49001
2.48221
2.4733
2.4633
2.45279
2.44045
2.42787
2.41387
2.3987
2.38276
2.36448
2.34551
2.3247
2.3023
2.27903
2.25339
1
1
1
1
1
1
1
1
1
1
1
1
1
1
1
1
1
1
1
1
1
1
1
1
1
1
1
1
1
1
1
1
1
1
1
1
1
1
1
1
1
1
1
1
1
1
1
1
1
1
1
1
1
1
1
1
1
1.00599
1.78964
2.4566
2.49903
2.50157
2.50416
2.50573
2.50688
2.50803
2.50921
2.51089
2.51212
2.51174
2.51074
2.5088
2.50564
2.50162
2.49792
2.49506
2.49296
2.49042
2.48672
2.48169
2.47519
2.46805
2.45966
2.45023
2.44009
2.42851
2.41671
2.40373
2.38947
2.37448
2.35754
2.34026
2.32074
2.30069
2.27925
2.25632
1
1
1
1
1
1
1
1
1
1
1
1
1
1
1
1
1
1
1
1
1
1
1
1
1
1
1
1
1
1
1
1
1
1
1
1
1
1
1
1
1
1
1
1
1
1
1
1
1
1
1
1
1
1
1
1
1
1.00001
1.07982
2.06216
2.48123
2.49459
2.4942
2.49511
2.49608
2.49684
2.4972
2.49765
2.4982
2.49774
2.49661
2.49453
2.49148
2.48744
2.48328
2.47989
2.47713
2.47443
2.4707
2.4661
2.46031
2.45369
2.44607
2.43728
2.42774
2.41692
2.40585
2.39373
2.38063
2.36666
2.35139
2.33544
2.31725
2.29904
2.2791
2.25813
1
1
1
1
1
1
1
1
1
1
1
1
1
1
1
1
1
1
1
1
1
1
1
1
1
1
1
1
1
1
1
1
1
1
1
1
1
1
1
1
1
1
1
1
1
1
1
1
1
1
1
1
1
1
1
1
1
1
1.00045
1.21335
2.22112
2.47514
2.4838
2.48391
2.48388
2.48427
2.48396
2.48361
2.48342
2.48289
2.48179
2.47981
2.47689
2.4732
2.46906
2.46539
2.46206
2.45903
2.45523
2.45083
2.44553
2.43938
2.43238
2.42429
2.41538
2.40532
2.3949
2.38347
2.37151
2.35859
2.3449
2.33015
2.31366
2.29696
2.27842
2.25929
1
1
1
1
1
1
1
1
1
1
1
1
1
1
1
1
1
1
1
1
1
1
1
1
1
1
1
1
1
1
1
1
1
1
1
1
1
1
1
1
1
1
1
1
1
1
1
1
1
1
1
1
1
1
1
1
1
1
1
1.00313
1.46639
2.31494
2.46127
2.46048
2.4637
2.4654
2.46682
2.46751
2.46791
2.4677
2.46695
2.46537
2.46286
2.45967
2.45621
2.45239
2.44878
2.44526
2.44115
2.43658
2.43144
2.42567
2.41909
2.41161
2.40322
2.39388
2.38396
2.37313
2.36204
2.35002
2.33741
2.32382
2.30921
2.29393
2.2769
2.2597
1
1
1
1
1
1
1
1
1
1
1
1
1
1
1
1
1
1
1
1
1
1
1
1
1
1
1
1
1
1
1
1
1
1
1
1
1
1
1
1
1
1
1
1
1
1
1
1
1
1
1
1
1
1
1
1
1
1
1
1
1.01943
1.79676
2.39487
2.44457
2.4419
2.44425
2.44678
2.44886
2.45019
2.45079
2.45061
2.44981
2.44815
2.44569
2.44294
2.43952
2.43597
2.43214
2.42782
2.42312
2.41802
2.41243
2.40612
2.39909
2.39111
2.38235
2.37284
2.36268
2.35234
2.34109
2.32947
2.31705
2.30391
2.28983
2.27436
2.25906
1
1
1
1
1
1
1
1
1
1
1
1
1
1
1
1
1
1
1
1
1
1
1
1
1
1
1
1
1
1
1
1
1
1
1
1
1
1
1
1
1
1
1
1
1
1
1
1
1
1
1
1
1
1
1
1
1
1
1
1
1.00005
1.08741
1.96018
2.40522
2.43166
2.43278
2.43483
2.43546
2.43576
2.4356
2.43517
2.43441
2.43319
2.43143
2.42928
2.42656
2.42335
2.4196
2.41534
2.41068
2.40564
2.4001
2.39391
2.38707
2.37942
2.3711
2.36193
2.35237
2.34263
2.33212
2.3212
2.3096
2.29745
2.28449
2.2706
2.25727
1
1
1
1
1
1
1
1
1
1
1
1
1
1
1
1
1
1
1
1
1
1
1
1
1
1
1
1
1
1
1
1
1
1
1
1
1
1
1
1
1
1
1
1
1
1
1
1
1
1
1
1
1
1
1
1
1
1
1
1
1
1.00057
1.16549
2.03917
2.39349
2.42422
2.42572
2.42556
2.42465
2.42348
2.4221
2.42062
2.41902
2.41723
2.41519
2.41277
2.40988
2.40645
2.40254
2.39821
2.39343
2.38805
2.38203
2.37534
2.36798
2.36002
2.3512
2.34209
2.33281
2.32294
2.31267
2.30179
2.2904
2.27841
2.26582
2.25396
1
1
1
1
1
1
1
1
1
1
1
1
1
1
1
1
1
1
1
1
1
1
1
1
1
1
1
1
1
1
1
1
1
1
1
1
1
1
1
1
1
1
1
1
1
1
1
1
1
1
1
1
1
1
1
1
1
1
1
1
1
1
1.00191
1.23397
2.09556
2.38154
2.41289
2.41292
2.41251
2.41149
2.40993
2.40798
2.40599
2.40398
2.40182
2.39933
2.39647
2.39323
2.38961
2.38558
2.38105
2.37591
2.37013
2.36369
2.35666
2.3491
2.3408
2.33209
2.32316
2.31387
2.30422
2.29384
2.28301
2.27188
2.2604
2.24954
1
1
1
1
1
1
1
1
1
1
1
1
1
1
1
1
1
1
1
1
1
1
1
1
1
1
1
1
1
1
1
1
1
1
1
1
1
1
1
1
1
1
1
1
1
1
1
1
1
1
1
1
1
1
1
1
1
1
1
1
1
1
1
1.00392
1.30236
2.13765
2.37057
2.3928
2.39635
2.39664
2.39591
2.39468
2.39306
2.3912
2.38903
2.38651
2.38368
2.3805
2.37695
2.37299
2.36853
2.36354
2.358
2.35186
2.34521
2.33809
2.33035
2.32208
2.31351
2.30483
2.29582
2.28595
2.2757
2.2653
2.25475
2.24441
1
1
1
1
1
1
1
1
1
1
1
1
1
1
1
1
1
1
1
1
1
1
1
1
1
1
1
1
1
1
1
1
1
1
1
1
1
1
1
1
1
1
1
1
1
1
1
1
1
1
1
1
1
1
1
1
1
1
1
1
1
1
1
1.00001
1.00688
1.3677
2.16688
2.35567
2.373
2.37701
2.37834
2.37852
2.37812
2.377
2.37531
2.37325
2.37083
2.36789
2.36441
2.36042
2.35594
2.35102
2.34566
2.3398
2.33348
2.32672
2.31953
2.31191
2.30396
2.29592
2.28761
2.27837
2.26858
2.25867
2.24895
2.23893
1
1
1
1
1
1
1
1
1
1
1
1
1
1
1
1
1
1
1
1
1
1
1
1
1
1
1
1
1
1
1
1
1
1
1
1
1
1
1
1
1
1
1
1
1
1
1
1
1
1
1
1
1
1
1
1
1
1
1
1
1
1
1
1
1.00001
1.01093
1.42155
2.18408
2.34327
2.35481
2.35705
2.3587
2.3594
2.35963
2.35927
2.35836
2.35677
2.35443
2.35129
2.34746
2.34316
2.33844
2.33328
2.32771
2.32168
2.31525
2.3086
2.30174
2.29442
2.28675
2.27888
2.27042
2.26127
2.25186
2.24279
2.23322
1
1
1
1
1
1
1
1
1
1
1
1
1
1
1
1
1
1
1
1
1
1
1
1
1
1
1
1
1
1
1
1
1
1
1
1
1
1
1
1
1
1
1
1
1
1
1
1
1
1
1
1
1
1
1
1
1
1
1
1
1
1
1
1
1
1.00003
1.01541
1.46102
2.19356
2.33138
2.33937
2.33896
2.33951
2.33973
2.34024
2.34021
2.33968
2.3384
2.33628
2.33339
2.32985
2.32575
2.32109
2.3159
2.31035
2.30439
2.298
2.29145
2.28465
2.27741
2.26982
2.26204
2.25388
2.24504
2.23633
2.22732
1
1
1
1
1
1
1
1
1
1
1
1
1
1
1
1
1
1
1
1
1
1
1
1
1
1
1
1
1
1
1
1
1
1
1
1
1
1
1
1
1
1
1
1
1
1
1
1
1
1
1
1
1
1
1
1
1
1
1
1
1
1
1
1
1
1
1.00004
1.01953
1.48579
2.19318
2.32153
2.32455
2.32267
2.32189
2.32122
2.32098
2.32051
2.31969
2.31847
2.31676
2.3144
2.3113
2.30755
2.30317
2.29831
2.29304
2.28723
2.28091
2.2744
2.26778
2.26062
2.25323
2.24574
2.23782
2.2296
2.22079
1
1
1
1
1
1
1
1
1
1
1
1
1
1
1
1
1
1
1
1
1
1
1
1
1
1
1
1
1
1
1
1
1
1
1
1
1
1
1
1
1
1
1
1
1
1
1
1
1
1
1
1
1
1
1
1
1
1
1
1
1
1
1
1
1
1
1
1.00006
1.02251
1.49384
2.18472
2.31093
2.31099
2.30808
2.30626
2.30442
2.30283
2.30141
2.30003
2.29857
2.2969
2.2947
2.29197
2.28871
2.28476
2.28017
2.27517
2.26975
2.26389
2.25778
2.25139
2.2445
2.23713
2.2299
2.22238
2.21433
1
1
1
1
1
1
1
1
1
1
1
1
1
1
1
1
1
1
1
1
1
1
1
1
1
1
1
1
1
1
1
1
1
1
1
1
1
1
1
1
1
1
1
1
1
1
1
1
1
1
1
1
1
1
1
1
1
1
1
1
1
1
1
1
1
1
1
1
1.00008
1.02363
1.48558
2.16637
2.2948
2.29905
2.2956
2.29277
2.29006
2.28733
2.28472
2.2824
2.28022
2.27785
2.27515
2.27204
2.26867
2.26501
2.26113
2.25702
2.25229
2.24687
2.24104
2.23491
2.22841
2.22164
2.21487
2.2077
1
1
1
1
1
1
1
1
1
1
1
1
1
1
1
1
1
1
1
1
1
1
1
1
1
1
1
1
1
1
1
1
1
1
1
1
1
1
1
1
1
1
1
1
1
1
1
1
1
1
1
1
1
1
1
1
1
1
1
1
1
1
1
1
1
1
1
1
1
1.00008
1.02279
1.46191
2.13219
2.28742
2.28652
2.2826
2.2793
2.2757
2.2727
2.26963
2.26627
2.26283
2.25952
2.25609
2.25271
2.24943
2.24601
2.2423
2.23833
2.23405
2.22943
2.22454
2.21916
2.21318
2.20689
2.2001
1
1
1
1
1
1
1
1
1
1
1
1
1
1
1
1
1
1
1
1
1
1
1
1
1
1
1
1
1
1
1
1
1
1
1
1
1
1
1
1
1
1
1
1
1
1
1
1
1
1
1
1
1
1
1
1
1
1
1
1
1
1
1
1
1
1
1
1
1
1
1.00008
1.01977
1.41756
2.08376
2.26469
2.27744
2.27218
2.26806
2.26338
2.25877
2.2547
2.25095
2.24703
2.24307
2.23926
2.23555
2.23193
2.22838
2.22474
2.22093
2.21685
2.21243
2.20792
2.20295
2.19764
2.19211
1
1
1
1
1
1
1
1
1
1
1
1
1
1
1
1
1
1
1
1
1
1
1
1
1
1
1
1
1
1
1
1
1
1
1
1
1
1
1
1
1
1
1
1
1
1
1
1
1
1
1
1
1
1
1
1
1
1
1
1
1
1
1
1
1
1
1
1
1
1
1
1.00006
1.01563
1.36121
2.0141
2.23795
2.26566
2.25964
2.25568
2.25112
2.24647
2.24182
2.2372
2.23294
2.22898
2.22508
2.22113
2.21708
2.21293
2.20877
2.20451
2.20031
2.19604
2.19153
2.18681
2.18172
1
1
1
1
1
1
1
1
1
1
1
1
1
1
1
1
1
1
1
1
1
1
1
1
1
1
1
1
1
1
1
1
1
1
1
1
1
1
1
1
1
1
1
1
1
1
1
1
1
1
1
1
1
1
1
1
1
1
1
1
1
1
1
1
1
1
1
1
1
1
1
1
1.00005
1.01105
1.29055
1.91144
2.20826
2.24993
2.24475
2.24182
2.23847
2.23471
2.23079
2.22662
2.22211
2.21749
2.21297
2.20848
2.20397
2.19944
2.19481
2.1901
2.18522
2.18039
2.17551
2.1706
1
1
1
1
1
1
1
1
1
1
1
1
1
1
1
1
1
1
1
1
1
1
1
1
1
1
1
1
1
1
1
1
1
1
1
1
1
1
1
1
1
1
1
1
1
1
1
1
1
1
1
1
1
1
1
1
1
1
1
1
1
1
1
1
1
1
1
1
1
1
1
1
1
1.00003
1.00684
1.20723
1.79196
2.1669
2.23
2.22829
2.22708
2.22472
2.22217
2.21905
2.21534
2.2111
2.20651
2.20171
2.19679
2.19181
2.18676
2.18165
2.17635
2.17109
2.16577
2.1605
1
1
1
1
1
1
1
1
1
1
1
1
1
1
1
1
1
1
1
1
1
1
1
1
1
1
1
1
1
1
1
1
1
1
1
1
1
1
1
1
1
1
1
1
1
1
1
1
1
1
1
1
1
1
1
1
1
1
1
1
1
1
1
1
1
1
1
1
1
1
1
1
1
1
1.00001
1.00354
1.13126
1.66637
2.11743
2.20458
2.21177
2.20954
2.20879
2.2073
2.20501
2.20192
2.19828
2.19426
2.18992
2.18519
2.18009
2.17471
2.16918
2.16361
2.15796
2.15256
1
1
1
1
1
1
1
1
1
1
1
1
1
1
1
1
1
1
1
1
1
1
1
1
1
1
1
1
1
1
1
1
1
1
1
1
1
1
1
1
1
1
1
1
1
1
1
1
1
1
1
1
1
1
1
1
1
1
1
1
1
1
1
1
1
1
1
1
1
1
1
1
1
1
1
1.00001
1.00156
1.07471
1.54075
2.04952
2.1727
2.20157
2.19309
2.19289
2.19179
2.18991
2.18737
2.18436
2.18095
2.17707
2.17267
2.16791
2.16275
2.15737
2.15194
2.14638
1
1
1
1
1
1
1
1
1
1
1
1
1
1
1
1
1
1
1
1
1
1
1
1
1
1
1
1
1
1
1
1
1
1
1
1
1
1
1
1
1
1
1
1
1
1
1
1
1
1
1
1
1
1
1
1
1
1
1
1
1
1
1
1
1
1
1
1
1
1
1
1
1
1
1
1
1
1.0006
1.03827
1.41253
1.94208
2.14849
2.18268
2.17924
2.17736
2.17547
2.1736
2.1714
2.16896
2.16612
2.16287
2.159
2.15472
2.15029
2.14555
2.14063
1
1
1
1
1
1
1
1
1
1
1
1
1
1
1
1
1
1
1
1
1
1
1
1
1
1
1
1
1
1
1
1
1
1
1
1
1
1
1
1
1
1
1
1
1
1
1
1
1
1
1
1
1
1
1
1
1
1
1
1
1
1
1
1
1
1
1
1
1
1
1
1
1
1
1
1
1
1
1.0002
1.01744
1.27867
1.80473
2.10998
2.16478
2.16414
2.16045
2.15894
2.15759
2.15569
2.1535
2.15096
2.1481
2.14522
2.14175
2.13807
2.13403
1
1
1
1
1
1
1
1
1
1
1
1
1
1
1
1
1
1
1
1
1
1
1
1
1
1
1
1
1
1
1
1
1
1
1
1
1
1
1
1
1
1
1
1
1
1
1
1
1
1
1
1
1
1
1
1
1
1
1
1
1
1
1
1
1
1
1
1
1
1
1
1
1
1
1
1
1
1
1
1.00006
1.00697
1.15918
1.64643
2.05
2.13239
2.15385
2.14762
2.14564
2.14394
2.14177
2.13887
2.13608
2.13328
2.13044
2.12764
2.12471
1
1
1
1
1
1
1
1
1
1
1
1
1
1
1
1
1
1
1
1
1
1
1
1
1
1
1
1
1
1
1
1
1
1
1
1
1
1
1
1
1
1
1
1
1
1
1
1
1
1
1
1
1
1
1
1
1
1
1
1
1
1
1
1
1
1
1
1
1
1
1
1
1
1
1
1
1
1
1
1
1.00002
1.00235
1.07564
1.48063
1.94916
2.1076
2.13764
2.13467
2.13132
2.12914
2.12709
2.12423
2.12089
2.11802
2.11489
2.11266
1
1
1
1
1
1
1
1
1
1
1
1
1
1
1
1
1
1
1
1
1
1
1
1
1
1
1
1
1
1
1
1
1
1
1
1
1
1
1
1
1
1
1
1
1
1
1
1
1
1
1
1
1
1
1
1
1
1
1
1
1
1
1
1
1
1
1
1
1
1
1
1
1
1
1
1
1
1
1
1
1
1
1.00066
1.02916
1.32182
1.80813
2.07315
2.11742
2.12183
2.11682
2.11404
2.11212
2.11003
2.10767
2.10402
2.10114
1
1
1
1
1
1
1
1
1
1
1
1
1
1
1
1
1
1
1
1
1
1
1
1
1
1
1
1
1
1
1
1
1
1
1
1
1
1
1
1
1
1
1
1
1
1
1
1
1
1
1
1
1
1
1
1
1
1
1
1
1
1
1
1
1
1
1
1
1
1
1
1
1
1
1
1
1
1
1
1
1
1
1
1.00014
1.0102
1.17835
1.62884
2.00051
2.09422
2.10953
2.10645
2.10249
2.09949
2.09673
2.0938
2.09038
1
1
1
1
1
1
1
1
1
1
1
1
1
1
1
1
1
1
1
1
1
1
1
1
1
1
1
1
1
1
1
1
1
1
1
1
1
1
1
1
1
1
1
1
1
1
1
1
1
1
1
1
1
1
1
1
1
1
1
1
1
1
1
1
1
1
1
1
1
1
1
1
1
1
1
1
1
1
1
1
1
1
1
1
1.00003
1.00304
1.07448
1.44561
1.88071
2.05737
2.0969
2.09688
2.09329
2.08971
2.0858
2.0799
1
1
1
1
1
1
1
1
1
1
1
1
1
1
1
1
1
1
1
1
1
1
1
1
1
1
1
1
1
1
1
1
1
1
1
1
1
1
1
1
1
1
1
1
1
1
1
1
1
1
1
1
1
1
1
1
1
1
1
1
1
1
1
1
1
1
1
1
1
1
1
1
1
1
1
1
1
1
1
1
1
1
1
1
1
1
1.00066
1.02534
1.2695
1.7202
2.00773
2.06949
2.08377
2.08059
2.07665
2.07348
1
1
1
1
1
1
1
1
1
1
1
1
1
1
1
1
1
1
1
1
1
1
1
1
1
1
1
1
1
1
1
1
1
1
1
1
1
1
1
1
1
1
1
1
1
1
1
1
1
1
1
1
1
1
1
1
1
1
1
1
1
1
1
1
1
1
1
1
1
1
1
1
1
1
1
1
1
1
1
1
1
1
1
1
1
1
1
1.00012
1.00724
1.12822
1.51525
1.91366
2.04967
2.06874
2.06592
2.06224
1
1
1
1
1
1
1
1
1
1
1
1
1
1
1
1
1
1
1
1
1
1
1
1
1
1
1
1
1
1
1
1
1
1
1
1
1
1
1
1
1
1
1
1
1
1
1
1
1
1
1
1
1
1
1
1
1
1
1
1
1
1
1
1
1
1
1
1
1
1
1
1
1
1
1
1
1
1
1
1
1
1
1
1
1
1
1
1
1.00002
1.00173
1.04256
1.33351
1.75349
1.99248
2.05234
2.05931
1
1
1
1
1
1
1
1
1
1
1
1
1
1
1
1
1
1
1
1
1
1
1
1
1
1
1
1
1
1
1
1
1
1
1
1
1
1
1
1
1
1
1
1
1
1
1
1
1
1
1
1
1
1
1
1
1
1
1
1
1
1
1
1
1
1
1
1
1
1
1
1
1
1
1
1
1
1
1
1
1
1
1
1
1
1
1
1
1
1
1.00027
1.01248
1.16307
1.5529
1.90085
2.02106
1
1
1
1
1
1
1
1
1
1
1
1
1
1
1
1
1
1
1
1
1
1
1
1
1
1
1
1
1
1
1
1
1
1
1
1
1
1
1
1
1
1
1
1
1
1
1
1
1
1
1
1
1
1
1
1
1
1
1
1
1
1
1
1
1
1
1
1
1
1
1
1
1
1
1
1
1
1
1
1
1
1
1
1
1
1
1
1
1
1
1
1.00004
1.00275
1.05645
1.34451
1.76222
1
1
1
1
1
1
1
1
1
1
1
1
1
1
1
1
1
1
1
1
1
1
1
1
1
1
1
1
1
1
1
1
1
1
1
1
1
1
1
1
1
1
1
1
1
1
1
1
1
1
1
1
1
1
1
1
1
1
1
1
1
1
1
1
1
1
1
1
1
1
1
1
1
1
1
1
1
1
1
1
1
1
1
1
1
1
1
1
1
1
1
1
1
1.00046
1.01422
1.17732
1
1
1
1
1
1
1
1
1
1
1
1
1
1
1
1
1
1
1
1
1
1
1
1
1
1
1
1
1
1
1
1
1
1
1
1
1
1
1
1
1
1
1
1
1
1
1
1
1
1
1
1
1
1
1
1
1
1
1
1
1
1
1
1
1
1
1
1
1
1
1
1
1
1
1
1
1
1
1
1
1
1
1
1
1
1
1
1
1
1
1
1
1
1
1.00006
1.00303
1
1
1
1
1
1
1
1
1
1
1
1
1
1
1
1
1
1
1
1
1
1
1
1
1
1
1
1
1
1
1
1
1
1
1
1
1
1
1
1
1
1
1
1
1
1
1
1
1
1
1
1
1
1
1
1
1
1
1
1
1
1
1
1
1
1
1
1
1
1
1
1
1
1
1
1
1
1
1
1
1
1
1
1
1
1
1
1
1
1
1
1
1
1
1
1
1
1
1
1
1
1
1
1
1
1
1
1
1
1
1
1
1
1
1
1
1
1
1
1
1
1
1
1
1
1
1
1
1
1
1
1
1
1
1
1
1
1
1
1
1
1
1
1
1
1
1
1
1
1
1
1
1
1
1
1
1
1
1
1
1
1
1
1
1
1
1
1
1
1
1
1
1
1
1
1
1
1
1
1
1
1
1
1
1
1
1
1
1
1
1
1
1
1
1
1
1
1
1
1
1
1
1
1
1
1
1
1
1
1
1
1
1
1
1
1
1
1
1
1
1
1
1
1
1
1
1
1
1
1
1
1
1
1
1
1
1
1
1
1
1
1
1
1
1
1
1
1
1
1
1
1
1
1
1
1
1
1
1
1
1
1
1
1
1
1
1
1
1
1
1
1
1
1
1
1
1
1
1
1
1
1
1
1
1
1
1
1
1
1
1
1
1
1
1
1
1
1
1
1
1
1
1
1
1
1
1
1
1
1
1
1
1
1
1
1
1
1
1
1
1
1
1
1
1
1
1
1
1
1
1
1
1
1
1
1
1
1
1
1
1
1
1
1
1
1
1
1
1
1
1
1
1
1
1
1
1
1
1
1
1
1
1
1
1
1
1
1
1
1
1
1
1
1
1
1
1
1
1
1
1
1
1
1
1
1
1
1
1
1
1
1
1
1
1
1
1
1
1
1
1
1
1
1
1
1
1
1
1
1
1
1
1
1
1
1
1
1
1
1
1
1
1
1
1
1
1
1
1
1
1
1
1
1
1
1
1
1
1
1
1
1
1
1
1
1
1
1
1
1
1
1
1
1
1
1
1
1
1
1
1
1
1
1
1
1
1
1
1
1
1
1
1
1
1
1
1
1
1
1
1
1
1
1
1
1
1
1
1
1
1
1
1
1
1
1
1
1
1
1
1
1
1
1
1
1
1
1
1
1
1
1
1
1
1
1
1
1
1
1
1
1
1
1
1
1
1
1
1
1
1
1
1
1
1
1
1
1
1
1
1
1
1
1
1
1
1
1
1
1
1
1
1
1
1
1
1
1
1
1
1
1
1
1
1
1
1
1
1
1
1
1
1
1
1
1
1
1
1
1
1
1
1
1
1
1
1
1
1
1
1
1
1
1
1
1
1
1
1
1
1
1
1
1
1
1
1
1
1
1
1
1
1
1
1
1
1
1
1
1
1
1
1
1
1
1
1
1
1
1
1
1
1
1
1
1
1
1
1
1
1
1
1
1
1
1
1
1
1
1
1
1
1
1
1
1
1
1
1
1
1
1
1
1
1
1
1
1
1
1
1
1
1
1
1
1
1
1
1
1
1
1
1
1
1
1
1
1
1
1
1
1
1
1
1
1
1
1
1
1
1
1
1
1
1
1
1
1
1
1
1
1
1
1
1
1
1
1
1
1
1
1
1
1
1
1
1
1
1
1
1
1
1
1
1
1
1
1
1
1
1
1
1
1
1
1
1
1
1
1
1
1
1
1
1
1
1
1
1
1
1
1
1
1
1
1
1
1
1
1
1
1
1
1
1
1
1
1
1
1
1
1
1
1
1
1
1
1
1
1
1
1
1
1
1
1
1
1
1
1
1
1
1
1
1
1
1
1
1
1
1
1
1
1
1
1
1
1
1
1
1
1
1
1
1
1
1
1
1
1
1
1
1
1
1
1
1
1
1
1
1
1
1
1
1
1
1
1
1
1
1
1
1
1
1
1
1
1
1
1
1
1
1
1
1
1
1
1
1
1
1
1
1
1
1
1
1
1
1
1
1
1
1
1
1
1
1
1
1
1
1
1
1
1
1
1
1
1
1
1
1
1
1
1
1
1
1
1
1
1
1
1
1
1
1
1
1
1
1
1
1
1
1
1
1
1
1
1
1
1
1
1
1
1
1
1
1
1
1
1
1
1
1
1
1
1
1
1
1
1
1
1
1
1
1
1
1
1
1
1
1
1
1
1
1
1
1
1
1
1
1
1
1
1
1
1
1
1
1
1
1
1
1
1
1
1
1
1
1
1
1
1
1
1
1
1
1
1
1
1
1
1
1
1
1
1
1
1
1
1
1
1
1
1
1
1
1
1
1
1
1
1
1
1
1
1
1
1
1
1
1
1
1
1
1
1
1
1
1
1
1
1
1
1
1
1
1
1
1
1
1
1
1
1
1
1
1
1
1
1
1
1
1
1
1
1
1
1
1
1
1
1
1
1
1
1
1
1
1
1
1
1
1
1
1
1
1
1
1
1
1
1
1
1
1
1
1
1
1
1
1
1
1
1
1
1
1
1
1
1
1
1
1
1
1
1
1
1
1
1
1
1
1
1
1
1
1
1
1
1
1
1
1
1
1
1
1
1
1
1
1
1
1
1
1
1
1
1
1
1
1
1
1
1
1
1
1
1
1
1
1
1
1
1
1
1
1
1
1
1
1
1
1
1
1
1
1
1
1
1
1
1
1
1
1
1
1
1
1
1
1
1
1
1
1
1
1
1
1
1
1
1
1
1
1
1
1
1
1
1
1
1
1
1
1
1
1
1
1
1
1
1
1
1
1
1
1
1
1
1
1
1
1
1
1
1
1
1
1
1
1
1
1
1
1
1
1
1
1
1
1
1
1
1
1
1
1
1
1
1
1
1
1
1
1
1
1
1
1
1
1
1
1
1
1
1
1
1
1
1
1
1
1
1
1
1
1
1
1
1
1
1
1
1
1
1
1
1
1
1
1
1
1
1
1
1
1
1
1
1
1
1
1
1
1
1
1
1
1
1
1
1
1
1
1
1
1
1
1
1
1
1
1
1
1
1
1
1
1
1
1
1
1
1
1
1
1
1
1
1
1
1
1
1
1
1
1
1
1
1
1
1
1
1
1
1
1
1
1
1
1
1
1
1
1
1
1
1
1
1
1
1
1
1
1
1
1
1
1
1
1
1
1
1
1
1
1
1
1
1
1
1
1
1
1
1
1
1
1
1
1
1
1
1
1
1
1
1
1
1
1
1
1
1
1
1
1
1
1
1
1
1
1
1
1
1
1
1
1
1
1
1
1
1
1
1
1
1
1
1
1
1
1
1
1
1
1
1
1
1
1
1
1
1
1
1
1
1
1
1
1
1
1
1
1
1
1
1
1
1
1
1
1
1
1
1
1
1
1
1
1
1
1
1
1
1
1
1
1
1
1
1
1
1
1
1
1
1
1
1
1
1
1
1
1
1
1
1
1
1
1
1
1
1
1
1
1
1
1
1
1
1
1
1
1
1
1.47926
0.72015
0.753497
0.913286
0.957186
0.97644
1.03172
1.06716
1.08554
1.11907
1.18713
1.28221
1.39464
1.49031
1.5255
1.53735
1.53408
1.53874
1.55235
1.57116
1.59386
1.61776
1.61672
1.61137
1.60209
1.60357
1.61128
1.62929
1.63592
1.635
1.63108
1.62471
1.62173
1.62508
1.6339
1.64053
1.64419
1.64529
1.64195
1.63865
1.63837
1.63911
1.64045
1.64146
1.64322
1.64655
1.64978
1.65148
1.65186
1.65149
1.65052
1.6483
1.64562
1.64374
1.64368
1.64588
1.64828
1.64855
1.64846
2.32176
2.82997
2.82422
2.81455
2.80659
2.79575
2.78584
2.77833
2.77171
2.7655
2.75843
2.74988
2.73979
2.72896
2.71844
2.70897
2.7007
2.69338
2.68651
2.6798
2.67316
2.66656
2.65994
2.65295
2.64516
2.63656
2.6275
2.61844
2.60964
2.60101
2.59208
2.58225
2.57104
2.5586
2.54625
2.5354
2.52703
2.52163
2.5187
2.51623
2.51206
2.50581
2.49854
2.491
2.48333
2.47562
2.46786
2.45903
2.44872
2.43772
2.42688
2.41684
2.40803
2.40138
2.3969
2.39282
2.38678
2.37906
2.37085
2.36168
2.35247
2.34541
2.34006
2.33608
2.33392
2.33213
2.32871
2.32292
2.31593
2.30727
2.29758
2.28887
2.28149
2.2744
2.26771
2.26154
2.25542
2.24924
2.2433
2.23767
2.23174
2.22542
2.21893
2.2118
2.20386
2.19626
2.19008
2.1852
2.18095
2.17673
2.17281
2.16929
2.16566
2.16118
2.15541
2.1487
2.14011
2.13042
2.12247
2.11665
2.11186
2.10763
2.10371
2.09971
2.09539
2.09015
2.08354
2.07574
2.06779
2.06064
2.05446
2.04895
2.04385
2.03905
2.03458
2.03057
2.02696
2.0234
2.01975
2.01557
2.01044
2.00358
1.99535
1.98699
1.97929
1.97222
1.96563
1.9596
1.95419
1.9494
1.94491
1.9413
1.93511
1.74822
1.32981
1.16091
1.0909
1.0805
1.07651
1.05553
0.99245
0.986394
0.987394
1.00078
1.04887
1.12025