/*--------------------------------*- C++ -*----------------------------------*\
  =========                 |
  \\      /  F ield         | OpenFOAM: The Open Source CFD Toolbox
   \\    /   O peration     | Website:  https://openfoam.org
    \\  /    A nd           | Version:  7
     \\/     M anipulation  |
\*---------------------------------------------------------------------------*/
FoamFile
{
    version     2.0;
    format      ascii;
    class       volVectorField;
    location    "3.7";
    object      U;
}
// * * * * * * * * * * * * * * * * * * * * * * * * * * * * * * * * * * * * * //

dimensions      [0 1 -1 0 0 0 0];

internalField   nonuniform List<vector> 
19968
(
(3 8.96106e-17 0)
(3 1.76033e-16 0)
(3 2.39572e-16 0)
(3 2.16351e-16 0)
(3 5.79828e-17 0)
(3 9.03683e-16 0)
(3 1.34107e-15 0)
(3 1.08934e-15 0)
(3 7.43113e-16 0)
(3 -1.38047e-16 0)
(3 -3.66027e-16 0)
(3 -4.59316e-16 0)
(3 -3.30918e-16 0)
(3 -4.0034e-16 0)
(3 -4.3213e-16 0)
(3 -4.63589e-16 0)
(3 -3.15223e-16 0)
(3 -3.02673e-16 0)
(3 2.43728e-17 0)
(3 2.93626e-16 0)
(3 4.26445e-16 0)
(3 1.63328e-16 0)
(3 -7.01343e-17 0)
(3 -1.3547e-16 0)
(3 -4.6494e-16 0)
(3 -1.02317e-15 0)
(3 -1.28155e-15 0)
(3 -1.24875e-15 0)
(3 -8.65558e-16 0)
(3 1.02828e-16 0)
(3 4.46994e-16 0)
(3 -1.0464e-16 0)
(3 -5.11963e-16 0)
(3 -6.63858e-16 0)
(3 -8.0237e-16 0)
(3 -9.01731e-16 0)
(3 -9.81362e-16 0)
(3 -1.12697e-15 0)
(3 -6.09612e-16 0)
(3 2.44411e-16 0)
(3 5.08042e-16 0)
(3 6.88841e-16 0)
(3 1.25209e-15 0)
(3 1.33697e-15 0)
(3 1.25054e-15 0)
(3 1.49628e-15 0)
(3 1.16609e-15 0)
(3 8.38421e-16 0)
(2.93105 0.000907104 0)
(1.02529 0.00603446 0)
(0.75931 0.00566688 0)
(0.744312 0.00793293 0)
(0.729483 0.00854918 0)
(0.71513 0.00891083 0)
(0.700327 0.00897716 0)
(0.685019 0.00898174 0)
(0.669244 0.00912469 0)
(0.653403 0.00927146 0)
(0.638155 0.00915425 0)
(0.623853 0.00889264 0)
(0.609957 0.0089617 0)
(0.595315 0.0094238 0)
(0.579333 0.00967305 0)
(0.562817 0.00932921 0)
(0.54702 0.00892835 0)
(0.532334 0.00907527 0)
(0.518242 0.00972483 0)
(0.504103 0.0102359 0)
(0.489882 0.0100876 0)
(0.475447 0.00976295 0)
(0.460053 0.00970365 0)
(0.443572 0.00972938 0)
(0.426819 0.00987528 0)
(0.410328 0.0102757 0)
(0.394093 0.0107458 0)
(0.378022 0.0110141 0)
(0.362048 0.0110942 0)
(0.34594 0.0111832 0)
(0.32936 0.0113567 0)
(0.312193 0.0115493 0)
(0.294666 0.0116836 0)
(0.277165 0.0117275 0)
(0.259981 0.0116935 0)
(0.243164 0.0116308 0)
(0.226527 0.011619 0)
(0.209754 0.0117244 0)
(0.192558 0.0119625 0)
(0.174761 0.0123141 0)
(0.15627 0.0127341 0)
(0.137103 0.0131797 0)
(0.117348 0.0136298 0)
(0.0970816 0.0140496 0)
(0.0763276 0.0144148 0)
(0.0550383 0.0147279 0)
(0.0332243 0.0148325 0)
(0.0113629 0.0149409 0)
(3 -2.82063e-18 0)
(3 2.89957e-16 0)
(3 5.30203e-16 0)
(3 8.39393e-16 0)
(3 7.84303e-16 0)
(3 1.6215e-15 0)
(3 1.96148e-15 0)
(3 1.85406e-15 0)
(3 9.65625e-16 0)
(3 2.86498e-16 0)
(3 -1.28812e-16 0)
(3 -3.15189e-16 0)
(3 9.06548e-17 0)
(3 3.15677e-17 0)
(3 -5.22628e-16 0)
(3 -8.7577e-16 0)
(3 -1.18164e-15 0)
(3 -7.99596e-16 0)
(3 -6.09456e-16 0)
(3 -4.78522e-16 0)
(3 -3.17129e-16 0)
(3 -4.46091e-16 0)
(3 -7.03054e-16 0)
(3 -4.2308e-16 0)
(3 -6.68028e-16 0)
(3 -1.64495e-15 0)
(3 -3.03e-15 0)
(3 -3.1728e-15 0)
(3 -2.34981e-15 0)
(3 -6.99649e-16 0)
(3 -8.19469e-17 0)
(3 -1.96599e-16 0)
(3 -3.86881e-16 0)
(3 -8.4709e-16 0)
(3 -1.62325e-15 0)
(3 -2.55346e-15 0)
(3 -3.44704e-15 0)
(3 -3.79022e-15 0)
(3 -2.37082e-15 0)
(3 -1.25697e-15 0)
(3 -4.65361e-16 0)
(3 -3.11938e-16 0)
(3 1.20965e-16 0)
(3 1.05348e-15 0)
(3 1.96359e-15 0)
(3 1.40174e-15 0)
(3 8.07778e-16 0)
(3 1.38563e-15 0)
(2.93665 0.00640881 0)
(1.03054 0.0275014 0)
(0.75693 0.0232098 0)
(0.740105 0.0249366 0)
(0.724819 0.0260767 0)
(0.7101 0.0266405 0)
(0.695151 0.0265277 0)
(0.679842 0.0262625 0)
(0.664277 0.0265083 0)
(0.648831 0.0270233 0)
(0.633942 0.0270818 0)
(0.619709 0.0268344 0)
(0.60557 0.0272858 0)
(0.590669 0.0285169 0)
(0.57459 0.0289801 0)
(0.558165 0.0279109 0)
(0.542372 0.0268093 0)
(0.527547 0.0272492 0)
(0.513404 0.0290757 0)
(0.499261 0.0304354 0)
(0.485094 0.0299534 0)
(0.470652 0.029076 0)
(0.455102 0.0290376 0)
(0.438362 0.0291575 0)
(0.421343 0.02946 0)
(0.404717 0.0304997 0)
(0.388502 0.0318572 0)
(0.372519 0.0327063 0)
(0.356643 0.0330406 0)
(0.340621 0.033386 0)
(0.324147 0.0339521 0)
(0.30714 0.0345737 0)
(0.289823 0.0350581 0)
(0.272543 0.0353252 0)
(0.25554 0.0353894 0)
(0.238849 0.0353478 0)
(0.222314 0.0353913 0)
(0.205683 0.0357058 0)
(0.188725 0.0363645 0)
(0.171285 0.037362 0)
(0.153262 0.0386058 0)
(0.134636 0.0399837 0)
(0.115453 0.0414268 0)
(0.0957417 0.0428247 0)
(0.0754812 0.0440897 0)
(0.0545974 0.045208 0)
(0.0330636 0.0456924 0)
(0.0113742 0.0462307 0)
(3 3.69935e-17 0)
(3 3.56896e-16 0)
(3 5.3586e-16 0)
(3 6.51722e-16 0)
(3 8.33909e-16 0)
(3 3.75385e-16 0)
(3 -3.0532e-16 0)
(3 -5.49781e-16 0)
(3 -6.01969e-16 0)
(3 -6.02108e-16 0)
(3 -6.83277e-16 0)
(3 -7.50605e-16 0)
(3 -9.75908e-16 0)
(3 -8.50744e-16 0)
(3 -3.61855e-16 0)
(3 -2.7313e-16 0)
(3 -6.36522e-16 0)
(3 -4.4049e-16 0)
(3 -1.32722e-15 0)
(3 -1.38952e-15 0)
(3 -1.21727e-15 0)
(3 -9.12157e-16 0)
(3 -5.66411e-16 0)
(3 -6.00627e-16 0)
(3 -9.94352e-16 0)
(3 -2.35023e-15 0)
(3 -2.35216e-15 0)
(3 -2.08453e-15 0)
(3 -1.98429e-15 0)
(3 -1.33302e-15 0)
(3 -1.33447e-15 0)
(3 -5.17984e-16 0)
(3 4.75834e-16 0)
(3 2.71073e-16 0)
(3 -7.26204e-16 0)
(3 -1.45493e-15 0)
(3 -2.48977e-15 0)
(3 -2.98893e-15 0)
(3 -3.0115e-15 0)
(3 -2.18929e-15 0)
(3 -1.15276e-15 0)
(3 -8.48715e-16 0)
(3 -3.82824e-16 0)
(3 1.62752e-16 0)
(3 1.42594e-15 0)
(3 1.42883e-15 0)
(3 1.48928e-15 0)
(3 3.56846e-16 0)
(2.95271 0.014867 0)
(1.0438 0.0485022 0)
(0.760003 0.0400129 0)
(0.74356 0.0446934 0)
(0.727411 0.0460312 0)
(0.712086 0.0466283 0)
(0.696723 0.0461472 0)
(0.681167 0.0453738 0)
(0.665535 0.045329 0)
(0.650204 0.0458715 0)
(0.635412 0.0461321 0)
(0.621001 0.0462839 0)
(0.606436 0.0475012 0)
(0.591106 0.0495371 0)
(0.574768 0.0500536 0)
(0.558325 0.0482926 0)
(0.542396 0.0466983 0)
(0.5273 0.0475194 0)
(0.513036 0.0503889 0)
(0.498781 0.0523662 0)
(0.484583 0.0514797 0)
(0.470059 0.0501558 0)
(0.45431 0.0503665 0)
(0.437268 0.0508235 0)
(0.419854 0.051313 0)
(0.402886 0.0527828 0)
(0.386457 0.0547647 0)
(0.370314 0.0560204 0)
(0.354291 0.0565277 0)
(0.338127 0.0570816 0)
(0.321548 0.0579804 0)
(0.304493 0.0589542 0)
(0.287165 0.0597181 0)
(0.269845 0.0601714 0)
(0.252705 0.0603416 0)
(0.235746 0.060354 0)
(0.218842 0.0604621 0)
(0.201816 0.0609217 0)
(0.18452 0.0618393 0)
(0.166865 0.063242 0)
(0.148798 0.0650436 0)
(0.130319 0.0671188 0)
(0.111473 0.0693996 0)
(0.0922678 0.0717371 0)
(0.0726537 0.0739796 0)
(0.0525391 0.076079 0)
(0.0318125 0.0771481 0)
(0.0109906 0.0783697 0)
(3 1.69924e-16 0)
(3 2.84677e-16 0)
(3 3.23768e-16 0)
(3 1.56644e-16 0)
(3 2.51055e-16 0)
(3 3.05573e-16 0)
(3 1.32059e-17 0)
(3 -2.09946e-17 0)
(3 -1.64172e-16 0)
(3 -5.74575e-16 0)
(3 -7.29527e-16 0)
(3 -3.03166e-16 0)
(3 -4.13953e-17 0)
(3 -5.65391e-17 0)
(3 3.12987e-17 0)
(3 4.01575e-16 0)
(3 2.33187e-16 0)
(3 -1.60427e-16 0)
(3 -1.70699e-16 0)
(3 2.18845e-16 0)
(3 1.09833e-16 0)
(3 2.09522e-16 0)
(3 3.27723e-16 0)
(3 -4.83575e-17 0)
(3 -4.98847e-16 0)
(3 -8.33078e-16 0)
(3 -3.20851e-16 0)
(3 -2.31177e-16 0)
(3 -4.38839e-16 0)
(3 -9.52156e-16 0)
(3 -1.229e-15 0)
(3 -9.76789e-16 0)
(3 -1.0711e-15 0)
(3 -1.47827e-15 0)
(3 -1.62539e-15 0)
(3 -1.30159e-15 0)
(3 -2.7621e-16 0)
(3 3.61964e-16 0)
(3 5.88094e-16 0)
(3 1.15669e-16 0)
(3 -1.46331e-16 0)
(3 -4.7272e-16 0)
(3 -3.74214e-16 0)
(3 -6.82976e-16 0)
(3 8.07229e-16 0)
(3 2.09028e-15 0)
(3 2.01425e-15 0)
(3 6.5405e-16 0)
(2.97177 -0.0029385 0)
(1.07437 0.0707527 0)
(0.765506 0.0558787 0)
(0.75049 0.0642946 0)
(0.734659 0.0662549 0)
(0.719522 0.0665518 0)
(0.704371 0.065362 0)
(0.689023 0.063851 0)
(0.673512 0.063331 0)
(0.658228 0.0638744 0)
(0.643328 0.0646851 0)
(0.628554 0.0658461 0)
(0.613529 0.0682905 0)
(0.597806 0.0711287 0)
(0.581304 0.0714945 0)
(0.564919 0.0691146 0)
(0.548861 0.067306 0)
(0.533533 0.0686555 0)
(0.519197 0.0724826 0)
(0.504825 0.0749212 0)
(0.490569 0.0736099 0)
(0.4759 0.0719376 0)
(0.459963 0.0725806 0)
(0.442704 0.0736302 0)
(0.424999 0.0743993 0)
(0.407782 0.0762068 0)
(0.391205 0.0787012 0)
(0.374921 0.0803502 0)
(0.358717 0.0810877 0)
(0.34234 0.0819137 0)
(0.325566 0.0831899 0)
(0.308361 0.0845607 0)
(0.290893 0.0856868 0)
(0.273368 0.0864869 0)
(0.255872 0.0870169 0)
(0.23836 0.0874011 0)
(0.220718 0.0878842 0)
(0.202828 0.0887077 0)
(0.18461 0.0899412 0)
(0.166043 0.0916114 0)
(0.147152 0.0936557 0)
(0.128013 0.0959907 0)
(0.108736 0.0986288 0)
(0.0893848 0.101484 0)
(0.0699414 0.104393 0)
(0.0503435 0.107327 0)
(0.0303524 0.108959 0)
(0.0105011 0.110923 0)
(3 -1.08328e-16 0)
(3 -4.28092e-16 0)
(3 -4.28587e-16 0)
(3 -2.48393e-16 0)
(3 2.38815e-16 0)
(3 1.65331e-16 0)
(3 1.71171e-17 0)
(3 1.21139e-16 0)
(3 2.82358e-16 0)
(3 1.94113e-16 0)
(3 1.38766e-16 0)
(3 1.62716e-16 0)
(3 3.23482e-16 0)
(3 3.03165e-16 0)
(3 2.26344e-16 0)
(3 4.22016e-16 0)
(3 6.06153e-16 0)
(3 3.34048e-16 0)
(3 1.2668e-16 0)
(3 -3.15838e-17 0)
(3 8.88814e-17 0)
(3 2.53106e-16 0)
(3 -1.30929e-16 0)
(3 -2.78364e-16 0)
(3 -2.22273e-16 0)
(3 1.10261e-16 0)
(3 3.15335e-16 0)
(3 3.5727e-17 0)
(3 -1.80498e-16 0)
(3 -5.54106e-16 0)
(3 -1.43314e-15 0)
(3 -2.51863e-15 0)
(3 -3.43244e-15 0)
(3 -3.71828e-15 0)
(3 -3.628e-15 0)
(3 -3.39947e-15 0)
(3 -1.44356e-15 0)
(3 -7.13842e-16 0)
(3 -3.18115e-16 0)
(3 -4.95218e-16 0)
(3 -6.72184e-16 0)
(3 -6.74903e-16 0)
(3 -5.6692e-16 0)
(3 6.06457e-17 0)
(3 4.87723e-16 0)
(3 2.14911e-16 0)
(3 4.25319e-16 0)
(3 2.62565e-15 0)
(2.99909 0.00116921 0)
(1.13264 0.0856782 0)
(0.768225 0.0700469 0)
(0.753325 0.0838052 0)
(0.737933 0.0875065 0)
(0.722964 0.0877029 0)
(0.708056 0.0858608 0)
(0.69301 0.0837056 0)
(0.677743 0.0828495 0)
(0.662561 0.0835751 0)
(0.647536 0.0851934 0)
(0.632384 0.0875861 0)
(0.616947 0.0911667 0)
(0.600959 0.0942957 0)
(0.584607 0.094104 0)
(0.568622 0.0912072 0)
(0.552795 0.0894438 0)
(0.537651 0.091379 0)
(0.523642 0.0959949 0)
(0.509484 0.0987452 0)
(0.495427 0.0970669 0)
(0.480779 0.0951362 0)
(0.464811 0.0962693 0)
(0.447486 0.0980771 0)
(0.429593 0.0991561 0)
(0.412194 0.101141 0)
(0.395504 0.10399 0)
(0.379086 0.105998 0)
(0.362665 0.106998 0)
(0.346013 0.108112 0)
(0.328969 0.109767 0)
(0.311539 0.111564 0)
(0.293876 0.113145 0)
(0.276127 0.114465 0)
(0.258318 0.115598 0)
(0.24037 0.116635 0)
(0.222186 0.117757 0)
(0.203694 0.119141 0)
(0.184853 0.120782 0)
(0.165666 0.122684 0)
(0.146181 0.124803 0)
(0.126497 0.127105 0)
(0.106776 0.129702 0)
(0.087154 0.13264 0)
(0.0676878 0.135784 0)
(0.0484197 0.139236 0)
(0.0290111 0.141248 0)
(0.0100408 0.143836 0)
(3 1.36342e-17 0)
(3 6.05001e-17 0)
(3 1.30409e-16 0)
(3 2.97321e-16 0)
(3 1.71348e-16 0)
(3 -5.39452e-16 0)
(3 -1.17956e-15 0)
(3 -1.72406e-15 0)
(3 -1.18378e-15 0)
(3 -3.77358e-16 0)
(3 -2.26661e-16 0)
(3 -7.63598e-16 0)
(3 -6.68993e-16 0)
(3 -2.65827e-16 0)
(3 -7.68281e-17 0)
(3 -1.5992e-16 0)
(3 -4.88639e-16 0)
(3 -8.31136e-16 0)
(3 -4.7443e-16 0)
(3 -3.52621e-16 0)
(3 -3.39476e-16 0)
(3 -9.00364e-16 0)
(3 -1.67427e-15 0)
(3 -1.74823e-15 0)
(3 -1.46076e-15 0)
(3 -1.06665e-15 0)
(3 -8.96314e-16 0)
(3 -5.30878e-16 0)
(3 -7.04225e-16 0)
(3 -1.10092e-15 0)
(3 -1.20858e-15 0)
(3 -1.77937e-15 0)
(3 -2.00439e-15 0)
(3 -1.27666e-15 0)
(3 -7.80922e-16 0)
(3 -5.13122e-16 0)
(3 -8.90663e-16 0)
(3 -1.15265e-15 0)
(3 -1.19229e-15 0)
(3 -1.28666e-15 0)
(3 -1.26712e-15 0)
(3 -1.05799e-15 0)
(3 -8.47943e-16 0)
(3 -2.17134e-16 0)
(3 -1.03251e-15 0)
(3 -1.88085e-15 0)
(3 -1.7877e-15 0)
(3 -3.82382e-16 0)
(3 2.87039e-06 0)
(1.23208 0.111844 0)
(0.771036 0.0889642 0)
(0.751567 0.104377 0)
(0.735928 0.109633 0)
(0.720068 0.109847 0)
(0.704514 0.10719 0)
(0.68914 0.104086 0)
(0.673836 0.102805 0)
(0.658814 0.103795 0)
(0.644023 0.106345 0)
(0.629124 0.110048 0)
(0.613983 0.114506 0)
(0.598348 0.117356 0)
(0.582667 0.116332 0)
(0.567356 0.113136 0)
(0.551962 0.111832 0)
(0.537197 0.114673 0)
(0.523608 0.120223 0)
(0.509673 0.123466 0)
(0.495796 0.121696 0)
(0.481258 0.119657 0)
(0.465501 0.121302 0)
(0.448532 0.123994 0)
(0.430945 0.125422 0)
(0.413884 0.127444 0)
(0.397602 0.130511 0)
(0.381547 0.132879 0)
(0.365335 0.134209 0)
(0.348757 0.135658 0)
(0.331729 0.137718 0)
(0.314321 0.139992 0)
(0.296708 0.142123 0)
(0.279022 0.144097 0)
(0.261249 0.146001 0)
(0.243281 0.147867 0)
(0.22502 0.149781 0)
(0.206408 0.151837 0)
(0.187403 0.153952 0)
(0.168001 0.156103 0)
(0.148224 0.15827 0)
(0.128156 0.160467 0)
(0.107968 0.162874 0)
(0.0878582 0.165703 0)
(0.0679486 0.168821 0)
(0.0484177 0.172556 0)
(0.0288816 0.174779 0)
(0.0100124 0.177859 0)
(3 -1.90548e-17 0)
(3 -6.8914e-17 0)
(3 -3.12474e-16 0)
(3 -5.54988e-16 0)
(3 -1.18691e-15 0)
(3 -1.21835e-15 0)
(3 -9.31055e-16 0)
(3 -8.14389e-16 0)
(3 -7.2275e-16 0)
(3 -4.67659e-16 0)
(3 -6.30247e-16 0)
(3 -7.44181e-16 0)
(3 -3.99535e-16 0)
(3 -3.42945e-16 0)
(3 1.76466e-16 0)
(3 5.74487e-16 0)
(3 4.1829e-16 0)
(3 4.57028e-16 0)
(3 9.08553e-16 0)
(3 4.8282e-16 0)
(3 -1.36213e-16 0)
(3 -7.57402e-16 0)
(3 -1.09528e-15 0)
(3 -1.226e-15 0)
(3 -7.3616e-16 0)
(3 -8.78875e-16 0)
(3 -9.51452e-16 0)
(3 -5.8242e-16 0)
(3 -2.93285e-16 0)
(3 -1.9178e-16 0)
(3 -9.53294e-18 0)
(3 5.52017e-17 0)
(3 3.80019e-16 0)
(3 6.84511e-16 0)
(3 4.16189e-16 0)
(3 6.70393e-16 0)
(3 5.72675e-16 0)
(3 2.80506e-17 0)
(3 -1.42289e-15 0)
(3 -1.79124e-15 0)
(3 -1.76382e-15 0)
(3 -1.74434e-15 0)
(3 -1.36613e-15 0)
(3 -1.04271e-15 0)
(3 -1.73956e-15 0)
(3 -3.14201e-15 0)
(3 -3.43619e-15 0)
(3 -4.37282e-15 0)
(3 7.4068e-09 0)
(1.39643 0.138861 0)
(0.782272 0.110737 0)
(0.754576 0.127754 0)
(0.73835 0.134033 0)
(0.721462 0.134369 0)
(0.705197 0.130855 0)
(0.689373 0.126317 0)
(0.673829 0.124107 0)
(0.658809 0.125111 0)
(0.644183 0.128539 0)
(0.629533 0.133565 0)
(0.614519 0.138669 0)
(0.598902 0.140943 0)
(0.583358 0.138995 0)
(0.568045 0.135525 0)
(0.552584 0.134768 0)
(0.537898 0.138576 0)
(0.524579 0.145077 0)
(0.510845 0.14891 0)
(0.497182 0.147191 0)
(0.482897 0.145009 0)
(0.467514 0.146991 0)
(0.451112 0.15058 0)
(0.433925 0.152467 0)
(0.417169 0.154505 0)
(0.401148 0.157777 0)
(0.385249 0.160653 0)
(0.368974 0.162521 0)
(0.352176 0.164457 0)
(0.334882 0.16702 0)
(0.317264 0.169853 0)
(0.299548 0.17261 0)
(0.281862 0.175303 0)
(0.264157 0.178023 0)
(0.246282 0.180751 0)
(0.228112 0.183482 0)
(0.209577 0.186241 0)
(0.190617 0.188892 0)
(0.171198 0.191399 0)
(0.151315 0.19375 0)
(0.131019 0.196004 0)
(0.11047 0.198348 0)
(0.0899006 0.201171 0)
(0.0694621 0.204304 0)
(0.0494524 0.208352 0)
(0.0294429 0.210798 0)
(0.0102395 0.214381 0)
(3 -1.294e-16 0)
(3 -2.26232e-16 0)
(3 -4.49594e-16 0)
(3 -7.17353e-16 0)
(3 -4.74547e-16 0)
(3 -5.98807e-16 0)
(3 -1.79021e-16 0)
(3 2.69921e-17 0)
(3 -2.7024e-16 0)
(3 -4.65262e-16 0)
(3 -4.37613e-16 0)
(3 -1.2317e-15 0)
(3 -1.54087e-15 0)
(3 -1.7946e-15 0)
(3 -1.1206e-15 0)
(3 -1.09904e-15 0)
(3 2.02332e-16 0)
(3 4.11249e-16 0)
(3 2.12385e-16 0)
(3 3.02217e-16 0)
(3 -7.02163e-17 0)
(3 -8.70272e-16 0)
(3 -1.1206e-15 0)
(3 -6.12131e-16 0)
(3 1.39098e-16 0)
(3 1.72701e-17 0)
(3 -2.28281e-16 0)
(3 -9.87049e-16 0)
(3 -9.1213e-16 0)
(3 -3.02289e-16 0)
(3 -5.8998e-17 0)
(3 3.25981e-16 0)
(3 7.3935e-16 0)
(3 5.81697e-16 0)
(3 -5.25558e-16 0)
(3 -1.07945e-15 0)
(3 -1.48034e-15 0)
(3 -2.11131e-15 0)
(3 -1.69692e-15 0)
(3 -9.50488e-16 0)
(3 -4.62626e-16 0)
(3 1.43284e-15 0)
(3 1.99116e-15 0)
(3 1.13136e-15 0)
(3 4.89358e-16 0)
(3 -9.61487e-16 0)
(3 -1.16943e-15 0)
(3 -1.26156e-15 0)
(3 1.67713e-11 0)
(1.64828 0.160546 0)
(0.802926 0.134149 0)
(0.759373 0.154287 0)
(0.74232 0.160272 0)
(0.725149 0.160198 0)
(0.708591 0.155953 0)
(0.692329 0.150129 0)
(0.676256 0.146718 0)
(0.660882 0.147468 0)
(0.646292 0.15164 0)
(0.632051 0.157926 0)
(0.617346 0.16361 0)
(0.601861 0.165448 0)
(0.586332 0.162849 0)
(0.570806 0.159052 0)
(0.555132 0.158552 0)
(0.540453 0.163056 0)
(0.527427 0.170395 0)
(0.513943 0.174934 0)
(0.500421 0.173527 0)
(0.486369 0.17117 0)
(0.471343 0.173291 0)
(0.455616 0.177784 0)
(0.438934 0.180401 0)
(0.422561 0.182567 0)
(0.406903 0.186075 0)
(0.39133 0.189594 0)
(0.375183 0.192186 0)
(0.358348 0.194739 0)
(0.340935 0.197892 0)
(0.323193 0.201377 0)
(0.305374 0.204868 0)
(0.287589 0.208371 0)
(0.269753 0.211969 0)
(0.251683 0.215598 0)
(0.23324 0.219176 0)
(0.214368 0.222685 0)
(0.195017 0.225962 0)
(0.175163 0.228962 0)
(0.154805 0.231668 0)
(0.134008 0.234165 0)
(0.112924 0.236587 0)
(0.0918207 0.239501 0)
(0.0708535 0.242661 0)
(0.0504063 0.247027 0)
(0.0299703 0.249701 0)
(0.0104347 0.253782 0)
(3 2.29735e-16 0)
(3 4.13886e-16 0)
(3 8.42574e-16 0)
(3 8.80687e-16 0)
(3 1.02566e-15 0)
(3 1.18574e-15 0)
(3 1.25436e-15 0)
(3 1.33674e-15 0)
(3 1.28919e-15 0)
(3 1.10467e-15 0)
(3 1.02905e-15 0)
(3 5.63791e-16 0)
(3 -6.55231e-17 0)
(3 -1.15401e-15 0)
(3 -1.80573e-15 0)
(3 -2.90199e-15 0)
(3 -1.48343e-15 0)
(3 -1.31473e-15 0)
(3 -1.60396e-15 0)
(3 -1.66937e-15 0)
(3 -1.987e-15 0)
(3 -2.29341e-15 0)
(3 -2.30381e-15 0)
(3 -2.07974e-15 0)
(3 -1.82027e-15 0)
(3 -1.46001e-15 0)
(3 -1.58209e-15 0)
(3 -2.03854e-15 0)
(3 -2.8019e-15 0)
(3 -2.48118e-15 0)
(3 -2.06787e-15 0)
(3 -1.50369e-15 0)
(3 -1.23729e-15 0)
(3 -1.73834e-15 0)
(3 -1.64028e-15 0)
(3 -2.89879e-15 0)
(3 -3.52931e-15 0)
(3 -3.9617e-15 0)
(3 -1.56162e-15 0)
(3 -4.50078e-16 0)
(3 7.45749e-16 0)
(3 1.67408e-15 0)
(3 1.47939e-15 0)
(3 1.48196e-15 0)
(3 1.54117e-15 0)
(3 1.14074e-15 0)
(3 1.43684e-15 0)
(3 6.42887e-16 0)
(3 3.71739e-14 0)
(1.99608 0.17622 0)
(0.832436 0.168957 0)
(0.753896 0.184252 0)
(0.738212 0.187607 0)
(0.723424 0.187828 0)
(0.708506 0.1839 0)
(0.693273 0.177403 0)
(0.677549 0.172643 0)
(0.662121 0.172499 0)
(0.647676 0.176786 0)
(0.634041 0.183891 0)
(0.619972 0.190166 0)
(0.604919 0.192088 0)
(0.589475 0.18942 0)
(0.573712 0.185291 0)
(0.557658 0.184442 0)
(0.54265 0.188957 0)
(0.529607 0.196805 0)
(0.516169 0.20216 0)
(0.502406 0.201423 0)
(0.488248 0.198813 0)
(0.473221 0.200712 0)
(0.457996 0.205947 0)
(0.441759 0.209531 0)
(0.425698 0.211887 0)
(0.41038 0.215527 0)
(0.395275 0.219676 0)
(0.379549 0.223084 0)
(0.363089 0.226335 0)
(0.346075 0.230146 0)
(0.328791 0.234371 0)
(0.311479 0.238702 0)
(0.29421 0.243111 0)
(0.276848 0.247649 0)
(0.259159 0.252227 0)
(0.240961 0.256715 0)
(0.222175 0.261086 0)
(0.202728 0.265174 0)
(0.182598 0.268929 0)
(0.161793 0.272292 0)
(0.140401 0.275354 0)
(0.118572 0.278145 0)
(0.096611 0.281368 0)
(0.0746641 0.284654 0)
(0.0532175 0.289408 0)
(0.0316768 0.292357 0)
(0.0110486 0.296966 0)
(3 7.56861e-17 0)
(3 -3.22285e-17 0)
(3 9.42851e-18 0)
(3 8.3088e-17 0)
(3 1.29906e-16 0)
(3 4.93417e-16 0)
(3 9.11261e-16 0)
(3 8.64903e-16 0)
(3 7.66357e-16 0)
(3 8.97645e-16 0)
(3 9.76784e-16 0)
(3 1.13374e-15 0)
(3 1.07138e-15 0)
(3 9.06638e-17 0)
(3 -1.03521e-15 0)
(3 -1.11955e-15 0)
(3 -1.33825e-15 0)
(3 -1.22296e-15 0)
(3 -1.66099e-15 0)
(3 -2.15383e-15 0)
(3 -2.09212e-15 0)
(3 -1.3783e-15 0)
(3 -1.07445e-15 0)
(3 -1.6158e-15 0)
(3 -2.21528e-15 0)
(3 -2.24735e-15 0)
(3 -1.6407e-15 0)
(3 -1.17182e-15 0)
(3 -1.07502e-15 0)
(3 -8.03934e-16 0)
(3 -1.49516e-15 0)
(3 -2.32636e-15 0)
(3 -3.19136e-15 0)
(3 -3.0226e-15 0)
(3 -1.3774e-15 0)
(3 -3.3783e-16 0)
(3 4.3104e-16 0)
(3 4.52466e-16 0)
(3 4.59409e-16 0)
(3 5.20667e-16 0)
(3 6.49062e-16 0)
(3 3.82674e-16 0)
(3 -6.23841e-16 0)
(3 -1.90304e-15 0)
(3 -6.38e-16 0)
(3 1.17985e-15 0)
(3 1.40733e-15 0)
(3 8.66124e-16 0)
(3 1.50549e-15 0)
(2.47008 0.171679 0)
(0.910203 0.21369 0)
(0.768525 0.21197 0)
(0.756248 0.209987 0)
(0.743247 0.211666 0)
(0.729689 0.209214 0)
(0.714644 0.204019 0)
(0.698372 0.199246 0)
(0.681648 0.198524 0)
(0.665797 0.202683 0)
(0.651309 0.210205 0)
(0.636945 0.21716 0)
(0.62172 0.219966 0)
(0.605834 0.218269 0)
(0.589375 0.214442 0)
(0.5724 0.213083 0)
(0.556245 0.217042 0)
(0.542254 0.225006 0)
(0.528272 0.231403 0)
(0.513518 0.232039 0)
(0.498419 0.229381 0)
(0.482508 0.230655 0)
(0.466882 0.236214 0)
(0.450395 0.240894 0)
(0.433814 0.243538 0)
(0.417927 0.247092 0)
(0.402468 0.251652 0)
(0.386525 0.255837 0)
(0.369874 0.259785 0)
(0.352734 0.264234 0)
(0.335391 0.269202 0)
(0.318054 0.27442 0)
(0.300748 0.279816 0)
(0.283309 0.285408 0)
(0.26548 0.291092 0)
(0.247056 0.296707 0)
(0.227951 0.302219 0)
(0.208098 0.307455 0)
(0.187503 0.312346 0)
(0.166201 0.316748 0)
(0.144315 0.320734 0)
(0.121965 0.324189 0)
(0.0994591 0.327914 0)
(0.076889 0.331328 0)
(0.054855 0.336429 0)
(0.0326755 0.339638 0)
(0.0113829 0.344774 0)
(3 -2.40709e-16 0)
(3 -3.23304e-16 0)
(3 -6.50293e-16 0)
(3 -3.87753e-16 0)
(3 -3.28593e-16 0)
(3 -3.96079e-16 0)
(3 -3.41045e-16 0)
(3 -4.04179e-16 0)
(3 -7.43365e-16 0)
(3 -8.05912e-16 0)
(3 -6.66297e-16 0)
(3 1.35249e-16 0)
(3 3.63482e-16 0)
(3 -2.65981e-16 0)
(3 -8.94972e-16 0)
(3 -1.18055e-15 0)
(3 -1.34913e-15 0)
(3 -1.45797e-15 0)
(3 -1.02878e-15 0)
(3 -9.07575e-16 0)
(3 -1.55721e-16 0)
(3 8.08476e-16 0)
(3 9.28799e-16 0)
(3 8.06977e-16 0)
(3 4.76852e-17 0)
(3 -5.45016e-16 0)
(3 -6.9429e-16 0)
(3 -9.68783e-16 0)
(3 -9.92418e-16 0)
(3 -1.06247e-15 0)
(3 -1.12852e-15 0)
(3 -1.43839e-15 0)
(3 -2.4856e-15 0)
(3 -1.31051e-15 0)
(3 -9.06166e-16 0)
(3 -4.08849e-16 0)
(3 2.18971e-16 0)
(3 2.95288e-16 0)
(3 4.0248e-16 0)
(3 3.54207e-16 0)
(3 -6.19935e-16 0)
(3 -1.16634e-15 0)
(3 -8.60226e-16 0)
(3 -7.32292e-16 0)
(3 -8.8463e-16 0)
(3 -6.74287e-16 0)
(3 -8.36121e-16 0)
(3 -8.257e-16 0)
(3 -6.94376e-16 0)
(2.91677 0.0668843 0)
(1.04439 0.246489 0)
(0.79202 0.227247 0)
(0.784038 0.22408 0)
(0.77193 0.228253 0)
(0.759214 0.229515 0)
(0.744803 0.228133 0)
(0.72876 0.225739 0)
(0.711609 0.225418 0)
(0.694692 0.229064 0)
(0.679103 0.236054 0)
(0.664242 0.243146 0)
(0.648943 0.247106 0)
(0.632907 0.247161 0)
(0.616135 0.244582 0)
(0.598655 0.243026 0)
(0.581452 0.246005 0)
(0.566167 0.253594 0)
(0.551585 0.261294 0)
(0.535939 0.264329 0)
(0.519772 0.262494 0)
(0.502849 0.262946 0)
(0.486363 0.268367 0)
(0.469427 0.274324 0)
(0.451978 0.27776 0)
(0.435018 0.281275 0)
(0.41867 0.286079 0)
(0.402159 0.291027 0)
(0.385051 0.295716 0)
(0.367529 0.30076 0)
(0.34986 0.306375 0)
(0.332225 0.312384 0)
(0.314642 0.31868 0)
(0.296975 0.325243 0)
(0.278984 0.33196 0)
(0.260436 0.338657 0)
(0.241203 0.345327 0)
(0.221146 0.35184 0)
(0.2002 0.358163 0)
(0.178326 0.364078 0)
(0.155631 0.369636 0)
(0.132165 0.374485 0)
(0.108263 0.379384 0)
(0.0839425 0.38335 0)
(0.060019 0.388981 0)
(0.0358148 0.392523 0)
(0.0124619 0.398272 0)
(3 -9.99845e-17 0)
(3 -2.87114e-16 0)
(3 -5.75612e-16 0)
(3 -6.01567e-16 0)
(3 -5.95275e-16 0)
(3 -5.25425e-16 0)
(3 -6.57057e-16 0)
(3 -6.55135e-16 0)
(3 -7.01419e-16 0)
(3 -7.50559e-16 0)
(3 -6.37929e-16 0)
(3 -1.0447e-15 0)
(3 -8.13743e-16 0)
(3 1.76452e-16 0)
(3 1.80927e-16 0)
(3 -3.89062e-16 0)
(3 -1.22854e-16 0)
(3 -1.23541e-16 0)
(3 2.04876e-16 0)
(3 4.92987e-16 0)
(3 5.02728e-16 0)
(3 3.97292e-16 0)
(3 5.36028e-16 0)
(3 6.89791e-16 0)
(3 4.20849e-16 0)
(3 -4.38577e-17 0)
(3 -2.45231e-16 0)
(3 -4.82432e-16 0)
(3 -4.35221e-16 0)
(3 -1.22339e-15 0)
(3 -8.06587e-16 0)
(3 -3.09501e-16 0)
(3 -1.27085e-16 0)
(3 -3.36335e-16 0)
(3 -1.33777e-15 0)
(3 -1.72347e-15 0)
(3 -1.68869e-15 0)
(3 -1.84349e-15 0)
(3 -1.98846e-15 0)
(3 -1.93862e-15 0)
(3 -2.40066e-15 0)
(3 -2.84132e-15 0)
(3 -2.05279e-15 0)
(3 -1.17183e-15 0)
(3 -1.39418e-15 0)
(3 -1.70389e-15 0)
(3 -2.21718e-15 0)
(3 -2.61926e-15 0)
(3 -2.80406e-15 0)
(3.00613 0.0021868 0)
(1.25276 0.264533 0)
(0.80381 0.229214 0)
(0.790339 0.250708 0)
(0.77505 0.2585 0)
(0.7609 0.260304 0)
(0.747529 0.259936 0)
(0.733634 0.259236 0)
(0.718849 0.259858 0)
(0.703764 0.263117 0)
(0.68932 0.268889 0)
(0.675649 0.275133 0)
(0.662012 0.279335 0)
(0.647928 0.280501 0)
(0.633173 0.279242 0)
(0.61756 0.277998 0)
(0.601553 0.279907 0)
(0.586618 0.286253 0)
(0.57283 0.294451 0)
(0.558074 0.299756 0)
(0.54225 0.299754 0)
(0.525466 0.299654 0)
(0.508689 0.304406 0)
(0.491904 0.311401 0)
(0.474155 0.316261 0)
(0.456427 0.32006 0)
(0.439284 0.324944 0)
(0.422363 0.330509 0)
(0.405022 0.335986 0)
(0.387241 0.341647 0)
(0.369196 0.347854 0)
(0.351019 0.354581 0)
(0.332721 0.361741 0)
(0.314205 0.369316 0)
(0.295287 0.377211 0)
(0.275723 0.385259 0)
(0.255374 0.393467 0)
(0.234101 0.401808 0)
(0.211857 0.410227 0)
(0.18866 0.418339 0)
(0.16479 0.42612 0)
(0.140213 0.432921 0)
(0.115221 0.439448 0)
(0.0896109 0.444286 0)
(0.0641098 0.450327 0)
(0.0381678 0.453963 0)
(0.0131547 0.460059 0)
(3 -1.47954e-18 0)
(3 -5.82319e-17 0)
(3 -1.36297e-16 0)
(3 -4.47785e-16 0)
(3 -6.38353e-16 0)
(3 -6.19047e-16 0)
(3 -6.6074e-16 0)
(3 -5.43246e-16 0)
(3 -3.52205e-16 0)
(3 -3.20726e-16 0)
(3 -3.93171e-16 0)
(3 -8.31641e-16 0)
(3 -8.56696e-16 0)
(3 -3.4413e-16 0)
(3 6.92415e-16 0)
(3 8.54412e-16 0)
(3 5.65976e-16 0)
(3 -9.99394e-17 0)
(3 -5.12974e-16 0)
(3 -8.90247e-16 0)
(3 -6.9176e-16 0)
(3 -7.41911e-16 0)
(3 -6.82077e-16 0)
(3 -1.04415e-15 0)
(3 -1.07805e-15 0)
(3 -8.24289e-16 0)
(3 -3.79181e-16 0)
(3 7.1131e-16 0)
(3 8.23276e-16 0)
(3 4.1952e-16 0)
(3 -6.05524e-16 0)
(3 -6.58194e-16 0)
(3 -3.99957e-16 0)
(3 -1.47383e-15 0)
(3 -2.10648e-15 0)
(3 -2.26927e-15 0)
(3 -2.40618e-15 0)
(3 -1.78499e-15 0)
(3 -1.5824e-15 0)
(3 -1.83261e-15 0)
(3 -2.17568e-15 0)
(3 -2.42639e-15 0)
(3 -2.60159e-15 0)
(3 -2.80295e-15 0)
(3 -2.79355e-15 0)
(3 -3.06327e-15 0)
(3 -2.17509e-15 0)
(3 -1.87262e-15 0)
(3 -1.218e-15 0)
(3.00003 3.43113e-06 0)
(1.76496 0.308155 0)
(0.833343 0.280372 0)
(0.772579 0.283295 0)
(0.759987 0.284616 0)
(0.748847 0.283474 0)
(0.737862 0.28288 0)
(0.726074 0.28358 0)
(0.713477 0.286073 0)
(0.70048 0.290417 0)
(0.687745 0.296054 0)
(0.675639 0.301674 0)
(0.663987 0.305928 0)
(0.652347 0.308233 0)
(0.640284 0.308859 0)
(0.627468 0.309193 0)
(0.613967 0.311429 0)
(0.600638 0.317189 0)
(0.588386 0.325796 0)
(0.575807 0.333501 0)
(0.561805 0.336689 0)
(0.546735 0.337319 0)
(0.531197 0.341362 0)
(0.515905 0.348801 0)
(0.499565 0.355518 0)
(0.48258 0.360323 0)
(0.465814 0.365403 0)
(0.449394 0.371486 0)
(0.432699 0.377979 0)
(0.415392 0.384682 0)
(0.39753 0.391894 0)
(0.379183 0.399669 0)
(0.36045 0.408049 0)
(0.341336 0.416975 0)
(0.321793 0.426329 0)
(0.301772 0.436008 0)
(0.280892 0.445904 0)
(0.259522 0.456073 0)
(0.237153 0.466482 0)
(0.213709 0.476688 0)
(0.18927 0.48681 0)
(0.163478 0.496251 0)
(0.136459 0.506099 0)
(0.10738 0.514501 0)
(0.0771664 0.522868 0)
(0.0458533 0.527601 0)
(0.0154949 0.53377 0)
(3 3.50392e-17 0)
(3 1.80844e-17 0)
(3 1.73158e-16 0)
(3 3.43518e-16 0)
(3 4.08528e-16 0)
(3 3.2029e-16 0)
(3 3.17162e-16 0)
(3 4.37712e-16 0)
(3 9.07839e-16 0)
(3 9.44039e-16 0)
(3 6.9348e-16 0)
(3 2.15984e-16 0)
(3 9.76752e-17 0)
(3 1.26393e-16 0)
(3 3.87175e-16 0)
(3 5.71946e-16 0)
(3 -3.69418e-16 0)
(3 -9.0699e-16 0)
(3 -1.3894e-15 0)
(3 -1.70577e-15 0)
(3 -1.82332e-15 0)
(3 -1.96151e-15 0)
(3 -2.295e-15 0)
(3 -2.61303e-15 0)
(3 -2.55808e-15 0)
(3 -2.30977e-15 0)
(3 -1.30878e-15 0)
(3 -1.0242e-15 0)
(3 -4.92176e-16 0)
(3 -1.21436e-16 0)
(3 -3.7265e-16 0)
(3 -4.89819e-16 0)
(3 -4.03138e-16 0)
(3 1.58898e-16 0)
(3 4.39342e-16 0)
(3 4.62356e-16 0)
(3 4.62254e-16 0)
(3 6.3597e-16 0)
(3 6.44818e-16 0)
(3 5.32388e-16 0)
(3 6.57413e-16 0)
(3 5.88526e-16 0)
(3 2.88296e-17 0)
(3 -7.61431e-16 0)
(3 -1.38861e-15 0)
(3 -1.09058e-15 0)
(3 -8.05748e-16 0)
(3 -9.40405e-17 0)
(3 5.24168e-16 0)
(3 7.38893e-09 0)
(2.65883 0.20955 0)
(0.980997 0.341346 0)
(0.797556 0.322353 0)
(0.784297 0.311934 0)
(0.766592 0.312329 0)
(0.751444 0.312059 0)
(0.736794 0.313154 0)
(0.722936 0.315927 0)
(0.709738 0.32025 0)
(0.6971 0.325325 0)
(0.684869 0.330021 0)
(0.672967 0.333653 0)
(0.661277 0.336225 0)
(0.649521 0.337997 0)
(0.637407 0.33965 0)
(0.624839 0.34254 0)
(0.612169 0.348085 0)
(0.600278 0.356646 0)
(0.589062 0.366 0)
(0.576955 0.372405 0)
(0.563805 0.375002 0)
(0.550035 0.378841 0)
(0.536485 0.386282 0)
(0.522433 0.394906 0)
(0.507213 0.401971 0)
(0.491592 0.408358 0)
(0.476087 0.415536 0)
(0.460532 0.423614 0)
(0.444355 0.43209 0)
(0.427449 0.441043 0)
(0.409695 0.450402 0)
(0.391287 0.46036 0)
(0.372257 0.470846 0)
(0.352543 0.481964 0)
(0.332172 0.493485 0)
(0.311109 0.505626 0)
(0.288923 0.518429 0)
(0.265232 0.532219 0)
(0.239533 0.546589 0)
(0.21199 0.561802 0)
(0.182436 0.577034 0)
(0.151813 0.592727 0)
(0.120314 0.607143 0)
(0.0878139 0.618865 0)
(0.0536938 0.625692 0)
(0.0171986 0.62993 0)
(3 9.25077e-17 0)
(3 3.54312e-17 0)
(3 -1.62702e-16 0)
(3 2.11687e-17 0)
(3 3.19848e-16 0)
(3 3.87062e-16 0)
(3 5.72211e-16 0)
(3 6.00909e-16 0)
(3 6.32476e-16 0)
(3 1.11838e-15 0)
(3 1.18139e-15 0)
(3 1.06663e-15 0)
(3 9.10175e-16 0)
(3 8.11315e-16 0)
(3 1.01584e-15 0)
(3 1.09473e-15 0)
(3 1.82686e-15 0)
(3 1.84433e-15 0)
(3 1.1832e-15 0)
(3 7.11694e-16 0)
(3 4.32478e-17 0)
(3 -5.53235e-16 0)
(3 -1.45953e-15 0)
(3 -1.61224e-15 0)
(3 -2.49957e-15 0)
(3 -2.25532e-15 0)
(3 -1.47072e-15 0)
(3 -1.02561e-15 0)
(3 -6.44441e-16 0)
(3 -4.23566e-16 0)
(3 1.04966e-15 0)
(3 1.8022e-15 0)
(3 2.373e-15 0)
(3 2.64738e-15 0)
(3 2.35914e-15 0)
(3 2.36989e-15 0)
(3 3.52064e-15 0)
(3 3.43173e-15 0)
(3 2.34001e-15 0)
(3 2.36305e-15 0)
(3 2.39578e-15 0)
(3 2.14782e-15 0)
(3 1.12769e-15 0)
(3 7.33498e-16 0)
(3 7.12444e-16 0)
(3 7.62428e-16 0)
(3 6.27252e-16 0)
(3 5.37613e-16 0)
(3 -1.1576e-16 0)
(3 -2.91562e-11 0)
(3.02068 0.006833 0)
(1.40186 0.388715 0)
(0.848066 0.328861 0)
(0.82224 0.344011 0)
(0.803283 0.345573 0)
(0.785962 0.344107 0)
(0.769155 0.342903 0)
(0.753449 0.343397 0)
(0.738909 0.34627 0)
(0.725328 0.350769 0)
(0.712181 0.355621 0)
(0.699127 0.359934 0)
(0.686148 0.363543 0)
(0.673279 0.366585 0)
(0.660463 0.369372 0)
(0.647626 0.372746 0)
(0.634831 0.377903 0)
(0.62258 0.385717 0)
(0.611383 0.395364 0)
(0.600227 0.403852 0)
(0.588268 0.40891 0)
(0.575777 0.413029 0)
(0.563416 0.419946 0)
(0.551236 0.429523 0)
(0.538145 0.439329 0)
(0.52414 0.448213 0)
(0.50983 0.457175 0)
(0.495668 0.467078 0)
(0.48118 0.477714 0)
(0.466086 0.489017 0)
(0.449987 0.500699 0)
(0.432867 0.512938 0)
(0.414776 0.525716 0)
(0.396218 0.539603 0)
(0.376709 0.554313 0)
(0.3567 0.570275 0)
(0.335612 0.587418 0)
(0.313293 0.606159 0)
(0.289266 0.626158 0)
(0.263521 0.647036 0)
(0.236141 0.667503 0)
(0.206852 0.686094 0)
(0.175964 0.704655 0)
(0.139751 0.725753 0)
(0.0947593 0.74984 0)
(0.0362916 0.770159 0)
(3 5.77538e-17 0)
(3 9.06933e-17 0)
(3 1.90462e-16 0)