/*--------------------------------*- C++ -*----------------------------------*\
  =========                 |
  \\      /  F ield         | OpenFOAM: The Open Source CFD Toolbox
   \\    /   O peration     | Website:  https://openfoam.org
    \\  /    A nd           | Version:  7
     \\/     M anipulation  |
\*---------------------------------------------------------------------------*/
FoamFile
{
    version     2.0;
    format      ascii;
    class       volScalarField;
    location    "6.7";
    object      rho;
}
// * * * * * * * * * * * * * * * * * * * * * * * * * * * * * * * * * * * * * //

dimensions      [1 -3 0 0 0 0 0];

internalField   nonuniform List<scalar> 
19968
(
1.40001
1.40001
1.40001
1.40001
1.40001
1.40001
1.40001
1.40001
1.40001
1.40001
1.40001
1.40001
1.40001
1.40001
1.40001
1.40001
1.40001
1.40001
1.40001
1.40001
1.40001
1.40001
1.40001
1.40001
1.40001
1.40001
1.40001
1.40001
1.40001
1.40001
1.40001
1.40001
1.40001
1.40001
1.40001
1.40001
1.40001
1.40001
1.40001
1.40001
1.40001
1.40001
1.40001
1.40001
1.40001
1.40001
1.40001
1.40001
1.72928
4.59725
5.41798
5.43291
5.46166
5.48424
5.50477
5.52265
5.54048
5.55951
5.57977
5.60083
5.62231
5.64355
5.66314
5.68023
5.69596
5.71217
5.72944
5.74697
5.76385
5.77949
5.79384
5.80735
5.82079
5.83469
5.84901
5.86318
5.87647
5.88856
5.89962
5.91009
5.92042
5.93094
5.94176
5.95271
5.96338
5.97305
5.98098
5.98673
5.99046
5.99291
5.99519
5.9983
6.00258
6.00747
6.01197
6.01561
1.40001
1.40001
1.40001
1.40001
1.40001
1.40001
1.40001
1.40001
1.40001
1.40001
1.40001
1.40001
1.40001
1.40001
1.40001
1.40001
1.40001
1.40001
1.40001
1.40001
1.40001
1.40001
1.40001
1.40001
1.40001
1.40001
1.40001
1.40001
1.40001
1.40001
1.40001
1.40001
1.40001
1.40001
1.40001
1.40001
1.40001
1.40001
1.40001
1.40001
1.40001
1.40001
1.40001
1.40001
1.40001
1.40001
1.40001
1.40001
1.70868
4.56662
5.41295
5.4353
5.46234
5.48443
5.50416
5.52178
5.53961
5.55875
5.579
5.60008
5.62152
5.64261
5.66211
5.67925
5.69515
5.71138
5.72859
5.74607
5.76299
5.77875
5.79319
5.80673
5.8201
5.83386
5.848
5.86193
5.87497
5.88683
5.89771
5.90811
5.91848
5.92909
5.94
5.95098
5.96158
5.97111
5.9789
5.98456
5.98829
5.99081
5.99318
5.99629
6.00042
6.00504
6.00925
6.01266
1.40001
1.40001
1.40001
1.40001
1.40001
1.40001
1.40001
1.40001
1.40001
1.40001
1.40001
1.40001
1.40001
1.40001
1.40001
1.40001
1.40001
1.40001
1.40001
1.40001
1.40001
1.40001
1.40001
1.40001
1.40001
1.40001
1.40001
1.40001
1.40001
1.40001
1.40001
1.40001
1.40001
1.40001
1.40001
1.40001
1.40001
1.40001
1.40001
1.40001
1.40001
1.40001
1.40001
1.40001
1.40001
1.40001
1.40001
1.40001
1.6653
4.50788
5.41436
5.43308
5.45932
5.48083
5.50067
5.51912
5.53772
5.55716
5.57721
5.59801
5.61915
5.63998
5.65952
5.67687
5.6931
5.70938
5.7265
5.74385
5.76077
5.77665
5.79125
5.80489
5.81826
5.83191
5.84582
5.85946
5.87216
5.88368
5.89429
5.90453
5.91489
5.92563
5.9367
5.94778
5.95835
5.96774
5.97538
5.98102
5.98489
5.98766
5.99022
5.99333
5.99723
6.00144
6.0052
6.00823
1.40001
1.40001
1.40001
1.40001
1.40001
1.40001
1.40001
1.40001
1.40001
1.40001
1.40001
1.40001
1.40001
1.40001
1.40001
1.40001
1.40001
1.40001
1.40001
1.40001
1.40001
1.40001
1.40001
1.40001
1.40001
1.40001
1.40001
1.40001
1.40001
1.40001
1.40001
1.40001
1.40001
1.40001
1.40001
1.40001
1.40001
1.40001
1.40001
1.40001
1.40001
1.40001
1.40001
1.40001
1.40001
1.40001
1.40001
1.40001
1.60542
4.414
5.41345
5.42992
5.45366
5.47525
5.49628
5.51619
5.53574
5.55543
5.57513
5.59534
5.61589
5.63636
5.65602
5.67369
5.69027
5.70656
5.72347
5.74056
5.75739
5.77332
5.78807
5.80184
5.81526
5.82882
5.84249
5.85572
5.86794
5.879
5.88923
5.89925
5.90957
5.9204
5.93158
5.94266
5.95304
5.96211
5.96944
5.97494
5.97891
5.98195
5.98481
5.98807
5.99186
5.99573
5.99902
6.0017
1.40001
1.40001
1.40001
1.40001
1.40001
1.40001
1.40001
1.40001
1.40001
1.40001
1.40001
1.40001
1.40001
1.40001
1.40001
1.40001
1.40001
1.40001
1.40001
1.40001
1.40001
1.40001
1.40001
1.40001
1.40001
1.40001
1.40001
1.40001
1.40001
1.40001
1.40001
1.40001
1.40001
1.40001
1.40001
1.40001
1.40001
1.40001
1.40001
1.40001
1.40001
1.40001
1.40001
1.40001
1.40001
1.40001
1.40001
1.40001
1.53043
4.29117
5.41726
5.42731
5.4489
5.47099
5.49293
5.51372
5.5336
5.55299
5.5719
5.59126
5.61123
5.63134
5.65112
5.66921
5.68632
5.70277
5.71949
5.73621
5.75278
5.76864
5.78351
5.79747
5.81104
5.82461
5.83809
5.85096
5.86272
5.87333
5.8832
5.893
5.90327
5.91421
5.92556
5.93675
5.94704
5.9558
5.96273
5.9679
5.97166
5.97461
5.97736
5.98037
5.98368
5.98689
5.98946
5.99161
1.40001
1.40001
1.40001
1.40001
1.40001
1.40001
1.40001
1.40001
1.40001
1.40001
1.40001
1.40001
1.40001
1.40001
1.40001
1.40001
1.40001
1.40001
1.40001
1.40001
1.40001
1.40001
1.40001
1.40001
1.40001
1.40001
1.40001
1.40001
1.40001
1.40001
1.40001
1.40001
1.40001
1.40001
1.40001
1.40001
1.40001
1.40001
1.40001
1.40001
1.40001
1.40001
1.40001
1.40001
1.40001
1.40001
1.40001
1.40001
1.40735
4.09235
5.41901
5.42874
5.44525
5.46783
5.49019
5.51198
5.53238
5.55146
5.56944
5.58782
5.60704
5.62644
5.64585
5.66411
5.68162
5.69813
5.71433
5.73013
5.74588
5.76123
5.77597
5.78996
5.80351
5.81691
5.83003
5.84242
5.85367
5.8638
5.87326
5.88274
5.89281
5.9037
5.91513
5.92645
5.93681
5.94552
5.95235
5.95746
5.96129
5.96444
5.96745
5.9706
5.9738
5.97668
5.97877
5.98063
1.40001
1.40001
1.40001
1.40001
1.40001
1.40001
1.40001
1.40001
1.40001
1.40001
1.40001
1.40001
1.40001
1.40001
1.40001
1.40001
1.40001
1.40001
1.40001
1.40001
1.40001
1.40001
1.40001
1.40001
1.40001
1.40001
1.40001
1.40001
1.40001
1.40001
1.40001
1.40001
1.40001
1.40001
1.40001
1.40001
1.40001
1.40001
1.40001
1.40001
1.40001
1.40001
1.40001
1.40001
1.40001
1.40001
1.40001
1.40001
1.40005
3.79088
5.37863
5.41062
5.42778
5.45281
5.47596
5.49892
5.52015
5.53947
5.55732
5.57511
5.59375
5.61271
5.63184
5.65026
5.66813
5.68484
5.70077
5.71597
5.73126
5.74643
5.76136
5.77568
5.78953
5.80306
5.81613
5.82839
5.83954
5.84963
5.85905
5.86841
5.8783
5.88904
5.90049
5.91198
5.92256
5.93139
5.93819
5.94315
5.94686
5.94995
5.95299
5.95616
5.95927
5.96199
5.9638
5.9656
1.40001
1.40001
1.40001
1.40001
1.40001
1.40001
1.40001
1.40001
1.40001
1.40001
1.40001
1.40001
1.40001
1.40001
1.40001
1.40001
1.40001
1.40001
1.40001
1.40001
1.40001
1.40001
1.40001
1.40001
1.40001
1.40001
1.40001
1.40001
1.40001
1.40001
1.40001
1.40001
1.40001
1.40001
1.40001
1.40001
1.40001
1.40001
1.40001
1.40001
1.40001
1.40001
1.40001
1.40001
1.40001
1.40001
1.40001
1.40001
1.40001
3.39709
5.32338
5.40231
5.42062
5.44666
5.46927
5.49183
5.51281
5.53215
5.55028
5.56766
5.5854
5.60348
5.62179
5.63963
5.65699
5.67325
5.68859
5.70307
5.71777
5.73259
5.74742
5.76174
5.77548
5.78872
5.80137
5.81321
5.82406
5.834
5.84331
5.85245
5.86199
5.87236
5.88359
5.89505
5.90569
5.91456
5.92122
5.92591
5.92928
5.93209
5.93497
5.93804
5.94109
5.94383
5.94558
5.94755
1.40001
1.40001
1.40001
1.40001
1.40001
1.40001
1.40001
1.40001
1.40001
1.40001
1.40001
1.40001
1.40001
1.40001
1.40001
1.40001
1.40001
1.40001
1.40001
1.40001
1.40001
1.40001
1.40001
1.40001
1.40001
1.40001
1.40001
1.40001
1.40001
1.40001
1.40001
1.40001
1.40001
1.40001
1.40001
1.40001
1.40001
1.40001
1.40001
1.40001
1.40001
1.40001
1.40001
1.40001
1.40001
1.40001
1.40001
1.40001
1.40001
2.93222
5.22464
5.39686
5.41574
5.44084
5.46256
5.48424
5.50453
5.52354
5.54172
5.55919
5.57647
5.59382
5.61107
5.62792
5.6441
5.65925
5.67355
5.68704
5.70096
5.71522
5.72964
5.74359
5.75682
5.76945
5.78147
5.79278
5.80328
5.81302
5.82215
5.83097
5.84004
5.84992
5.86074
5.87198
5.88253
5.89134
5.89792
5.90247
5.90568
5.90833
5.91112
5.91419
5.9173
5.92026
5.92217
5.92448
1.40001
1.40001
1.40001
1.40001
1.40001
1.40001
1.40001
1.40001
1.40001
1.40001
1.40001
1.40001
1.40001
1.40001
1.40001
1.40001
1.40001
1.40001
1.40001
1.40001
1.40001
1.40001
1.40001
1.40001
1.40001
1.40001
1.40001
1.40001
1.40001
1.40001
1.40001
1.40001
1.40001
1.40001
1.40001
1.40001
1.40001
1.40001
1.40001
1.40001
1.40001
1.40001
1.40001
1.40001
1.40001
1.40001
1.40001
1.40001
1.40001
2.41074
5.04415
5.39632
5.41819
5.44195
5.46267
5.48277
5.50116
5.51847
5.53532
5.5523
5.56893
5.58543
5.60143
5.61704
5.63174
5.64546
5.65869
5.67131
5.68445
5.69806
5.7117
5.72482
5.7369
5.74824
5.75898
5.76916
5.7787
5.78762
5.79602
5.80418
5.81267
5.82208
5.83255
5.84347
5.85372
5.86225
5.86858
5.87291
5.87585
5.87815
5.88055
5.88326
5.88611
5.88903
5.89096
5.89343
1.40001
1.40001
1.40001
1.40001
1.40001
1.40001
1.40001
1.40001
1.40001
1.40001
1.40001
1.40001
1.40001
1.40001
1.40001
1.40001
1.40001
1.40001
1.40001
1.40001
1.40001
1.40001
1.40001
1.40001
1.40001
1.40001
1.40001
1.40001
1.40001
1.40001
1.40001
1.40001
1.40001
1.40001
1.40001
1.40001
1.40001
1.40001
1.40001
1.40001
1.40001
1.40001
1.40001
1.40001
1.40001
1.40001
1.40001
1.40001
1.40001
1.88248
4.73283
5.41161
5.40884
5.43284
5.45103
5.47071
5.48948
5.50733
5.52411
5.54093
5.55711
5.57301
5.58849
5.60367
5.61763
5.6304
5.64285
5.65493
5.66753
5.68067
5.69351
5.70569
5.71663
5.72668
5.73605
5.74489
5.75309
5.76063
5.76761
5.77437
5.78151
5.78958
5.79859
5.80786
5.81637
5.82336
5.82863
5.83242
5.83526
5.8377
5.84027
5.84306
5.84594
5.84892
5.85096
5.85357
1.40001
1.40001
1.40001
1.40001
1.40001
1.40001
1.40001
1.40001
1.40001
1.40001
1.40001
1.40001
1.40001
1.40001
1.40001
1.40001
1.40001
1.40001
1.40001
1.40001
1.40001
1.40001
1.40001
1.40001
1.40001
1.40001
1.40001
1.40001
1.40001
1.40001
1.40001
1.40001
1.40001
1.40001
1.40001
1.40001
1.40001
1.40001
1.40001
1.40001
1.40001
1.40001
1.40001
1.40001
1.40001
1.40001
1.40001
1.40001
1.40001
1.42489
4.0987
5.40872
5.41414
5.43081
5.44732
5.46489
5.4827
5.49968
5.51515
5.53043
5.54532
5.55954
5.57348
5.58735
5.60012
5.61162
5.62287
5.6339
5.64518
5.6571
5.66862
5.67934
5.68885
5.69738
5.70529
5.71271
5.71957
5.72576
5.73148
5.73714
5.7433
5.75034
5.75809
5.76583
5.77271
5.77823
5.78233
5.78527
5.78733
5.78873
5.78971
5.79052
5.79138
5.7927
5.79375
5.79559
1.40001
1.40001
1.40001
1.40001
1.40001
1.40001
1.40001
1.40001
1.40001
1.40001
1.40001
1.40001
1.40001
1.40001
1.40001
1.40001
1.40001
1.40001
1.40001
1.40001
1.40001
1.40001
1.40001
1.40001
1.40001
1.40001
1.40001
1.40001
1.40001
1.40001
1.40001
1.40001
1.40001
1.40001
1.40001
1.40001
1.40001
1.40001
1.40001
1.40001
1.40001
1.40001
1.40001
1.40001
1.40001
1.40001
1.40001
1.40001
1.40001
1.40005
3.20369
5.24897
5.36534
5.39022
5.41212
5.43156
5.45058
5.46855
5.4846
5.49924
5.51311
5.52615
5.53896
5.55221
5.56521
5.57724
5.58877
5.59985
5.61057
5.62156
5.63232
5.64215
5.65086
5.65838
5.66513
5.67126
5.67679
5.68169
5.68612
5.69046
5.69513
5.70027
5.70548
5.71004
5.71337
5.71543
5.71626
5.71616
5.71566
5.71535
5.71534
5.71602
5.71707
5.71905
5.72068
5.72266
1.40001
1.40001
1.40001
1.40001
1.40001
1.40001
1.40001
1.40001
1.40001
1.40001
1.40001
1.40001
1.40001
1.40001
1.40001
1.40001
1.40001
1.40001
1.40001
1.40001
1.40001
1.40001
1.40001
1.40001
1.40001
1.40001
1.40001
1.40001
1.40001
1.40001
1.40001
1.40001
1.40001
1.40001
1.40001
1.40001
1.40001
1.40001
1.40001
1.40001
1.40001
1.40001
1.40001
1.40001
1.40001
1.40001
1.40001
1.40001
1.40001
1.4
2.17101
4.89116
5.37453
5.38193
5.40367
5.42047
5.43714
5.45364
5.46934
5.48321
5.49536
5.50607
5.51635
5.52754
5.53961
5.55136
5.56233
5.57236
5.58141
5.58998
5.59858
5.60658
5.61365
5.61945
5.62415
5.62797
5.63104
5.63357
5.63569
5.63772
5.63974
5.64173
5.64328
5.64396
5.64386
5.6428
5.64068
5.63822
5.63544
5.63225
5.62822
5.62364
5.61787
5.61207
5.60624
5.60083
1.40001
1.40001
1.40001
1.40001
1.40001
1.40001
1.40001
1.40001
1.40001
1.40001
1.40001
1.40001
1.40001
1.40001
1.40001
1.40001
1.40001
1.40001
1.40001
1.40001
1.40001
1.40001
1.40001
1.40001
1.40001
1.40001
1.40001
1.40001
1.40001
1.40001
1.40001
1.40001
1.40001
1.40001
1.40001
1.40001
1.40001
1.40001
1.40001
1.40001
1.40001
1.40001
1.40001
1.40001
1.40001
1.40001
1.40001
1.40001
1.40001
1.40001
1.44285
3.96654
5.38936
5.39299
5.40484
5.41454
5.42575
5.43743
5.44918
5.46001
5.46929
5.47735
5.48486
5.49336
5.50347
5.51426
5.5245
5.53342
5.54071
5.54656
5.55211
5.55782
5.56314
5.56749
5.57048
5.57219
5.5729
5.57285
5.57219
5.57123
5.56976
5.56748
5.56398
5.5591
5.55267
5.54454
5.53498
5.52369
5.50981
5.49298
5.47423
5.45561
5.44126
5.43091
5.42821
5.42729
1.40001
1.40001
1.40001
1.40001
1.40001
1.40001
1.40001
1.40001
1.40001
1.40001
1.40001
1.40001
1.40001
1.40001
1.40001
1.40001
1.40001
1.40001
1.40001
1.40001
1.40001
1.40001
1.40001
1.40001
1.40001
1.40001
1.40001
1.40001
1.40001
1.40001
1.40001
1.40001
1.40001
1.40001
1.40001
1.40001
1.40001
1.40001
1.40001
1.40001
1.40001
1.40001
1.40001
1.40001
1.40001
1.40001
1.40001
1.40001
1.40001
1.40001
1.40006
2.60084
5.07054
5.36037
5.36397
5.37521
5.38761
5.4006
5.41335
5.42517
5.43482
5.44197
5.44793
5.45463
5.46326
5.47343
5.4836
5.49205
5.49772
5.50071
5.50217
5.50366
5.50576
5.50789
5.50921
5.50924
5.50768
5.50432
5.49967
5.49411
5.48767
5.47971
5.46925
5.45604
5.44037
5.423
5.40422
5.38342
5.35941
5.33216
5.30319
5.27471
5.24121
5.20482
5.15361
5.17492
1.40001
1.40001
1.40001
1.40001
1.40001
1.40001
1.40001
1.40001
1.40001
1.40001
1.40001
1.40001
1.40001
1.40001
1.40001
1.40001
1.40001
1.40001
1.40001
1.40001
1.40001
1.40001
1.40001
1.40001
1.40001
1.40001
1.40001
1.40001
1.40001
1.40001
1.40001
1.40001
1.40001
1.40001
1.40001
1.40001
1.40001
1.40001
1.40001
1.40001
1.40001
1.40001
1.40001
1.40001
1.40001
1.40001
1.40001
1.40001
1.40001
1.40001
1.40001
1.53831
4.36286
5.38689
5.36825
5.37364
5.37993
5.38762
5.39528
5.4029
5.40982
5.41486
5.41862
5.42273
5.42857
5.43648
5.44523
5.4527
5.45705
5.45813
5.45635
5.45339
5.45129
5.4503
5.44959
5.44786
5.4439
5.43715
5.42828
5.4179
5.40626
5.39257
5.37531
5.35367
5.32788
5.29914
5.26746
5.23144
5.18678
5.13031
5.05506
4.95636
4.80928
4.58467
4.18455
3.28895
1.40001
1.40001
1.40001
1.40001
1.40001
1.40001
1.40001
1.40001
1.40001
1.40001
1.40001
1.40001
1.40001
1.40001
1.40001
1.40001
1.40001
1.40001
1.40001
1.40001
1.40001
1.40001
1.40001
1.40001
1.40001
1.40001
1.40001
1.40001
1.40001
1.40001
1.40001
1.40001
1.40001
1.40001
1.40001
1.40001
1.40001
1.40001
1.40001
1.40001
1.40001
1.40001
1.40001
1.40001
1.40001
1.40001
1.40001
1.40001
1.40001
1.40001
1.40001
1.40084
3.21986
5.21378
5.31859
5.33632
5.34743
5.35844
5.36735
5.3757
5.3832
5.38855
5.39097
5.39215
5.39394
5.39795
5.4045
5.41195
5.41711
5.41833
5.41539
5.40947
5.40323
5.39864
5.39544
5.39172
5.38566
5.37656
5.36439
5.34967
5.33292
5.31371
5.29056
5.26206
5.22737
5.18765
5.14214
5.09049
5.02565
4.94409
4.832
4.68673
4.4782
4.21316
3.673
2.92119
1.40001
1.40001
1.40001
1.40001
1.40001
1.40001
1.40001
1.40001
1.40001
1.40001
1.40001
1.40001
1.40001
1.40001
1.40001
1.40001
1.40001
1.40001
1.40001
1.40001
1.40001
1.40001
1.40001
1.40001
1.40001
1.40001
1.40001
1.40001
1.40001
1.40001
1.40001
1.40001
1.40001
1.40001
1.40001
1.40001
1.40001
1.40001
1.40001
1.40001
1.40001
1.40001
1.40001
1.40001
1.40001
1.40001
1.40001
1.40001
1.40001
1.40001
1.40001
1.4
1.96939
4.74997
5.31994
5.31867
5.33067
5.34271
5.35243
5.35985
5.36612
5.3712
5.37313
5.37262
5.37118
5.37053
5.37262
5.37716
5.38076
5.38089
5.37644
5.36798
5.35795
5.34931
5.34238
5.33537
5.3265
5.31465
5.29926
5.28029
5.25792
5.23229
5.20233
5.16703
5.12415
5.07442
5.01594
4.94955
4.86849
4.76783
4.63609
4.46335
4.24495
3.9226
3.48484
2.95323
1.40001
1.40001
1.40001
1.40001
1.40001
1.40001
1.40001
1.40001
1.40001
1.40001
1.40001
1.40001
1.40001
1.40001
1.40001
1.40001
1.40001
1.40001
1.40001
1.40001
1.40001
1.40001
1.40001
1.40001
1.40001
1.40001
1.40001
1.40001
1.40001
1.40001
1.40001
1.40001
1.40001
1.40001
1.40001
1.40001
1.40001
1.40001
1.40001
1.40001
1.40001
1.40001
1.40001
1.40001
1.40001
1.40001
1.40001
1.40001
1.40001
1.40001
1.40001
1.4
1.42485
3.57992
5.22799
5.29333
5.31163
5.32593
5.33557
5.34119
5.34475
5.34856
5.35019
5.34988
5.34792
5.34509
5.34349
5.34343
5.34326
5.34072
5.3341
5.32392
5.31181
5.29974
5.28842
5.27716
5.26451
5.24958
5.2313
5.20899
5.18178
5.15015
5.11344
5.07172
5.02213
4.96448
4.89647
4.81839
4.72631
4.61433
4.47505
4.29702
4.07566
3.79
3.45666
3.06694
1.40001
1.40001
1.40001
1.40001
1.40001
1.40001
1.40001
1.40001
1.40001
1.40001
1.40001
1.40001
1.40001
1.40001
1.40001
1.40001
1.40001
1.40001
1.40001
1.40001
1.40001
1.40001
1.40001
1.40001
1.40001
1.40001
1.40001
1.40001
1.40001
1.40001
1.40001
1.40001
1.40001
1.40001
1.40001
1.40001
1.40001
1.40001
1.40001
1.40001
1.40001
1.40001
1.40001
1.40001
1.40001
1.40001
1.40001
1.40001
1.40001
1.40001
1.40001
1.40001
1.39999
2.12002
4.824
5.29113
5.29527
5.31036
5.319
5.32435
5.32563
5.32646
5.32431
5.32423
5.32454
5.32311
5.32044
5.31685
5.3119
5.30432
5.29367
5.28102
5.26742
5.25295
5.2379
5.22219
5.20482
5.18559
5.16337
5.13748
5.10627
5.06995
5.02798
4.98084
4.926
4.86236
4.7882
4.70302
4.6049
4.48861
4.35123
4.17879
3.97734
3.73782
3.47567
3.17445
1.40001
1.40001
1.40001
1.40001
1.40001
1.40001
1.40001
1.40001
1.40001
1.40001
1.40001
1.40001
1.40001
1.40001
1.40001
1.40001
1.40001
1.40001
1.40001
1.40001
1.40001
1.40001
1.40001
1.40001
1.40001
1.40001
1.40001
1.40001
1.40001
1.40001
1.40001
1.40001
1.40001
1.40001
1.40001
1.40001
1.40001
1.40001
1.40001
1.40001
1.40001
1.40001
1.40001
1.40001
1.40001
1.40001
1.40001
1.40001
1.40001
1.40001
1.40001
1.40001
1.4
1.4373
3.60963
5.20852
5.2729
5.29006
5.30157
5.30974
5.31135
5.30866
5.30292
5.30012
5.29984
5.29795
5.2942
5.28856
5.28072
5.26975
5.25588
5.24113
5.22601
5.2095
5.19128
5.17152
5.14944
5.12515
5.09785
5.06741
5.03233
4.99245
4.94706
4.89612
4.83748
4.77007
4.69281
4.60486
4.50528
4.38986
4.25743
4.09987
3.92384
3.72207
3.50685
3.26454
1.40001
1.40001
1.40001
1.40001
1.40001
1.40001
1.40001
1.40001
1.40001
1.40001
1.40001
1.40001
1.40001
1.40001
1.40001
1.40001
1.40001
1.40001
1.40001
1.40001
1.40001
1.40001
1.40001
1.40001
1.40001
1.40001
1.40001
1.40001
1.40001
1.40001
1.40001
1.40001
1.40001
1.40001
1.40001
1.40001
1.40001
1.40001
1.40001
1.40001
1.40001
1.40001
1.40001
1.40001
1.40001
1.40001
1.40001
1.40001
1.40001
1.40001
1.40001
1.40001
1.4
1.40003
2.02876
4.7625
5.27847
5.27026
5.27963
5.28334
5.28415
5.28083
5.27558
5.27264
5.27192
5.26905
5.2638
5.25613
5.24616
5.23298
5.21728
5.20128
5.18455
5.16669
5.14667
5.12452
5.09927
5.07037
5.03755
5.0016
4.96228
4.91965
4.8723
4.81921
4.75843
4.68931
4.61129
4.52348
4.42612
4.31414
4.18886
4.04923
3.89246
3.72026
3.53904
3.33694
1.40001
1.40001
1.40001
1.40001
1.40001
1.40001
1.40001
1.40001
1.40001
1.40001
1.40001
1.40001
1.40001
1.40001
1.40001
1.40001
1.40001
1.40001
1.40001
1.40001
1.40001
1.40001
1.40001
1.40001
1.40001
1.40001
1.40001
1.40001
1.40001
1.40001
1.40001
1.40001
1.40001
1.40001
1.40001
1.40001
1.40001
1.40001
1.40001
1.40001
1.40001
1.40001
1.40001
1.40001
1.40001
1.40001
1.40001
1.40001
1.40001
1.40001
1.40001
1.40001
1.40001
1.40001
1.426
3.35988
5.13044
5.24203
5.24343
5.25259
5.2568
5.25413
5.25013
5.24745
5.24527
5.24153
5.23487
5.22511
5.21343
5.1988
5.18247
5.16564
5.14655
5.12665
5.10476
5.08093
5.05377
5.02177
4.98443
4.94313
4.89966
4.85445
4.80509
4.75007
4.6879
4.61837
4.54147
4.45594
4.36383
4.25707
4.14101
4.01601
3.87471
3.72638
3.56993
3.39573
1.40001
1.40001
1.40001
1.40001
1.40001
1.40001
1.40001
1.40001
1.40001
1.40001
1.40001
1.40001
1.40001
1.40001
1.40001
1.40001
1.40001
1.40001
1.40001
1.40001
1.40001
1.40001
1.40001
1.40001
1.40001
1.40001
1.40001
1.40001
1.40001
1.40001
1.40001
1.40001
1.40001
1.40001
1.40001
1.40001
1.40001
1.40001
1.40001
1.40001
1.40001
1.40001
1.40001
1.40001
1.40001
1.40001
1.40001
1.40001
1.40001
1.40001
1.40001
1.40001
1.40001
1.40001
1.40002
1.72281
4.50734
5.27833
5.24624
5.24377
5.23568
5.22789
5.22053
5.21549
5.21094
5.20609
5.1984
5.18734
5.17501
5.15995
5.14314
5.12552
5.10523
5.08407
5.06089
5.03658
5.0092
4.97637
4.9367
4.89194
4.84554
4.7981
4.74685
4.69022
4.6273
4.55782
4.48277
4.39991
4.31395
4.21396
4.10757
3.9944
3.86796
3.73497
3.59554
3.44463
1.40001
1.40001
1.40001
1.40001
1.40001
1.40001
1.40001
1.40001
1.40001
1.40001
1.40001
1.40001
1.40001
1.40001
1.40001
1.40001
1.40001
1.40001
1.40001
1.40001
1.40001
1.40001
1.40001
1.40001
1.40001
1.40001
1.40001
1.40001
1.40001
1.40001
1.40001
1.40001
1.40001
1.40001
1.40001
1.40001
1.40001
1.40001
1.40001
1.40001
1.40001
1.40001
1.40001
1.40001
1.40001
1.40001
1.40001
1.40001
1.40001
1.40001
1.40001
1.40001
1.40001
1.40001
1.40001
1.40578
2.91962
5.02609
5.18553
5.19429
5.2007
5.19527
5.18837
5.18225
5.17619
5.1698
5.16142
5.15022
5.13821
5.12267
5.10432
5.08504
5.06417
5.04263
5.01846
4.99352
4.96568
4.93251
4.89219
4.84674
4.79932
4.74995
4.69698
4.63886
4.57575
4.50664
4.43388
4.35342
4.2733
4.18088
4.08376
3.98083
3.86784
3.74475
3.62108
3.49009
1.40001
1.40001
1.40001
1.40001
1.40001
1.40001
1.40001
1.40001
1.40001
1.40001
1.40001
1.40001
1.40001
1.40001
1.40001
1.40001
1.40001
1.40001
1.40001
1.40001
1.40001
1.40001
1.40001
1.40001
1.40001
1.40001
1.40001
1.40001
1.40001
1.40001
1.40001
1.40001
1.40001
1.40001
1.40001
1.40001
1.40001
1.40001
1.40001
1.40001
1.40001
1.40001
1.40001
1.40001
1.40001
1.40001
1.40001
1.40001
1.40001
1.40001
1.40001
1.40001
1.40001
1.40001
1.40001
1.40001
1.55144
3.94671
5.20208
5.18276
5.17707
5.17037
5.165
5.15928
5.15268
5.14478
5.13514
5.12272
5.10914
5.09131
5.07012
5.04778
5.02534
5.00272
4.97755
4.95149
4.92259
4.88941
4.8499
4.80662
4.75976
4.70924
4.65527
4.59637
4.53404
4.46606
4.39549
4.31723
4.24171
4.15576
4.06683
3.97145
3.86846
3.75575
3.64629
3.52972
1.40001
1.40001
1.40001
1.40001
1.40001
1.40001
1.40001
1.40001
1.40001
1.40001
1.40001
1.40001
1.40001
1.40001
1.40001
1.40001
1.40001
1.40001
1.40001
1.40001
1.40001
1.40001
1.40001
1.40001
1.40001
1.40001
1.40001
1.40001
1.40001
1.40001
1.40001
1.40001
1.40001
1.40001
1.40001
1.40001
1.40001
1.40001
1.40001
1.40001
1.40001
1.40001
1.40001
1.40001
1.40001
1.40001
1.40001
1.40001
1.40001
1.40001
1.40001
1.40001
1.40001
1.40001
1.40001
1.40001
1.40113
2.09672
4.75534
5.18332
5.149
5.14736
5.14141
5.13493
5.12812
5.11907
5.10809
5.09408
5.07777
5.05911
5.03618
5.01165
4.98718
4.96308
4.93726
4.90992
4.87972
4.84731
4.80943
4.76764
4.72207
4.67163
4.61805
4.55992
4.49888
4.43349
4.36563
4.29098
4.21806
4.13813
4.05509
3.96442
3.87032
3.76845
3.66958
3.56313
1.40001
1.40001
1.40001
1.40001
1.40001
1.40001
1.40001
1.40001
1.40001
1.40001
1.40001
1.40001
1.40001
1.40001
1.40001
1.40001
1.40001
1.40001
1.40001
1.40001
1.40001
1.40001
1.40001
1.40001
1.40001
1.40001
1.40001
1.40001
1.40001
1.40001
1.40001
1.40001
1.40001
1.40001
1.40001
1.40001
1.40001
1.40001
1.40001
1.40001
1.40001
1.40001
1.40001
1.40001
1.40001
1.40001
1.40001
1.40001
1.40001
1.40001
1.40001
1.40001
1.40001
1.40001
1.40001
1.40001
1.40001
1.4288
3.08398
5.04177
5.12803
5.12637
5.12419
5.11729
5.10984
5.09925
5.08619
5.06982
5.0501
5.02997
5.0057
4.97944
4.95344
4.92772
4.90053
4.87146
4.83975
4.8083
4.77238
4.73125
4.68685
4.63803
4.58445
4.52799
4.46921
4.40737
4.34337
4.27379
4.20267
4.12734
4.04696
3.96098
3.87427
3.78171
3.68984
3.59221
1.40001
1.40001
1.40001
1.40001
1.40001
1.40001
1.40001
1.40001
1.40001
1.40001
1.40001
1.40001
1.40001
1.40001
1.40001
1.40001
1.40001
1.40001
1.40001
1.40001
1.40001
1.40001
1.40001
1.40001
1.40001
1.40001
1.40001
1.40001
1.40001
1.40001
1.40001
1.40001
1.40001
1.40001
1.40001
1.40001
1.40001
1.40001
1.40001
1.40001
1.40001
1.40001
1.40001
1.40001
1.40001
1.40001
1.40001
1.40001
1.40001
1.40001
1.40001
1.40001
1.40001
1.40001
1.40001
1.40001
1.40001
1.40006
1.57481
3.78207
5.0903
5.13166
5.11822
5.11073
5.09963
5.08542
5.06937
5.05049
5.02881
5.00664
4.98112
4.953
4.9252
4.898
4.86889
4.83748
4.80459
4.77237
4.73824
4.6977
4.65422
4.60663
4.55457
4.49849
4.44239
4.38402
4.32414
4.26001
4.19155
4.11978
4.04253
3.96194
3.88029
3.79563
3.70885
3.62017
1.40001
1.40001
1.40001
1.40001
1.40001
1.40001
1.40001
1.40001
1.40001
1.40001
1.40001
1.40001
1.40001
1.40001
1.40001
1.40001
1.40001
1.40001
1.40001
1.40001
1.40001
1.40001
1.40001
1.40001
1.40001
1.40001
1.40001
1.40001
1.40001
1.40001
1.40001
1.40001
1.40001
1.40001
1.40001
1.40001
1.40001
1.40001
1.40001
1.40001
1.40001
1.40001
1.40001
1.40001
1.40001
1.40001
1.40001
1.40001
1.40001
1.40001
1.40001
1.40001
1.40001
1.40001
1.40001
1.40001
1.40001
1.40001
1.4016
1.79765
4.48181
5.17351
5.14004
5.11557
5.09069
5.06835
5.04793
5.0272
5.00475
4.98202
4.95628
4.92811
4.89925
4.87137
4.8423
4.80991
4.77632
4.74223
4.70795
4.66714
4.62415
4.57785
4.52809
4.47402
4.42003
4.36511
4.30816
4.24789
4.18308
4.11465
4.04194
3.96657
3.88914
3.81068
3.72853
3.6475
1.40001
1.40001
1.40001
1.40001
1.40001
1.40001
1.40001
1.40001
1.40001
1.40001
1.40001
1.40001
1.40001
1.40001
1.40001
1.40001
1.40001
1.40001
1.40001
1.40001
1.40001
1.40001
1.40001
1.40001
1.40001
1.40001
1.40001
1.40001
1.40001
1.40001
1.40001
1.40001
1.40001
1.40001
1.40001
1.40001
1.40001
1.40001
1.40001
1.40001
1.40001
1.40001
1.40001
1.40001
1.40001
1.40001
1.40001
1.40001
1.40001
1.40001
1.40001
1.40001
1.40001
1.40001
1.40001
1.40001
1.40001
1.40001
1.40001
1.40862
2.56557
4.90021
5.10492
5.07526
5.05443
5.03464
5.01785
4.99971
4.97978
4.95812
4.93387
4.90739
4.87947
4.8502
4.82089
4.78889
4.75475
4.71904
4.68291
4.64152
4.59831
4.55257
4.50431
4.45311
4.4012
4.34857
4.29353
4.23585
4.17473
4.10951
4.04186
3.97187
3.89887
3.82539
3.74827
3.67289
1.40001
1.40001
1.40001
1.40001
1.40001
1.40001
1.40001
1.40001
1.40001
1.40001
1.40001
1.40001
1.40001
1.40001
1.40001
1.40001
1.40001
1.40001
1.40001
1.40001
1.40001
1.40001
1.40001
1.40001
1.40001
1.40001
1.40001
1.40001
1.40001
1.40001
1.40001
1.40001
1.40001
1.40001
1.40001
1.40001
1.40001
1.40001
1.40001
1.40001
1.40001
1.40001
1.40001
1.40001
1.40001
1.40001
1.40001
1.40001
1.40001
1.40001
1.40001
1.40001
1.40001
1.40001
1.40001
1.40001
1.40001
1.40001
1.40001
1.40002
1.4787
3.20243
4.98556
5.03913
5.02608
5.02059
5.00917
4.99342
4.97444
4.95204
4.92718
4.89962
4.87076
4.8403
4.80822
4.77718
4.74136
4.7038
4.66508
4.62243
4.57814
4.53209
4.48437
4.43535
4.38552
4.33447
4.28145
4.22638
4.16859
4.1067
4.04362
3.97783
3.90909
3.83959
3.76735
3.69566
1.40001
1.40001
1.40001
1.40001
1.40001
1.40001
1.40001
1.40001
1.40001
1.40001
1.40001
1.40001
1.40001
1.40001
1.40001
1.40001
1.40001
1.40001
1.40001
1.40001
1.40001
1.40001
1.40001
1.40001
1.40001
1.40001
1.40001
1.40001
1.40001
1.40001
1.40001
1.40001
1.40001
1.40001
1.40001
1.40001
1.40001
1.40001
1.40001
1.40001
1.40001
1.40001
1.40001
1.40001
1.40001
1.40001
1.40001
1.40001
1.40001
1.40001
1.40001
1.40001
1.40001
1.40001
1.40001
1.40001
1.40001
1.40001
1.40001
1.40001
1.40042
1.59949
3.58885
4.98521
5.01268
5.00699
4.99831
4.98353
4.96548
4.94409
4.91993
4.8931
4.86446
4.83393
4.8007
4.76746
4.7316
4.69258
4.65158
4.60809
4.56293
4.51646
4.46879
4.42054
4.37198
4.32234
4.27123
4.21884
4.1638
4.10518
4.04568
3.98313
3.91802
3.85231
3.78449
3.71579
1.40001
1.40001
1.40001
1.40001
1.40001
1.40001
1.40001
1.40001
1.40001
1.40001
1.40001
1.40001
1.40001
1.40001
1.40001
1.40001
1.40001
1.40001
1.40001
1.40001
1.40001
1.40001
1.40001
1.40001
1.40001
1.40001
1.40001
1.40001
1.40001
1.40001
1.40001
1.40001
1.40001
1.40001
1.40001
1.40001
1.40001
1.40001
1.40001
1.40001
1.40001
1.40001
1.40001
1.40001
1.40001
1.40001
1.40001
1.40001
1.40001
1.40001
1.40001
1.40001
1.40001
1.40001
1.40001
1.40001
1.40001
1.40001
1.40001
1.40001
1.40001
1.40222
1.72175
3.90518
5.01053
5.00942
4.99354
4.97526
4.95531
4.93334
4.90989
4.88461
4.85714
4.82688
4.79399
4.76002
4.7241
4.68528
4.64382
4.60002
4.55459
4.50804
4.46079
4.41294
4.36466
4.31594
4.26597
4.21482
4.1613
4.10514
4.04824
3.98874
3.92664
3.86439
3.80018
3.7346
1.40001
1.40001
1.40001
1.40001
1.40001
1.40001
1.40001
1.40001
1.40001
1.40001
1.40001
1.40001
1.40001
1.40001
1.40001
1.40001
1.40001
1.40001
1.40001
1.40001
1.40001
1.40001
1.40001
1.40001
1.40001
1.40001
1.40001
1.40001
1.40001
1.40001
1.40001
1.40001
1.40001
1.40001
1.40001
1.40001
1.40001
1.40001
1.40001
1.40001
1.40001
1.40001
1.40001
1.40001
1.40001
1.40001
1.40001
1.40001
1.40001
1.40001
1.40001
1.40001
1.40001
1.40001
1.40001
1.40001
1.40001
1.40001
1.40001
1.40001
1.40001
1.40001
1.40564
1.85756
4.18383
5.01794
5.00132
4.97747
4.95239
4.92713
4.90086
4.87436
4.84614
4.81598
4.78406
4.75064
4.71516
4.67703
4.63632
4.59356
4.54918
4.50368
4.45745
4.41025
4.36216
4.31387
4.26484
4.21413
4.16103
4.1062
4.05148
3.99464
3.93512
3.87591
3.81488
3.75267
1.40001
1.40001
1.40001
1.40001
1.40001
1.40001
1.40001
1.40001
1.40001
1.40001
1.40001
1.40001
1.40001
1.40001
1.40001
1.40001
1.40001
1.40001
1.40001
1.40001
1.40001
1.40001
1.40001
1.40001
1.40001
1.40001
1.40001
1.40001
1.40001
1.40001
1.40001
1.40001
1.40001
1.40001
1.40001
1.40001
1.40001
1.40001
1.40001
1.40001
1.40001
1.40001
1.40001
1.40001
1.40001
1.40001
1.40001
1.40001
1.40001
1.40001
1.40001
1.40001
1.40001
1.40001
1.40001
1.40001
1.40001
1.40001
1.40001
1.40001
1.40001
1.40001
1.40002
1.4113
2.00911
4.39056
5.02758
5.00064
4.96959
4.93647
4.90565
4.87433
4.84134
4.80845
4.77502
4.74103
4.70602
4.66918
4.63027
4.58947
4.54713
4.50338
4.45824
4.41183
4.36422
4.31623
4.26791
4.21787
4.16524
4.11127
4.05804
4.00339
3.94615
3.88907
3.83048
3.77087
1.40001
1.40001
1.40001
1.40001
1.40001
1.40001
1.40001
1.40001
1.40001
1.40001
1.40001
1.40001
1.40001
1.40001
1.40001
1.40001
1.40001
1.40001
1.40001
1.40001
1.40001
1.40001
1.40001
1.40001
1.40001
1.40001
1.40001
1.40001
1.40001
1.40001
1.40001
1.40001
1.40001
1.40001
1.40001
1.40001
1.40001
1.40001
1.40001
1.40001
1.40001
1.40001
1.40001
1.40001
1.40001
1.40001
1.40001
1.40001
1.40001
1.40001
1.40001
1.40001
1.40001
1.40001
1.40001
1.40001
1.40001
1.40001
1.40001
1.40001
1.40001
1.40001
1.40001
1.40004
1.42006
2.15683
4.57113
5.02563
4.99443
4.95906
4.91957
4.88155
4.8446
4.80799
4.77128
4.73556
4.69981
4.66312
4.62507
4.58559
4.54482
4.5026
4.45878
4.41365
4.36733
4.32041
4.27304
4.22421
4.17304
4.12012
4.06766
4.01448
3.95908
3.90336
3.84658
3.78873
1.40001
1.40001
1.40001
1.40001
1.40001
1.40001
1.40001
1.40001
1.40001
1.40001
1.40001
1.40001
1.40001
1.40001
1.40001
1.40001
1.40001
1.40001
1.40001
1.40001
1.40001
1.40001
1.40001
1.40001
1.40001
1.40001
1.40001
1.40001
1.40001
1.40001
1.40001
1.40001
1.40001
1.40001
1.40001
1.40001
1.40001