/*--------------------------------*- C++ -*----------------------------------*\
  =========                 |
  \\      /  F ield         | OpenFOAM: The Open Source CFD Toolbox
   \\    /   O peration     | Website:  https://openfoam.org
    \\  /    A nd           | Version:  7
     \\/     M anipulation  |
\*---------------------------------------------------------------------------*/
FoamFile
{
    version     2.0;
    format      ascii;
    class       volScalarField;
    location    "6.7";
    object      T;
}
// * * * * * * * * * * * * * * * * * * * * * * * * * * * * * * * * * * * * * //

dimensions      [0 0 0 1 0 0 0];

internalField   nonuniform List<scalar> 
19968
(
1
1
1
1
1
1
1
1
1
1
1
1
1
1
1
1
1
1
1
1
1
1
1
1
1
1
1
1
1
1
1
1
1
1
1
1
1
1
1
1
1
1
1
1
1
1
1
1
1.28697
2.46754
2.69246
2.69095
2.69377
2.69804
2.7043
2.71098
2.71666
2.7206
2.72315
2.72521
2.72764
2.73096
2.73518
2.73978
2.7442
2.74813
2.7514
2.7541
2.75647
2.75881
2.76132
2.76406
2.76698
2.76995
2.7728
2.77544
2.77783
2.77999
2.78204
2.78405
2.78606
2.78812
2.79019
2.79225
2.79421
2.79597
2.79741
2.79846
2.79916
2.79963
2.80009
2.80069
2.80151
2.80244
2.80329
2.80397
1
1
1
1
1
1
1
1
1
1
1
1
1
1
1
1
1
1
1
1
1
1
1
1
1
1
1
1
1
1
1
1
1
1
1
1
1
1
1
1
1
1
1
1
1
1
1
1
1.27166
2.45866
2.69173
2.69099
2.69357
2.69814
2.70444
2.71095
2.71642
2.72028
2.72284
2.72497
2.72746
2.7308
2.735
2.73956
2.74398
2.74788
2.75115
2.75386
2.75626
2.75865
2.76119
2.76394
2.76684
2.76978
2.7726
2.7752
2.77754
2.77967
2.78168
2.78367
2.7857
2.78777
2.78986
2.79192
2.79387
2.79561
2.79702
2.79805
2.79875
2.79924
2.79971
2.80031
2.8011
2.80198
2.80277
2.80341
1
1
1
1
1
1
1
1
1
1
1
1
1
1
1
1
1
1
1
1
1
1
1
1
1
1
1
1
1
1
1
1
1
1
1
1
1
1
1
1
1
1
1
1
1
1
1
1
1.23676
2.43816
2.6907
2.69028
2.69337
2.69826
2.70445
2.71058
2.71568
2.71941
2.72203
2.72437
2.72706
2.73046
2.73459
2.73904
2.74337
2.74723
2.75052
2.75328
2.75577
2.75824
2.76084
2.76361
2.7665
2.7694
2.77217
2.77472
2.77701
2.77909
2.78106
2.78302
2.78504
2.78712
2.78924
2.79132
2.79327
2.79497
2.79635
2.79739
2.79811
2.79864
2.79914
2.79975
2.8005
2.8013
2.802
2.80257
1
1
1
1
1
1
1
1
1
1
1
1
1
1
1
1
1
1
1
1
1
1
1
1
1
1
1
1
1
1
1
1
1
1
1
1
1
1
1
1
1
1
1
1
1
1
1
1
1.18767
2.40751
2.6883
2.68961
2.69361
2.69864
2.70438
2.7099
2.71459
2.71824
2.72105
2.72372
2.72672
2.7302
2.73418
2.73839
2.74256
2.74633
2.74965
2.75251
2.75515
2.75774
2.7604
2.76316
2.76599
2.76882
2.77154
2.77404
2.77627
2.77828
2.78018
2.78209
2.78408
2.78617
2.78831
2.79038
2.79229
2.79393
2.79525
2.79625
2.79699
2.79757
2.79812
2.79875
2.79948
2.80022
2.80084
2.80134
1
1
1
1
1
1
1
1
1
1
1
1
1
1
1
1
1
1
1
1
1
1
1
1
1
1
1
1
1
1
1
1
1
1
1
1
1
1
1
1
1
1
1
1
1
1
1
1
1.12261
2.36557
2.68631
2.68943
2.69431
2.69925
2.70428
2.70913
2.71343
2.71707
2.72015
2.7232
2.72647
2.73
2.73381
2.73774
2.74166
2.74531
2.74867
2.75169
2.75453
2.75726
2.75995
2.76265
2.76536
2.76809
2.77074
2.7732
2.77541
2.77737
2.7792
2.78104
2.78299
2.78508
2.78724
2.78934
2.79123
2.7928
2.79404
2.79496
2.79565
2.7962
2.79673
2.7973
2.79794
2.79855
2.79903
2.79943
1
1
1
1
1
1
1
1
1
1
1
1
1
1
1
1
1
1
1
1
1
1
1
1
1
1
1
1
1
1
1
1
1
1
1
1
1
1
1
1
1
1
1
1
1
1
1
1
1.00496
2.2969
2.68476
2.69042
2.69506
2.69992
2.70429
2.70847
2.71245
2.71624
2.71981
2.72329
2.72677
2.73025
2.73383
2.73732
2.74082
2.74422
2.74755
2.75072
2.75375
2.75657
2.75922
2.76173
2.76422
2.76674
2.76926
2.77167
2.77386
2.77579
2.77755
2.77929
2.78115
2.78319
2.78535
2.78748
2.78939
2.79095
2.79216
2.79305
2.79374
2.79431
2.79488
2.79547
2.79607
2.79662
2.79701
2.79736
1
1
1
1
1
1
1
1
1
1
1
1
1
1
1
1
1
1
1
1
1
1
1
1
1
1
1
1
1
1
1
1
1
1
1
1
1
1
1
1
1
1
1
1
1
1
1
1
1.00002
2.20842
2.67914
2.68746
2.69149
2.69658
2.7009
2.70505
2.70912
2.7132
2.7172
2.72101
2.72466
2.72818
2.73163
2.73483
2.73805
2.74131
2.74471
2.7481
2.75139
2.75441
2.75709
2.75949
2.76179
2.76416
2.76662
2.76907
2.77133
2.77333
2.77509
2.77677
2.77854
2.78052
2.78267
2.78484
2.7868
2.78839
2.78957
2.79043
2.79107
2.79162
2.79218
2.79276
2.79334
2.79385
2.79419
2.79452
1
1
1
1
1
1
1
1
1
1
1
1
1
1
1
1
1
1
1
1
1
1
1
1
1
1
1
1
1
1
1
1
1
1
1
1
1
1
1
1
1
1
1
1
1
1
1
1
1
2.08235
2.66991
2.68381
2.68715
2.69232
2.69704
2.7018
2.70631
2.71058
2.71461
2.71833
2.7219
2.72533
2.72867
2.73187
2.73509
2.73839
2.74183
2.74529
2.74873
2.75187
2.75461
2.75696
2.75913
2.76136
2.76372
2.76616
2.76849
2.77055
2.77232
2.77393
2.77558
2.77745
2.77956
2.78174
2.78373
2.78533
2.78648
2.78727
2.78783
2.78831
2.78881
2.78936
2.78992
2.79042
2.79074
2.79111
1
1
1
1
1
1
1
1
1
1
1
1
1
1
1
1
1
1
1
1
1
1
1
1
1
1
1
1
1
1
1
1
1
1
1
1
1
1
1
1
1
1
1
1
1
1
1
1
1
1.91081
2.64203
2.67617
2.68052
2.68616
2.69143
2.6968
2.70183
2.7064
2.71049
2.71413
2.71754
2.72089
2.72425
2.72764
2.73105
2.73445
2.73788
2.74127
2.74466
2.74784
2.75065
2.75304
2.75518
2.75733
2.75964
2.76207
2.76446
2.76659
2.76839
2.76994
2.77149
2.77325
2.77529
2.77746
2.77946
2.78107
2.7822
2.78295
2.78346
2.78389
2.78435
2.78489
2.78544
2.78597
2.78632
2.78675
1
1
1
1
1
1
1
1
1
1
1
1
1
1
1
1
1
1
1
1
1
1
1
1
1
1
1
1
1
1
1
1
1
1
1
1
1
1
1
1
1
1
1
1
1
1
1
1
1
1.68562
2.58659
2.66976
2.67536
2.68089
2.68591
2.69125
2.69658
2.70148
2.70567
2.70928
2.7125
2.71574
2.71914
2.72278
2.72643
2.72996
2.73335
2.73657
2.73979
2.74291
2.74576
2.74823
2.7504
2.7525
2.75471
2.75706
2.75938
2.76148
2.76323
2.76473
2.76621
2.76792
2.76994
2.77209
2.77408
2.77567
2.77677
2.77746
2.77791
2.77825
2.77862
2.77906
2.77955
2.78008
2.78043
2.7809
1
1
1
1
1
1
1
1
1
1
1
1
1
1
1
1
1
1
1
1
1
1
1
1
1
1
1
1
1
1
1
1
1
1
1
1
1
1
1
1
1
1
1
1
1
1
1
1
1
1.3777
2.48021
2.67068
2.67153
2.67699
2.6809
2.68564
2.69086
2.69592
2.70022
2.70386
2.70699
2.71011
2.71352
2.71733
2.72119
2.7248
2.72815
2.73118
2.73417
2.73719
2.74006
2.74268
2.74498
2.74713
2.7493
2.75153
2.7537
2.75564
2.75725
2.75862
2.75998
2.76153
2.76335
2.76526
2.76699
2.76834
2.76927
2.76988
2.77029
2.77065
2.77103
2.77147
2.77196
2.77251
2.77292
2.77342
1
1
1
1
1
1
1
1
1
1
1
1
1
1
1
1
1
1
1
1
1
1
1
1
1
1
1
1
1
1
1
1
1
1
1
1
1
1
1
1
1
1
1
1
1
1
1
1
1
1.01568
2.29709
2.67775
2.67723
2.67924
2.68173
2.68494
2.68866
2.69256
2.69614
2.69941
2.70231
2.70508
2.70811
2.7116
2.71523
2.71864
2.72173
2.72445
2.72705
2.72978
2.73253
2.73518
2.73759
2.73979
2.7419
2.74399
2.74598
2.74778
2.74933
2.75069
2.75207
2.75361
2.75533
2.75706
2.75858
2.75974
2.76051
2.76099
2.76126
2.76139
2.76145
2.7615
2.76158
2.76181
2.76204
2.7624
1
1
1
1
1
1
1
1
1
1
1
1
1
1
1
1
1
1
1
1
1
1
1
1
1
1
1
1
1
1
1
1
1
1
1
1
1
1
1
1
1
1
1
1
1
1
1
1
1
1.00003
2.01414
2.64534
2.66253
2.66687
2.67176
2.67608
2.68001
2.68375
2.68723
2.69045
2.69342
2.6962
2.69911
2.7024
2.70591
2.70924
2.71224
2.71487
2.71728
2.71982
2.72252
2.72523
2.72779
2.73008
2.73216
2.73409
2.73589
2.73754
2.73903
2.74041
2.74178
2.74321
2.74465
2.74594
2.74693
2.74753
2.74776
2.74772
2.74755
2.74735
2.74725
2.74732
2.74738
2.74753
2.74756
2.74776
1
1
1
1
1
1
1
1
1
1
1
1
1
1
1
1
1
1
1
1
1
1
1
1
1
1
1
1
1
1
1
1
1
1
1
1
1
1
1
1
1
1
1
1
1
1
1
1
1
1
1.54132
2.51374
2.64756
2.65549
2.66343
2.66842
2.67255
2.6763
2.67989
2.68329
2.68649
2.68946
2.69234
2.69537
2.69851
2.70149
2.70416
2.70651
2.70863
2.71077
2.71313
2.71559
2.71797
2.72007
2.72184
2.72336
2.72472
2.72599
2.72719
2.72838
2.72955
2.73068
2.73166
2.73244
2.73295
2.73308
2.7329
2.73256
2.73207
2.73143
2.73062
2.72964
2.72811
2.72593
2.72333
2.72123
1
1
1
1
1
1
1
1
1
1
1
1
1
1
1
1
1
1
1
1
1
1
1
1
1
1
1
1
1
1
1
1
1
1
1
1
1
1
1
1
1
1
1
1
1
1
1
1
1
1
1.02736
2.24836
2.65482
2.65518
2.65871
2.66212
2.66507
2.66767
2.6704
2.67341
2.67664
2.6799
2.68295
2.68581
2.68856
2.69114
2.69351
2.69566
2.69759
2.69939
2.7013
2.70338
2.70546
2.70731
2.70878
2.70989
2.71081
2.71162
2.71231
2.71309
2.71386
2.71446
2.71471
2.71456
2.71407
2.71313
2.71176
2.70987
2.70731
2.70406
2.70037
2.69659
2.69331
2.69003
2.68777
2.68653
1
1
1
1
1
1
1
1
1
1
1
1
1
1
1
1
1
1
1
1
1
1
1
1
1
1
1
1
1
1
1
1
1
1
1
1
1
1
1
1
1
1
1
1
1
1
1
1
1
1
1.00005
1.74815
2.55196
2.63682
2.64377
2.64805
2.65084
2.65339
2.65619
2.65954
2.66336
2.66725
2.67079
2.67384
2.67651
2.679
2.68139
2.68362
2.68557
2.68718
2.68854
2.68992
2.69141
2.69283
2.69403
2.69489
2.69526
2.69529
2.69523
2.6952
2.69516
2.69485
2.69397
2.69243
2.69033
2.6878
2.68485
2.68133
2.67697
2.67173
2.66578
2.65977
2.65441
2.65261
2.65045
2.66531
1
1
1
1
1
1
1
1
1
1
1
1
1
1
1
1
1
1
1
1
1
1
1
1
1
1
1
1
1
1
1
1
1
1
1
1
1
1
1
1
1
1
1
1
1
1
1
1
1
1
1
1.09727
2.3301
2.63427
2.63453
2.63742
2.64026
2.64274
2.64509
2.64795
2.65157
2.65558
2.65933
2.6624
2.66489
2.66717
2.66949
2.67181
2.67393
2.67561
2.67659
2.67733
2.67814
2.67905
2.67984
2.68024
2.68012
2.6796
2.67875
2.67776
2.67668
2.67526
2.67315
2.67013
2.66619
2.66155
2.65618
2.64979
2.64145
2.63036
2.61489
2.59404
2.56401
2.52212
2.46009
2.33574
1
1
1
1
1
1
1
1
1
1
1
1
1
1
1
1
1
1
1
1
1
1
1
1
1
1
1
1
1
1
1
1
1
1
1
1
1
1
1
1
1
1
1
1
1
1
1
1
1
1
1
1.00074
2.00082
2.60554
2.61676
2.62085
2.62465
2.62832
2.6315
2.63497
2.63908
2.6435
2.6474
2.65032
2.65244
2.65438
2.65665
2.65937
2.6621
2.66424
2.6653
2.6658
2.66606
2.66639
2.66669
2.66672
2.66641
2.66553
2.66407
2.66216
2.65996
2.65739
2.65412
2.64979
2.64414
2.63733
2.62923
2.61973
2.60732
2.59107
2.56784
2.53671
2.49183
2.43619
2.32343
2.16444
1
1
1
1
1
1
1
1
1
1
1
1
1
1
1
1
1
1
1
1
1
1
1
1
1
1
1
1
1
1
1
1
1
1
1
1
1
1
1
1
1
1
1
1
1
1
1
1
1
1
1
0.999999
1.39454
2.43828
2.59941
2.60765
2.61294
2.61597
2.61888
2.62234
2.6266
2.63135
2.63562
2.63869
2.64062
2.64215
2.64411
2.64675
2.64966
2.65208
2.6534
2.65384
2.65365
2.65337
2.65315
2.65284
2.65222
2.651
2.64899
2.64622
2.64281
2.63887
2.63417
2.62842
2.62107
2.61219
2.6014
2.58881
2.57297
2.55262
2.52504
2.48754
2.43891
2.36474
2.25976
2.12419
1
1
1
1
1
1
1
1
1
1
1
1
1
1
1
1
1
1
1
1
1
1
1
1
1
1
1
1
1
1
1
1
1
1
1
1
1
1
1
1
1
1
1
1
1
1
1
1
1
1
1
1
1.01537
2.12889
2.6022
2.6006
2.60093
2.60263
2.60525
2.60856
2.61259
2.6175
2.62223
2.62576
2.62784
2.62921
2.63069
2.63281
2.63544
2.63794
2.63964
2.64024
2.63993
2.6393
2.63857
2.63781
2.63681
2.6353
2.63294
2.62961
2.62524
2.62003
2.61387
2.6067
2.59785
2.58722
2.57431
2.55911
2.54076
2.51777
2.48829
2.44922
2.3989
2.33079
2.24647
2.14432
1
1
1
1
1
1
1
1
1
1
1
1
1
1
1
1
1
1
1
1
1
1
1
1
1
1
1
1
1
1
1
1
1
1
1
1
1
1
1
1
1
1
1
1
1
1
1
1
1
1
1
1
1.00001
1.47811
2.4542
2.58552
2.58907
2.59262
2.59472
2.59722
2.60032
2.60462
2.6088
2.61252
2.61503
2.61631
2.61744
2.61897
2.62107
2.62328
2.62493
2.62558
2.62529
2.62456
2.62353
2.62233
2.62084
2.6189
2.61616
2.61241
2.6074
2.60129
2.59402
2.58563
2.57557
2.56353
2.54912
2.53217
2.51223
2.48799
2.4586
2.42038
2.3741
2.31666
2.2507
2.17077
1
1
1
1
1
1
1
1
1
1
1
1
1
1
1
1
1
1
1
1
1
1
1
1
1
1
1
1
1
1
1
1
1
1
1
1
1
1
1
1
1
1
1
1
1
1
1
1
1
1
1
1
1
1.0226
2.12988
2.58383
2.58357
2.584
2.58581
2.58856
2.59155
2.59485
2.59811
2.60085
2.60263
2.60314
2.60361
2.60451
2.60612
2.60807
2.60964
2.61036
2.61006
2.60924
2.60796
2.60638
2.6044
2.60195
2.59871
2.59454
2.58912
2.58251
2.57461
2.56544
2.55452
2.54157
2.52633
2.50853
2.48795
2.46352
2.43485
2.39967
2.3591
2.31084
2.25729
2.19427
1
1
1
1
1
1
1
1
1
1
1
1
1
1
1
1
1
1
1
1
1
1
1
1
1
1
1
1
1
1
1
1
1
1
1
1
1
1
1
1
1
1
1
1
1
1
1
1
1
1
1
1
1
1.00003
1.41948
2.41665
2.57319
2.57333
2.57629
2.57886
2.58203
2.58529
2.58822
2.59007
2.59078
2.59048
2.59008
2.59015
2.59089
2.59231
2.5937
2.5944
2.59405
2.59315
2.59169
2.58987
2.58759
2.58469
2.58092
2.57625
2.57051
2.56373
2.5557
2.54622
2.53493
2.52163
2.50616
2.48825
2.46792
2.44393
2.4165
2.38517
2.349
2.30763
2.263
2.21159
1
1
1
1
1
1
1
1
1
1
1
1
1
1
1
1
1
1
1
1
1
1
1
1
1
1
1
1
1
1
1
1
1
1
1
1
1
1
1
1
1
1
1
1
1
1
1
1
1
1
1
1
1
1
1.01579
2.0409
2.55497
2.5648
2.56635
2.5695
2.57304
2.57648
2.57927
2.58038
2.58032
2.57961
2.57837
2.57748
2.5775
2.578
2.57886
2.57924
2.57867
2.57739
2.57541
2.57314
2.57054
2.56731
2.56314
2.558
2.55203
2.54524
2.53719
2.5276
2.51622
2.503
2.4879
2.47052
2.45131
2.42835
2.40279
2.37464
2.342
2.30684
2.26846
2.2246
1
1
1
1
1
1
1
1
1
1
1
1
1
1
1
1
1
1
1
1
1
1
1
1
1
1
1
1
1
1
1
1
1
1
1
1
1
1
1
1
1
1
1
1
1
1
1
1
1
1
1
1
1
1
1.00002
1.22569
2.33811
2.56022
2.55632
2.55905
2.56198
2.56544
2.568
2.56874
2.56849
2.56769
2.56618
2.56476
2.56423
2.564
2.56412
2.56411
2.5633
2.56152
2.5589
2.55612
2.5532
2.54976
2.54537
2.53996
2.53393
2.52721
2.51919
2.50961
2.49837
2.48545
2.47104
2.45452
2.43688
2.41556
2.39223
2.36678
2.33762
2.30621
2.27236
2.2348
1
1
1
1
1
1
1
1
1
1
1
1
1
1
1
1
1
1
1
1
1
1
1
1
1
1
1
1
1
1
1
1
1
1
1
1
1
1
1
1
1
1
1
1
1
1
1
1
1
1
1
1
1
1
1
1.00365
1.84954
2.4963
2.53342
2.54233
2.54896
2.5522
2.55449
2.55546
2.55534
2.55478
2.55366
2.55245
2.5519
2.55129
2.5507
2.55009
2.54885
2.54671
2.54346
2.53999
2.53641
2.53249
2.52781
2.52238
2.51642
2.50966
2.50163
2.49203
2.48103
2.46849
2.45493
2.43935
2.42343
2.4042
2.3833
2.36044
2.33456
2.30568
2.276
2.24382
1
1
1
1
1
1
1
1
1
1
1
1
1
1
1
1
1
1
1
1
1
1
1
1
1
1
1
1
1
1
1
1
1
1
1
1
1
1
1
1
1
1
1
1
1
1
1
1
1
1
1
1
1
1
1
1
1.10008
2.18881
2.53273
2.53444
2.53765
2.53941
2.54101
2.54214
2.54241
2.54219
2.54165
2.54091
2.54051
2.53978
2.53869
2.53736
2.53561
2.53307
2.52932
2.52511
2.52066
2.51611
2.51108
2.50582
2.49994
2.49303
2.48491
2.47529
2.4646
2.45249
2.43969
2.42499
2.41059
2.39337
2.37487
2.35426
2.33114
2.30501
2.27912
2.2509
1
1
1
1
1
1
1
1
1
1
1
1
1
1
1
1
1
1
1
1
1
1
1
1
1
1
1
1
1
1
1
1
1
1
1
1
1
1
1
1
1
1
1
1
1
1
1
1
1
1
1
1
1
1
1
1
1.00067
1.43765
2.35751
2.51621
2.51625
2.52016
2.52343
2.52578
2.52717
2.52753
2.52751
2.52735
2.52725
2.52701
2.52606
2.52453
2.52248
2.5197
2.51577
2.51106
2.5059
2.50092
2.49559
2.49013
2.48418
2.47711
2.46899
2.45947
2.44901
2.43742
2.42525
2.41154
2.39809
2.38275
2.36621
2.34731
2.32687
2.30384
2.28091
2.25559
1
1
1
1
1
1
1
1
1
1
1
1
1
1
1
1
1
1
1
1
1
1
1
1
1
1
1
1
1
1
1
1
1
1
1
1
1
1
1
1
1
1
1
1
1
1
1
1
1
1
1
1
1
1
1
1
1
1.01716
1.88817
2.47152
2.50044
2.50556
2.50881
2.51059
2.51214
2.51273
2.51294
2.51298
2.51302
2.51324
2.51266
2.51132
2.50935
2.50656
2.50261
2.49766
2.4921
2.48703
2.48166
2.47584
2.46973
2.4627
2.45437
2.445
2.43478
2.42369
2.41214
2.39943
2.38645
2.37244
2.357
2.33967
2.32155
2.30141
2.28061
2.25797
1
1
1
1
1
1
1
1
1
1
1
1
1
1
1
1
1
1
1
1
1
1
1
1
1
1
1
1
1
1
1
1
1
1
1
1
1
1
1
1
1
1
1
1
1
1
1
1
1
1
1
1
1
1
1
1
1
1.00003
1.11596
2.12231
2.48231
2.49868
2.49688
2.49795
2.49869
2.49884
2.49887
2.49882
2.49892
2.49928
2.49894
2.4978
2.49595
2.49328
2.48937
2.48434
2.47879
2.47366
2.46859
2.4627
2.45653
2.44953
2.44132
2.43182
2.42189
2.4112
2.40013
2.38825
2.37559
2.36231
2.34772
2.33194
2.31549
2.29774
2.27883
2.25882
1
1
1
1
1
1
1
1
1
1
1
1
1
1
1
1
1
1
1
1
1
1
1
1
1
1
1
1
1
1
1
1
1
1
1
1
1
1
1
1
1
1
1
1
1
1
1
1
1
1
1
1
1
1
1
1
1
1
1.00091
1.26522
2.26943
2.48183
2.48044
2.48129
2.48138
2.48163
2.48209
2.48269
2.48336
2.48416
2.48403
2.48321
2.48153
2.47913
2.47568
2.47096
2.46578
2.46067
2.45589
2.4501
2.44409
2.43735
2.42959
2.42044
2.41079
2.40056
2.38971
2.37819
2.36586
2.35295
2.33912
2.32467
2.30942
2.29344
2.27605
2.25831
1
1
1
1
1
1
1
1
1
1
1
1
1
1
1
1
1
1
1
1
1
1
1
1
1
1
1
1
1
1
1
1
1
1
1
1
1
1
1
1
1
1
1
1
1
1
1
1
1
1
1
1
1
1
1
1
1
1
1
1.00505
1.65332
2.37647
2.45727
2.45468
2.45616
2.45819
2.46081
2.46321
2.4654
2.46726
2.46764
2.46726
2.46612
2.46398
2.46103
2.45704
2.45245
2.44768
2.44312
2.43772
2.43204
2.42571
2.41846
2.41005
2.40088
2.39105
2.38036
2.36901
2.35703
2.34438
2.33134
2.31787
2.30357
2.28884
2.27282
2.2568
1
1
1
1
1
1
1
1
1
1
1
1
1
1
1
1
1
1
1
1
1
1
1
1
1
1
1
1
1
1
1
1
1
1
1
1
1
1
1
1
1
1
1
1
1
1
1
1
1
1
1
1
1
1
1
1
1
1
1
1.00001
1.04811
1.90588
2.41676
2.44369
2.44303
2.44478
2.44651
2.44819
2.4499
2.45136
2.45161
2.45119
2.45015
2.44829
2.44553
2.44254
2.43853
2.43431
2.43009
2.42523
2.42
2.41416
2.40748
2.39988
2.39141
2.38205
2.3718
2.36087
2.34936
2.3371
2.3248
2.31199
2.29849
2.28462
2.26976
2.2547
1
1
1
1
1
1
1
1
1
1
1
1
1
1
1
1
1
1
1
1
1
1
1
1
1
1
1
1
1
1
1
1
1
1
1
1
1
1
1
1
1
1
1
1
1
1
1
1
1
1
1
1
1
1
1
1
1
1
1
1
1.0002
1.13084
2.0234
2.41128
2.4343
2.43717
2.43815
2.43787
2.43766
2.43738
2.43677
2.43571
2.43424
2.43228
2.42959
2.42677
2.42351
2.41987
2.41608
2.4119
2.40727
2.40203
2.39598
2.38906
2.3813
2.37263
2.36307
2.35289
2.34201
2.3304
2.31875
2.30654
2.29377
2.28074
2.26694
2.25261
1
1
1
1
1
1
1
1
1
1
1
1
1
1
1
1
1
1
1
1
1
1
1
1
1
1
1
1
1
1
1
1
1
1
1
1
1
1
1
1
1
1
1
1
1
1
1
1
1
1
1
1
1
1
1
1
1
1
1
1
1
1.0012
1.21053
2.10066
2.39702
2.42904
2.4285
2.42804
2.42712
2.42575
2.42417
2.42239
2.42026
2.41768
2.41469
2.41169
2.40862
2.40537
2.40194
2.39822
2.39409
2.3894
2.38397
2.37767
2.37052
2.36257
2.35379
2.34435
2.33417
2.32333
2.31245
2.30108
2.28914
2.27705
2.26426
2.25081
1
1
1
1
1
1
1
1
1
1
1
1
1
1
1
1
1
1
1
1
1
1
1
1
1
1
1
1
1
1
1
1
1
1
1
1
1
1
1
1
1
1
1
1
1
1
1
1
1
1
1
1
1
1
1
1
1
1
1
1
1
1
1.00311
1.29279
2.1524
2.38899
2.41048
2.41359
2.41351
2.41291
2.41159
2.40981
2.40742
2.40457
2.40139
2.39814
2.39486
2.39152
2.3881
2.38451
2.38061
2.37624
2.37122
2.36537
2.35869
2.35136
2.34333
2.33458
2.32506
2.3151
2.30518
2.29485
2.28391
2.27292
2.26125
2.24894
1
1
1
1
1
1
1
1
1
1
1
1
1
1
1
1
1
1
1
1
1
1
1
1
1
1
1
1
1
1
1
1
1
1
1
1
1
1
1
1
1
1
1
1
1
1
1
1
1
1
1
1
1
1
1
1
1
1
1
1
1
1
1
1.00634
1.37468
2.19214
2.37573
2.39088
2.3951
2.39601
2.39597
2.39518
2.39352
2.3913
2.38854
2.38548
2.3823
2.379
2.37557
2.37194
2.368
2.36358
2.35857
2.35292
2.34656
2.33966
2.33228
2.32421
2.31536
2.30617
2.29719
2.28796
2.27813
2.2682
2.25765
2.24649
1
1
1
1
1
1
1
1
1
1
1
1
1
1
1
1
1
1
1
1
1
1
1
1
1
1
1
1
1
1
1
1
1
1
1
1
1
1
1
1
1
1
1
1
1
1
1
1
1
1
1
1
1
1
1
1
1
1
1
1
1
1
1
1.00001
1.01141
1.44806
2.22359
2.36624
2.37058
2.37352
2.37483
2.37572
2.37552
2.37465
2.37309
2.37112
2.36877
2.36605
2.36298
2.35952
2.35563
2.35119
2.34616
2.34056
2.33438
2.32774
2.32073
2.3132
2.30508
2.29662
2.28837
2.28006
2.27127
2.26229
2.25281
2.24272
1
1
1
1
1
1
1
1
1
1
1
1
1
1
1
1
1
1
1
1
1
1
1
1
1
1
1
1
1
1
1
1
1
1
1
1
1
1
1
1
1
1
1
1
1
1
1
1
1
1
1
1
1
1
1
1
1
1
1
1
1
1
1
1
1.00003
1.01807
1.54374
2.24975
2.35387
2.35273
2.35395
2.3542
2.35456
2.35491
2.35479
2.35426
2.35314
2.35141
2.34908
2.34618
2.34271
2.33862
2.33389
2.32853
2.32263
2.31627
2.30954
2.3024
2.29484
2.28696
2.27919
2.2715
2.26353
2.25531
2.24666
2.23746
1
1
1
1
1
1
1
1
1
1
1
1
1
1
1
1
1
1
1
1
1
1
1
1
1
1
1
1
1
1
1
1
1
1
1
1
1
1
1
1
1
1
1
1
1
1
1
1
1
1
1
1
1
1
1
1
1
1
1
1
1
1
1
1
1
1.00005
1.03058
1.61021
2.26114
2.34091
2.33816
2.33664
2.33608
2.33584
2.33587
2.33573
2.33525
2.33429
2.33281
2.33076
2.32811
2.32483
2.32087
2.31623
2.31096
2.3051
2.29877
2.29198
2.28486
2.27747
2.27012
2.26284
2.25541
2.24758
2.23939
2.2307
1
1
1
1
1
1
1
1
1
1
1
1
1
1
1
1
1
1
1
1
1
1
1
1
1
1
1
1
1
1
1
1
1
1
1
1
1
1
1
1
1
1
1
1
1
1
1
1
1
1
1
1
1
1
1
1
1
1
1
1
1
1
1
1
1
1
1.00012
1.04297
1.63205
2.25493
2.32846
2.32564
2.32368
2.32213
2.32078
2.3195
2.31819
2.31672
2.31513
2.31341
2.3114
2.30895
2.30596
2.3023
2.29797
2.29294
2.28731
2.28115
2.27463
2.26785
2.26094
2.25397
2.24681
2.23915
2.23102
2.22271
1
1
1
1
1
1
1
1
1
1
1
1
1
1
1
1
1
1
1
1
1
1
1
1
1
1
1
1
1
1
1
1
1
1
1
1
1
1
1
1
1
1
1
1
1
1
1
1
1
1
1
1
1
1
1
1
1
1
1
1
1
1
1
1
1
1
1
1.00021
1.04855
1.61912
2.23812
2.31754
2.31522
2.31297
2.31026
2.30743
2.30463
2.30182
2.29916
2.29668
2.29434
2.29199
2.28945
2.28653
2.2831
2.27905
2.27439
2.26914
2.26343
2.25742
2.2511
2.24442
2.2375
2.22999
2.22223
2.21453
1
1
1
1
1
1
1
1
1
1
1
1
1
1
1
1
1
1
1
1
1
1
1
1
1
1
1
1
1
1
1
1
1
1
1
1
1
1
1
1
1
1
1
1
1
1
1
1
1
1
1
1
1
1
1
1
1
1
1
1
1
1
1
1
1
1
1
1
1.00026
1.04652
1.6011
2.21677
2.30548
2.30402
2.30096
2.29775
2.29407
2.29051
2.28696
2.28341
2.28002
2.27684
2.27377
2.2707
2.26748
2.26388
2.25992
2.25546
2.25051
2.24506
2.2393
2.23313
2.22687
2.22015
2.21454
2.20966
1
1
1
1
1
1
1
1
1
1
1
1
1
1
1
1
1
1
1
1
1
1
1
1
1
1
1
1
1
1
1
1
1
1
1
1
1
1
1
1
1
1
1
1
1
1
1
1
1
1
1
1
1
1
1
1
1
1
1
1
1
1
1
1
1
1
1
1
1
1.00024
1.04296
1.57078
2.18804
2.29227
2.29176
2.28848
2.28505
2.28119
2.27737
2.27333
2.26922
2.26511
2.2611
2.25716
2.25325
2.24925
2.24504
2.24053
2.23587
2.23093
2.2259
2.22104
2.21693
2.2173
2.22021
2.22755
1
1
1
1
1
1
1
1
1
1
1
1
1
1
1
1
1
1
1
1
1
1
1
1
1
1
1
1
1
1
1
1
1
1
1
1
1
1
1
1
1
1
1
1
1
1
1
1
1
1
1
1
1
1
1
1
1
1
1
1
1
1
1
1
1
1
1
1
1
1
1.00022
1.03711
1.52568
2.15113
2.27472
2.27897
2.2757
2.27249
2.2687
2.26468
2.2604
2.25597
2.25134
2.24664
2.24179
2.23684
2.23189
2.22671
2.22196
2.21747
2.2162
2.21959
2.226
2.24156
2.26189
2.28737
1
1
1
1
1
1
1
1
1
1
1
1
1
1
1
1
1
1
1
1
1
1
1
1
1
1
1
1
1
1
1
1
1
1
1
1
1
1
1
1
1
1
1
1
1
1
1
1
1
1
1
1
1
1
1
1
1
1
1
1
1
1
1
1
1
1
1
1
1
1
1
1.00017
1.02946
1.46781
2.09836
2.25251
2.26727
2.26326
2.25998
2.25606
2.25204
2.24772
2.24299
2.23788
2.23243
2.22677
2.22119
2.21609
2.21673
2.22049
2.23201
2.25329
2.27983
2.30856
2.3283
2.3415
1
1
1
1
1
1
1
1
1
1
1
1
1
1
1
1
1
1
1
1
1
1
1
1
1
1
1
1
1
1
1
1
1
1
1
1
1
1
1
1
1
1
1
1
1
1
1
1
1
1
1
1
1
1
1
1
1
1
1
1
1
1
1
1
1
1
1
1
1
1
1
1
1.00012
1.02147
1.39606
2.02302
2.22624
2.25587
2.24942
2.24624
2.24266
2.23869
2.23411
2.22924
2.2238
2.21901
2.22018
2.22476
2.24115
2.26668
2.29984
2.3281
2.34802
2.35966
2.36308
2.36176
1
1
1
1
1
1
1
1
1
1
1
1
1
1
1
1
1
1
1
1
1
1
1
1
1
1
1
1
1
1
1
1
1
1
1
1
1
1
1
1
1
1
1
1
1
1
1
1
1
1
1
1
1
1
1
1
1
1
1
1
1
1
1
1
1
1
1
1
1
1
1
1
1
1.00008
1.01407
1.31193
1.91662
2.1958
2.23857
2.23419
2.23214
2.22849
2.22443
2.22114
2.22301
2.23125
2.25218
2.28602
2.32413
2.35196
2.37054
2.37861
2.37643
2.37246
2.36828
2.36245
1
1
1
1
1
1
1
1
1
1
1
1
1
1
1
1
1
1
1
1
1
1
1
1
1
1
1
1
1
1
1
1
1
1
1
1
1
1
1
1
1
1
1
1
1
1
1
1
1
1
1
1
1
1
1
1
1
1
1
1
1
1
1
1
1
1
1
1
1
1
1
1
1
1
1.00004
1.00816
1.21862
1.79263
2.15268
2.21841
2.21396
2.21211
2.21516
2.22953
2.25922
2.30114
2.34366
2.37702
2.39115
2.39656
2.39533
2.39067
2.38214
2.37314
2.36782
2.3627
1
1
1
1
1
1
1
1
1
1
1
1
1
1
1
1
1
1
1
1
1
1
1
1
1
1
1
1
1
1
1
1
1
1
1
1
1
1
1
1
1
1
1
1
1
1
1
1
1
1
1
1
1
1
1
1
1
1
1
1
1
1
1
1
1
1
1
1
1
1
1
1
1
1
1
1.00002
1.00401
1.13556
1.65686
2.10638
2.18397
2.21792
2.24897
2.30188
2.35257
2.38407
2.40367
2.40688
2.39891
2.39216
2.38782
2.38349
2.37726
2.37033
2.36673
2.36411
1
1
1
1
1
1
1
1
1
1
1
1
1
1
1
1
1
1
1
1
1
1
1
1
1
1
1
1
1
1
1
1
1
1
1
1
1
1
1
1
1
1
1
1
1
1
1
1
1
1
1
1
1
1
1
1
1
1
1
1
1
1
1
1
1
1
1
1
1
1
1
1
1
1
1
1
1.00001
1.00166
1.07392
1.52168
2.03737
2.28937
2.35071
2.38645
2.40016
2.40176
2.3996
2.39618
2.38896
2.38201
2.37689
2.37403
2.37049
2.36602
2.36448
2.36336
1
1
1
1
1
1
1
1
1
1
1
1
1
1
1
1
1
1
1
1
1
1
1
1
1
1
1
1
1
1
1
1
1
1
1
1
1
1
1
1
1
1
1
1
1
1
1
1
1
1
1
1
1
1
1
1
1
1
1
1
1
1
1
1
1
1
1
1
1
1
1
1
1
1
1
1
1
1
1.00062
1.03384
1.70773
2.49061
2.48072
2.45828
2.44023
2.42531
2.41206
2.40133
2.38831
2.3787
2.37322
2.3705
2.36808
2.36468
2.36368
2.36232
1
1
1
1
1
1
1
1
1
1
1
1
1
1
1
1
1
1
1
1
1
1
1
1
1
1
1
1
1
1
1
1
1
1
1
1
1
1
1
1
1
1
1
1
1
1
1
1
1
1
1
1
1
1
1
1
1
1
1
1
1
1
1
1
1
1
1
1
1
1
1
1
1
1
1
1
1
1
1
1.00017
1.46283
2.57861
2.5774
2.54359
2.5085
2.47768
2.45176
2.43127
2.41438
2.40328
2.39514
2.3881
2.38179
2.37561
2.3709
2.36619
1
1
1
1
1
1
1
1
1
1
1
1
1
1
1
1
1
1
1
1
1
1
1
1
1
1
1
1
1
1
1
1
1
1
1
1
1
1
1
1
1
1
1
1
1
1
1
1
1
1
1
1
1
1
1
1
1
1
1
1
1
1
1
1
1
1
1
1
1
1
1
1
1
1
1
1
1
1
1
1
1.07864
2.39275
2.66887
2.63782
2.61019
2.57856
2.54905
2.52186
2.49747
2.47565
2.45665
2.44024
2.42619
2.41351
2.40141
2.38955
1
1
1
1
1
1
1
1
1
1
1
1
1
1
1
1
1
1
1
1
1
1
1
1
1
1
1
1
1
1
1
1
1
1
1
1
1
1
1
1
1
1
1
1
1
1
1
1
1
1
1
1
1
1
1
1
1
1
1
1
1
1
1
1
1
1
1
1
1
1
1
1
1
1
1
1
1
1
1
1
1.00059
2.08022
2.66239
2.66001
2.65193
2.64004
2.62384
2.60445
2.58308
2.55978
2.53608
2.51309
2.49071
2.47032
2.45129
2.4338
1
1
1
1
1
1
1
1
1
1
1
1
1
1
1
1
1
1
1
1
1
1
1
1
1
1
1
1
1
1
1
1
1
1
1
1
1
1
1
1
1
1
1
1
1
1
1
1
1
1
1
1
1
1
1
1
1
1
1
1
1
1
1
1
1
1
1
1
1
1
1
1
1
1
1
1
1
1
1
1
1
1.62276
2.5456
2.66273
2.65573
2.65031
2.64573
2.63993
2.63072
2.61864
2.60407
2.58699
2.5682
2.5489
2.52944
2.51026
1
1
1
1
1
1
1
1
1
1
1
1
1
1
1
1
1
1
1
1
1
1
1
1
1
1
1
1
1
1
1
1
1
1
1
1
1
1
1
1
1
1
1
1
1
1
1
1
1
1
1
1
1
1
1
1
1
1
1
1
1
1
1
1
1
1
1
1
1
1
1
1
1
1
1
1
1
1
1
1
1
1.09751
2.35003
2.66068
2.65746
2.65453
2.65113
2.64801
2.64481
2.63989
2.63328
2.62459
2.614
2.60187
2.58845
2.57401
1
1
1
1
1
1
1
1
1
1
1
1
1
1
1
1
1
1
1
1
1
1
1
1
1
1
1
1
1
1
1
1
1
1
1
1
1
1
1
1
1
1
1
1
1
1
1
1
1
1
1
1
1
1
1
1
1
1
1
1
1
1
1
1
1
1
1
1
1
1
1
1
1
1
1
1
1
1
1
1
1
1.00071
2.11593
2.63961
2.65343
2.65118
2.64995
2.64791
2.64517
2.64187
2.63819
2.63407
2.62934
2.62372
2.61688
2.60866
1
1
1
1
1
1
1
1
1
1
1
1
1
1
1
1
1
1
1
1
1
1
1
1
1
1
1
1
1
1
1
1
1
1
1
1
1
1
1
1
1
1
1
1
1
1
1
1
1
1
1
1
1
1
1
1
1
1
1
1
1
1
1
1
1
1
1
1
1
1
1
1
1
1
1
1
1
1
1
1
1
1
1.76289
2.5758
2.65535
2.65164
2.65033
2.64817
2.64596
2.64357
2.64094
2.6381
2.63495
2.63114
2.62663
2.6211
1
1
1
1
1
1
1
1
1
1
1
1
1
1
1
1
1
1
1
1
1
1
1
1
1
1
1
1
1
1
1
1
1
1
1
1
1
1
1
1
1
1
1
1
1
1
1
1
1
1
1
1
1
1
1
1
1
1
1
1
1
1
1
1
1
1
1
1
1
1
1
1
1
1
1
1
1
1
1
1
1
1
1.33067
2.44806
2.65525
2.6507
2.64972
2.64792
2.64566
2.64322
2.64064
2.63785
2.63483
2.63145
2.62791
2.62423
1
1
1
1
1
1
1
1
1
1
1
1
1
1
1
1
1
1
1
1
1
1
1
1
1
1
1
1
1
1
1
1
1
1
1
1
1
1
1
1
1
1
1
1
1
1
1
1
1
1
1
1
1
1
1
1
1
1
1
1
1
1
1
1
1
1
1
1
1
1
1
1
1
1
1
1
1
1
1
1
1
1
1.01141
2.29187
2.66556
2.66252
2.6561
2.65229
2.64877
2.64559
2.6425
2.63932
2.63603
2.63255
2.62899
2.62535
1
1
1
1
1
1
1
1
1
1
1
1
1
1
1
1
1
1
1
1
1
1
1
1
1
1
1
1
1
1
1
1
1
1
1
1
1
1
1
1
1
1
1
1
1
1
1
1
1
1
1
1
1
1
1
1
1
1
1
1
1
1
1
1
1
1
1
1
1
1
1
1
1
1
1
1
1
1
1
1
1
1
1.00001
2.0659
2.65412
2.66543
2.66118
2.65799
2.65421
2.65056
2.64689
2.64321
2.63949
2.63566
2.63178
2.62787
1
1
1
1
1
1
1
1
1
1
1
1
1
1
1
1
1
1
1
1
1
1
1
1
1
1
1
1
1
1
1
1
1
1
1
1
1
1
1
1
1
1
1
1
1
1
1
1
1
1
1
1
1
1
1
1
1
1
1
1
1
1
1
1
1
1
1
1
1
1
1
1
1
1
1
1
1
1
1
1
1
1
1
1.78352
2.59927
2.66913
2.66373
2.66076
2.65719
2.65379
2.65035
2.6468
2.64305
2.63914
2.6351
2.63097
1
1
1
1
1
1
1
1
1
1
1
1
1
1
1
1
1
1
1
1
1
1
1
1
1
1
1
1
1
1
1
1
1
1
1
1
1
1
1
1
1
1
1
1
1
1
1
1
1
1
1
1
1
1
1
1
1
1
1
1
1
1
1
1
1
1
1
1
1
1
1
1
1
1
1
1
1
1
1
1
1
1
1
1.45381
2.50392
2.66924
2.66425
2.66247
2.65994
2.65729
2.65431
2.65108
2.64757
2.64386
2.63997
2.63592
1
1
1
1
1
1
1
1
1
1
1
1
1
1
1
1
1
1
1
1
1
1
1
1
1
1
1
1
1
1
1
1
1
1
1
1
1
1
1
1
1
1
1
1
1
1
1
1
1
1
1
1
1
1
1
1
1
1
1
1
1
1
1
1
1
1
1
1
1
1
1
1
1
1
1
1
1
1
1
1
1
1
1
1.13042
2.37417
2.67228
2.66644
2.66299
2.66043
2.65799
2.65536
2.65261
2.64969
2.64667
2.64347
2.64003
1
1
1
1
1
1
1
1
1
1
1
1
1
1
1
1
1
1
1
1
1
1
1
1
1
1
1
1
1
1
1
1
1
1
1
1
1
1
1
1
1
1
1
1
1
1
1
1
1
1
1
1
1
1
1
1
1
1
1
1
1
1
1
1
1
1
1
1
1
1
1
1
1
1
1
1
1
1
1
1
1
1
1
1.00177
2.23566
2.67387
2.67274
2.66775
2.66468
2.66161
2.65865
2.65578
2.65293
2.65012
2.64725
2.64421
1
1
1
1
1
1
1
1
1
1
1
1
1
1
1
1
1
1
1
1
1
1
1
1
1
1
1
1
1
1
1
1
1
1
1
1
1
1
1
1
1
1
1
1
1
1
1
1
1
1
1
1
1
1
1
1
1
1
1
1
1
1
1
1
1
1
1
1
1
1
1
1
1
1
1
1
1
1
1
1
1
1
1
1
2.06645
2.65992
2.6761
2.67192
2.66893
2.66552
2.66243
2.65946
2.65653
2.65363
2.65073
2.64774
1
1
1
1
1
1
1
1
1
1
1
1
1
1
1
1
1
1
1
1
1
1
1
1
1
1
1
1
1
1
1
1
1
1
1
1
1
1
1
1
1
1
1
1
1
1
1
1
1
1
1
1
1
1
1
1
1
1
1
1
1
1
1
1
1
1
1
1
1
1
1
1
1
1
1
1
1
1
1
1
1
1
1
1
1.87153
2.62645
2.67952
2.67489
2.67227
2.66897
2.66581
2.66262
2.65938
2.6562
2.65308
2.65003
1
1
1
1
1
1
1
1
1
1
1
1
1
1
1
1
1
1
1
1
1
1
1
1
1
1
1
1
1
1
1
1
1
1
1
1
1
1
1
1
1
1
1
1
1
1
1
1
1
1
1
1
1
1
1
1
1
1
1
1
1
1
1
1
1
1
1
1
1
1
1
1
1
1
1
1
1
1
1
1
1
1
1
1
1.66038
2.5823
2.67904
2.67363
2.67122
2.66824
2.66529
2.66225
2.65919
2.65623
2.65339
2.65062
1
1
1
1
1
1
1
1
1
1
1
1
1
1
1
1
1
1
1
1
1
1
1
1
1
1
1
1
1
1
1
1
1
1
1
1
1
1
1
1
1
1
1
1
1
1
1
1
1
1
1
1
1
1
1
1
1
1
1
1
1
1
1
1
1
1
1
1
1
1
1
1
1
1
1
1
1
1
1
1
1
1
1
1
1.44707
2.52075
2.67966
2.67384
2.67123
2.66824
2.66526
2.66222
2.65922
2.65637
2.65362
2.65092
1
1
1
1
1
1
1
1
1
1
1
1
1
1
1
1
1
1
1
1
1
1
1
1
1
1
1
1
1
1
1
1
1
1
1
1
1
1
1
1
1
1
1
1
1
1
1
1
1
1
1
1
1
1
1
1
1
1
1
1
1
1
1
1
1
1
1
1
1
1
1
1
1
1
1
1
1
1
1
1
1
1
1
1
1.2698
2.45042
2.68202
2.67641
2.67327
2.67016
2.66708
2.66396
2.66088
2.65792
2.65499
2.65209
1
1
1
1
1
1
1
1
1
1
1
1
1
1
1
1
1
1
1
1
1
1
1
1
1
1
1
1
1
1
1
1
1
1
1
1
1
1
1
1
1
1
1
1
1
1
1
1
1
1
1
1
1
1
1
1
1
1
1
1
1
1
1
1
1
1
1
1
1
1
1
1
1
1
1
1
1
1
1
1
1
1
1
1
1.13384
2.37688
2.68228
2.67902
2.67567
2.67276
2.66978
2.66671
2.66356
2.66048
2.65736
2.65429
1
1
1
1
1
1
1
1
1
1
1
1
1
1
1
1
1
1
1
1
1
1
1
1
1
1
1
1
1
1
1
1
1
1
1
1
1
1
1
1
1
1
1
1
1
1
1
1
1
1
1
1
1
1
1
1
1
1
1
1
1
1
1
1
1
1
1
1
1
1
1
1
1
1
1
1
1
1
1
1
1
1
1
1
1.0033
2.29327
2.68091
2.68302
2.67875
2.67608
2.67306
2.66996
2.66673
2.66352
2.66024
2.65701
1
1
1
1
1
1
1
1
1
1
1
1
1
1
1
1
1
1
1
1
1
1
1
1
1
1
1
1
1
1
1
1
1
1
1
1
1
1
1
1
1
1
1
1
1
1
1
1
1
1
1
1
1
1
1
1
1
1
1
1
1
1
1
1
1
1
1
1
1
1
1
1
1
1
1
1
1
1
1
1
1
1
1
1
1
2.20722
2.67499
2.68416
2.67986
2.67748
2.67466
2.67183
2.66889
2.66596
2.6629
2.65979
1
1
1
1
1
1
1
1
1
1
1
1
1
1
1
1
1
1
1
1
1
1
1
1
1
1
1
1
1
1
1
1
1
1
1
1
1
1
1
1
1
1
1
1
1
1
1
1
1
1
1
1
1
1
1
1
1
1
1
1
1
1
1
1
1
1
1
1
1
1
1
1
1
1
1
1
1
1
1
1
1
1
1
1
1
2.12491
2.66794
2.68602
2.68164
2.67942
2.67675
2.67408
2.67128
2.66842
2.66541
2.66228
1
1
1
1
1
1
1
1
1
1
1
1
1
1
1
1
1
1
1
1
1
1
1
1
1
1
1
1
1
1
1
1
1
1
1
1
1
1
1
1
1
1
1
1
1
1
1
1
1
1
1
1
1
1
1
1
1
1
1
1
1
1
1
1
1
1
1
1
1
1
1
1
1
1
1
1
1
1
1
1
1
1
1
1
1
2.05443
2.66137
2.68805
2.68342
2.68122
2.67857
2.67596
2.67321
2.67036
2.66733
2.66415
1
1
1
1
1
1
1
1
1
1
1
1
1
1
1
1
1
1
1
1
1
1
1
1
1
1
1
1
1
1
1
1
1
1
1
1
1
1
1
1
1
1
1
1
1
1
1
1
1
1
1
1
1
1
1
1
1
1
1
1
1
1
1
1
1
1
1
1
1
1
1
1
1
1
1
1
1
1
1
1
1
1
1
1
1
1.99806
2.65588
2.69048
2.68555
2.68323
2.68044
2.67767
2.6748
2.67183
2.66872
2.66548
1
1
1
1
1
1
1
1
1
1
1
1
1
1
1
1
1
1
1
1
1
1
1
1
1
1
1
1
1
1
1
1
1
1
1
1
1
1
1
1
1
1
1
1
1
1
1
1
1
1
1
1
1
1
1
1
1
1
1
1
1
1
1
1
1
1
1
1
1
1
1
1
1
1
1
1
1
1
1
1
1
1
1
1
1
1.9548
2.65122
2.69289
2.68756
2.68502
2.68199
2.67897
2.67587
2.67269
2.66943
2.66612
1
1
1
1
1
1
1
1
1
1
1
1
1
1
1
1
1
1
1
1
1
1
1
1
1
1
1
1
1
1
1
1
1
1
1
1
1
1
1
1
1
1
1
1
1
1
1
1
1
1
1
1
1
1
1
1
1
1
1
1
1
1
1
1
1
1
1
1
1
1
1
1
1
1
1
1
1
1
1
1
1
1
1
1
1
1.92534
2.64761
2.69425
2.68865
2.68597
2.68281
2.67962
2.67632
2.67292
2.66951
2.66613
1
1
1
1
1
1
1
1
1
1
1
1
1
1
1
1
1
1
1
1
1
1
1
1
1
1
1
1
1
1
1
1
1
1
1
1
1
1
1
1
1
1
1
1
1
1
1
1
1
1
1
1
1
1
1
1
1
1
1
1
1
1
1
1
1
1
1
1
1
1
1
1
1
1
1
1
1
1
1
1
1
1
1
1
1
1.91319
2.64525
2.69418
2.68883
2.68636
2.68326
2.68007
2.6767
2.67321
2.66972
2.66629
1.47818
0.702547
0.777501
0.940266
0.937861
0.962604
1.02469
1.10658
1.13259
1.16067
1.21942