/*--------------------------------*- C++ -*----------------------------------*\
  =========                 |
  \\      /  F ield         | OpenFOAM: The Open Source CFD Toolbox
   \\    /   O peration     | Website:  https://openfoam.org
    \\  /    A nd           | Version:  7
     \\/     M anipulation  |
\*---------------------------------------------------------------------------*/
FoamFile
{
    version     2.0;
    format      ascii;
    class       volScalarField;
    location    "24";
    object      p;
}
// * * * * * * * * * * * * * * * * * * * * * * * * * * * * * * * * * * * * * //

dimensions      [0 2 -2 0 0 0 0];

internalField   nonuniform List<scalar> 
16000
(
8.8998449e-06
-0.00013132632
-0.00044280604
-0.00084516207
-0.0012633681
-0.0016520345
-0.0019802891
-0.0022292907
-0.0023884008
-0.0024519143
-0.0024168919
-0.0022818773
-0.0020463004
-0.0017104044
-0.0012755458
-0.00074473313
-0.00012327791
0.00058055162
0.0013549767
0.0021843431
0.0030490258
0.0039256688
0.0047877917
0.0056068017
0.0063533681
0.0069991063
0.0075184633
0.0078906561
0.0081014978
0.008144945
0.0080242186
0.0077524042
0.0073525027
0.0068569823
0.0063067238
0.0057492307
0.0052394995
0.0048337834
0.0045938233
0.0045550228
0.00015356792
8.6684897e-06
-0.00024141271
-0.0005502902
-0.00087248168
-0.0011736779
-0.001429635
-0.0016241738
-0.0017469335
-0.0017914706
-0.0017538442
-0.001631691
-0.0014237575
-0.0011298127
-0.00075084802
-0.00028946809
0.00024961936
0.00085910485
0.0015286534
0.0022446278
0.0029900243
0.0037448151
0.0044862985
0.0051901262
0.0058314479
0.0063863591
0.0068335234
0.0071558353
0.0073419704
0.0073876663
0.0072965984
0.0070807662
0.0067603593
0.0063631323
0.0059233226
0.0054799763
0.0050742632
0.0047495539
0.0045509635
0.0045154423
0.00047223645
0.00025435475
-1.4780606e-06
-0.00028052169
-0.00056076301
-0.00081769755
-0.0010335363
-0.0011962219
-0.001297549
-0.0013319976
-0.0012958482
-0.0011865677
-0.0010025154
-0.00074293659
-0.00040817892
-6.0212307e-08
0.00047768261
0.0010189353
0.0016148083
0.002253371
0.0029196172
0.0035955879
0.0042609193
0.0048936177
0.0054711522
0.0059717976
0.0063761405
0.0066686319
0.0068390391
0.0068836361
0.0068059808
0.0066171727
0.0063355555
0.0059859044
0.0055981841
0.0052058661
0.0048436089
0.0045456771
0.0043483313
0.0042810039
0.00089385157
0.00056259387
0.00026190537
-2.3875104e-05
-0.00029447458
-0.00053362169
-0.00072975049
-0.00087564607
-0.00096623744
-0.00099783031
-0.00096761194
-0.00087329548
-0.00071300826
-0.00048541082
-0.00018999462
0.00017249712
0.00059958339
0.0010865541
0.0016260357
0.0022076835
0.0028180702
0.0034407456
0.0040567415
0.0046452639
0.0051847527
0.0056542009
0.0060346487
0.0063107303
0.0064721275
0.0065147643
0.0064415804
0.0062627502
0.0059952821
0.0056620309
0.0052902357
0.004909753
0.0045512831
0.0042448297
0.0040169469
0.0038813848
0.0013446489
0.00088498192
0.00052183055
0.00021152049
-6.6184004e-05
-0.00030224001
-0.00049097121
-0.00063011422
-0.00071801161
-0.00075309828
-0.00073371256
-0.00065795389
-0.00052373945
-0.00032905819
-7.2375417e-05
0.00024685737
0.00062763645
0.0010668372
0.001558701
0.0020944423
0.0026620403
0.003246269
0.0038290516
0.0043901377
0.0049081343
0.0053618401
0.0057317898
0.0060018725
0.0061608562
0.0062036427
0.0061320839
0.0059552199
0.0056888526
0.0053544491
0.0049774586
0.0045853728
0.0042064213
0.0038678202
0.0035851571
0.003361562
0.0017714935
0.0011783681
0.00074370813
0.00039766361
0.00010110627
-0.00014318033
-0.00033488895
-0.00047647154
-0.00056961746
-0.0006149015
-0.000611834
-0.00055889023
-0.00045371567
-0.00029351237
-7.5559939e-05
0.00020216752
0.00054032973
0.00093754328
0.001389757
0.0018897448
0.0024267858
0.0029866097
0.0035516458
0.0041016598
0.0046147595
0.005068759
0.0054428083
0.0057191447
0.0058847698
0.0059328427
0.0058635972
0.0056846403
0.0054105517
0.0050617609
0.0046627164
0.0042397696
0.0038202786
0.0034307273
0.0030781536
0.0027508644
0.0021291814
0.0014042095
0.00089462556
0.00050639741
0.00018313063
-7.7844483e-05
-0.00028104511
-0.00043325256
-0.00053924927
-0.0006015789
-0.00062079099
-0.00059561098
-0.00052327564
-0.00040004429
-0.00022183728
1.5032511e-05
0.00031307068
0.00067279949
0.001092
0.0015650657
0.0020825464
0.0026309788
0.0031930241
0.0037480549
0.0042731337
0.004744407
0.0051388312
0.0054360868
0.005620476
0.0056825544
0.0056202543
0.0054393196
0.0051529758
0.0047808237
0.004346932
0.0038776083
0.0034008969
0.0029444057
0.0025081535
0.0020665978
0.0023791505
0.0015277524
0.00094368337
0.00051051119
0.00015592814
-0.00012762416
-0.00034901468
-0.00051892998
-0.0006449025
-0.00073116814
-0.00077908385
-0.00078742001
-0.00075281033
-0.00067037666
-0.00053447992
-0.00033956598
-8.1075718e-05
0.00024362187
0.00063432781
0.0010872102
0.0015941852
0.0021426073
0.0027152538
0.0032908429
0.0038449675
0.0043515172
0.0047845013
0.005120141
0.0053390267
0.005428075
0.0053819909
0.0052039815
0.0049055974
0.004505683
0.0040284116
0.003500986
0.002953564
0.0024166744
0.0018852677
0.0013227343
0.002487595
0.0015173061
0.00086158038
0.00038312331
-5.1779232e-06
-0.0003153987
-0.00056037698
-0.00075429948
-0.00090708394
-0.0010243395
-0.0011079513
-0.0011564875
-0.0011657519
-0.0011295079
-0.0010403306
-0.00089055934
-0.0006733263
-0.00038362302
-1.9352238e-05
0.00041769897
0.00092105461
0.001479077
0.0020747303
0.0026859982
0.0032867201
0.0038480174
0.0043402153
0.0047351288
0.0050085174
0.005142436
0.005127158
0.0049623451
0.0046572393
0.0042297834
0.0037046084
0.0031106372
0.0024814501
0.0018522133
0.0012143035
0.00052081566
0.002424043
0.0013437923
0.00062075354
9.8188242e-05
-0.00032484352
-0.00066468773
-0.00093784583
-0.0011616416
-0.001348032
-0.0015036834
-0.0016307237
-0.0017272614
-0.0017880324
-0.0018052094
-0.0017693366
-0.0016703742
-0.0014988348
-0.0012469798
-0.00091002644
-0.00048730757
1.6713484e-05
0.00059182101
0.0012214211
0.0018829041
0.0025482605
0.0031854536
0.0037604097
0.0042395132
0.0045924101
0.0047948354
0.0048311177
0.0046959798
0.0043953062
0.0039456355
0.0033721862
0.0027063157
0.001986275
0.0012535328
0.00049704434
-0.00034008834
0.0021607173
0.00098057671
0.00019560601
-0.00036894396
-0.00082688563
-0.0011986581
-0.0015041766
-0.0017635834
-0.0019905678
-0.0021925695
-0.0023716988
-0.0025253651
-0.0026470087
-0.0027269806
-0.0027535409
-0.0027139722
-0.0025958051
-0.0023881322
-0.0020829713
-0.0016766263
-0.0011709494
-0.00057405614
9.8355274e-05
0.00082348422
0.0015716208
0.0023073701
0.0029916378
0.0035843077
0.0040474387
0.0043486795
0.0044645085
0.0043828613
0.0041047149
0.0036442151
0.0030269258
0.0022871612
0.0014690608
0.00062208428
-0.00026641471
-0.0012635773
0.0016724216
0.00040354105
-0.00043721428
-0.0010410466
-0.0015336254
-0.0019393317
-0.0022812788
-0.0025821497
-0.0028571048
-0.0031141232
-0.0033550851
-0.0035765036
-0.0037703285
-0.0039248784
-0.0040258795
-0.0040576233
-0.0040042541
-0.0038511818
-0.0035865902
-0.0032029743
-0.0026986295
-0.0020791717
-0.001358123
-0.00055788965
0.00029053255
0.0011484562
0.0019713312
0.0027115191
0.003321878
0.0037598642
0.0039917068
0.0039961187
0.003766992
0.0033144718
0.0026636971
0.0018521313
0.00093095347
-4.0596399e-05
-0.0010762023
-0.0022540413
0.00093675742
-0.00040865123
-0.0012984401
-0.0019385063
-0.0024652398
-0.002906808
-0.0032893257
-0.0036377734
-0.0039685721
-0.0042900647
-0.0046037524
-0.0049051169
-0.0051844778
-0.0054279525
-0.0056185084
-0.0057371338
-0.0057641589
-0.0056807376
-0.0054704819
-0.0051211919
-0.004626627
-0.0039884311
-0.0032171031
-0.0023335199
-0.0013691221
-0.00036546389
0.00062731267
0.0015532005
0.0023542186
0.0029752423
0.0033693065
0.0035027288
0.0033593155
0.0029427902
0.0022763851
0.0014004087
0.00037406777
-0.00073169318
-0.0019311679
-0.0033147911
-6.5451466e-05
-0.0014741566
-0.0024057349
-0.0030787751
-0.0036390951
-0.0041184684
-0.0045458235
-0.0049482287
-0.0053432097
-0.0057393652
-0.006137742
-0.0065327312
-0.0069129565
-0.0072622314
-0.0075605902
-0.0077854368
-0.0079128611
-0.0079191569
-0.0077825528
-0.0074851327
-0.0070149039
-0.0063679878
-0.0055504461
-0.0045800971
-0.0034875118
-0.0023161959
-0.001121576
3.1460819e-05
0.0010725974
0.0019315909
0.0025448364
0.0028622506
0.0028535054
0.0025123916
0.0018577757
0.00093178941
-0.00019765264
-0.0014458653
-0.0028273583
-0.0044463302
-0.0013496225
-0.0028074899
-0.0037732158
-0.0044758211
-0.0050690891
-0.0055881856
-0.0060646701
-0.0065275236
-0.006995281
-0.0074767653
-0.0079725779
-0.0084760481
-0.0089741258
-0.0094483036
-0.0098755875
-0.010229579
-0.010481746
-0.010602929
-0.010565135
-0.010343618
-0.0099192248
-0.0092809546
-0.008428491
-0.0073746382
-0.0061472217
-0.004790146
-0.0033631777
-0.0019400424
-0.00060452201
0.00055555062
0.001456132
0.0020259068
0.0022151403
0.0020027594
0.0013994532
0.00044710646
-0.00077751146
-0.0021739094
-0.0037563887
-0.0056445567
-0.0029268499
-0.0044190661
-0.0054110062
-0.0061396226
-0.0067650433
-0.0073255765
-0.0078552389
-0.0083847909
-0.0089337493
-0.0095112156
-0.01011745
-0.010744848
-0.011378807
-0.011998585
-0.012578163
-0.013087222
-0.01349231
-0.013758292
-0.013850155
-0.013735197
-0.013385625
-0.012781511
-0.01191398
-0.010788421
-0.0094274306
-0.007873006
-0.0061874666
-0.0044525043
-0.0027658089
-0.0012348919
3.1880728e-05
0.00093644874
0.001403109
0.0013892696
0.00089180845
-5.1237272e-05
-0.0013549939
-0.0029012453
-0.0047036123
-0.0068987575
-0.0048033906
-0.0063148154
-0.0073248785
-0.0080757654
-0.0087321978
-0.0093353492
-0.0099215415
-0.010523237
-0.011160988
-0.011844323
-0.012573372
-0.01333983
-0.014127778
-0.014914431
-0.015670871
-0.016362861
-0.01695186
-0.017396362
-0.017653642
-0.017682005
-0.01744357
-0.016907598
-0.016054316
-0.014878942
-0.013395804
-0.011641894
-0.009679297
-0.0075956792
-0.0055020003
-0.0035267065
-0.0018060238
-0.00047063023
0.00037005418
0.00064333873
0.00032434251
-0.00055851131
-0.0019144581
-0.0036061179
-0.0056459719
-0.0081892607
-0.0069802786
-0.0084959417
-0.0095160543
-0.010285203
-0.010970872
-0.01161681
-0.012261538
-0.012939223
-0.013671608
-0.01446891
-0.015331444
-0.016250558
-0.017209362
-0.018183344
-0.019140931
-0.020044108
-0.020849237
-0.021508212
-0.021970097
-0.022183345
-0.022098696
-0.021672815
-0.020872636
-0.0196803
-0.018098388
-0.016155072
-0.013908359
-0.011448557
-0.0088977679
-0.0064052365
-0.0041376143
-0.0022638675
-0.00093571806
-0.00026646544
-0.00031343672
-0.0010664935
-0.002433454
-0.0042573912
-0.006549399
-0.0094845978
-0.0094531437
-0.010958902
-0.011981233
-0.01276425
-0.013476355
-0.014163596
-0.014866665
-0.015621563
-0.016451509
-0.017367798
-0.018371373
-0.019453698
-0.020597365
-0.021776563
-0.022957431
-0.024098455
-0.02515105
-0.026060495
-0.026767376
-0.027209711
-0.027325862
-0.027058349
-0.026358635
-0.025192908
-0.023548328
-0.021439907
-0.018916786
-0.016067165
-0.013020354
-0.0099442825
-0.0070368374
-0.0045098941
-0.0025662041
-0.0013718035
-0.0010301219
-0.0015616365
-0.0028804999
-0.0048117941
-0.0073656176
-0.010738021
-0.0122123
-0.013695672
-0.01471292
-0.015504874
-0.016239089
-0.01696369
-0.017721652
-0.018551113
-0.019477239
-0.020512952
-0.021660404
-0.022911744
-0.0242496
-0.025647374
-0.027069383
-0.028471013
-0.029799043
-0.030992313
-0.031982939
-0.032698251
-0.033063617
-0.033006287
-0.032460422
-0.031373939
-0.029714825
-0.027480429
-0.024705586
-0.021470374
-0.017905461
-0.01419292
-0.010560089
-0.0072642332
-0.0045669012
-0.0026998319
-0.0018290394
-0.0020222289
-0.0032120918
-0.0052104542
-0.0080282036
-0.011883228
-0.015243172
-0.016694381
-0.017700125
-0.01849535
-0.019245199
-0.01999977
-0.020804654
-0.021700702
-0.022715739
-0.023865073
-0.025152796
-0.026572422
-0.028107236
-0.029730421
-0.031404992
-0.033083711
-0.034709138
-0.036214035
-0.0375223
-0.038550661
-0.039211318
-0.03941566
-0.039079289
-0.038130436
-0.036514324
-0.034206476
-0.031221813
-0.027625422
-0.023541769
-0.019159918
-0.014731615
-0.010558678
-0.006966777
-0.0042657962
-0.0027029018
-0.002414173
-0.003368689
-0.0053745339
-0.0084477461
-0.012829143
-0.018527115
-0.019940372
-0.020929499
-0.02172133
-0.0224774
-0.023249904
-0.024087738
-0.025035423
-0.026124508
-0.027373703
-0.028789946
-0.030368896
-0.032095157
-0.033942262
-0.035872435
-0.03783629
-0.03977264
-0.041608627
-0.043260377
-0.044634408
-0.045630012
-0.046142938
-0.046070567
-0.045317132
-0.04380606
-0.041486818
-0.038349014
-0.034435667
-0.029856338
-0.024797599
-0.01952702
-0.014385816
-0.0097650021
-0.0060625918
-0.0036260232
-0.002684989
-0.003269398
-0.0051997668
-0.0085059456
-0.013453645
-0.022042691
-0.023417786
-0.02438698
-0.025167371
-0.025916296
-0.026688583
-0.027537662
-0.028513257
-0.029652162
-0.03097784
-0.032501181
-0.034220845
-0.036123413
-0.038183274
-0.040362285
-0.042609301
-0.044859797
-0.047035759
-0.049046077
-0.050787658
-0.052147511
-0.053006101
-0.053242163
-0.052738832
-0.051393725
-0.049128549
-0.045903632
-0.041733503
-0.036703912
-0.030987919
-0.024857134
-0.01868222
-0.01291518
-0.0080473869
-0.0045438349
-0.0027557055
-0.0028050843
-0.0045496895
-0.0080484795
-0.013596103
-0.025767488
-0.027111777
-0.028060047
-0.028818959
-0.029542058
-0.030288024
-0.031116896
-0.032085932
-0.033239317
-0.034607018
-0.036205182
-0.038036381
-0.04008975
-0.042340902
-0.044751554
-0.047269007
-0.049825634
-0.052338606
-0.054710065
-0.056827971
-0.05856788
-0.059795924
-0.060373207
-0.060161901
-0.059034729
-0.056884451
-0.053639565
-0.049281184
-0.04386327
-0.037534092
-0.030555381
-0.023312871
-0.016308773
-0.010126107
-0.0053598262
-0.0025104512
-0.001829671
-0.0032473546
-0.0068764379
-0.01304859
-0.02968061
-0.031011558
-0.031940723
-0.032665089
-0.033336428
-0.034019649
-0.034784729
-0.035699902
-0.036819675
-0.038182727
-0.039811952
-0.041714706
-0.043883098
-0.046294064
-0.048909123
-0.05167391
-0.054517643
-0.05735277
-0.060074978
-0.062563829
-0.064684252
-0.066289154
-0.067223389
-0.067329442
-0.06645618
-0.064468283
-0.06126166
-0.056781193
-0.051043122
-0.044160928
-0.03637214
-0.028060138
-0.019760408
-0.012137498
-0.0059206667
-0.0017838466
-0.00014945576
-0.0010652869
-0.0047360621
-0.011545589
-0.033766098
-0.035114571
-0.036029541
-0.03670145
-0.037284989
-0.037855579
-0.038498292
-0.039297253
-0.040321158
-0.041620061
-0.043225177
-0.045149363
-0.047387795
-0.049918447
-0.052702154
-0.055682349
-0.058784644
-0.061916481
-0.064967066
-0.067807833
-0.070293722
-0.072265428
-0.07355303
-0.073981289
-0.07337599
-0.071576563
-0.06844718
-0.063896013
-0.057898454
-0.050525935
-0.04197913
-0.032620859
-0.022998457
-0.013839385
-0.0060010446
-0.00034675704
0.0024895893
0.0022866079
-0.0013063551
-0.0087518204
-0.038017805
-0.039432386
-0.040340872
-0.040934357
-0.041379632
-0.041769965
-0.042213281
-0.042816358
-0.043666945
-0.044829456
-0.046344884
-0.048231904
-0.05048834
-0.053092341
-0.056003015
-0.05916053
-0.062485946
-0.065880968
-0.069227875
-0.072389849
-0.075212121
-0.077523891
-0.079141527
-0.079873296
-0.079525725
-0.077913692
-0.074872389
-0.070275061
-0.064056118
-0.05624134
-0.046985435
-0.036614424
-0.025664441
-0.014900499
-0.0052906119
0.0021084722
0.0064163414
0.007175577
0.0038161954
-0.004247389
-0.042446728
-0.043999308
-0.044910238
-0.045385608
-0.045621095
-0.04573994
-0.045884182
-0.046192139
-0.046776328
-0.047718484
-0.049070309
-0.050855877
-0.053074425
-0.055702654
-0.058696198
-0.061990282
-0.065499931
-0.069119883
-0.072724607
-0.076168455
-0.079286794
-0.08189757
-0.083804161
-0.084799632
-0.084672734
-0.083216566
-0.080240163
-0.075584838
-0.069146341
-0.060904903
-0.050964786
-0.039603328
-0.027324291
-0.014901545
-0.0033862688
0.0059813729
0.012050465
0.014063624
0.01113717
0.0024914429
-0.047092791
-0.048885511
-0.049804646
-0.050098578
-0.0500215
-0.049745969
-0.049463816
-0.049355863
-0.049565401
-0.05019372
-0.051302997
-0.052921035
-0.055046088
-0.057650782
-0.060684739
-0.064075891
-0.067731189
-0.071536693
-0.075358073
-0.079039329
-0.082405671
-0.085263487
-0.087403267
-0.088603481
-0.088636282
-0.087274676
-0.084304229
-0.079537647
-0.072835623
-0.064135699
-0.053491651
-0.041125843
-0.027493371
-0.013349167
0.00020612893
0.011772333
0.01991883
0.023529157
0.021290587
0.012119535
-0.052044992
-0.054217836
-0.055137574
-0.055145943
-0.054606703
-0.053771372
-0.052902118
-0.052234529
-0.051947721
-0.052162841
-0.052950196
-0.054337729
-0.056318753
-0.05885797
-0.061895766
-0.065349471
-0.069115617
-0.073069358
-0.07706747
-0.080939737
-0.084501784
-0.087547558
-0.089854135
-0.091185237
-0.091297421
-0.089943277
-0.086886895
-0.081915045
-0.074856708
-0.065610554
-0.054182644
-0.04073904
-0.025676026
-0.0097062374
0.0060555431
0.020082514
0.030670339
0.03629399
0.035076553
0.025465911
-0.05747767
-0.060213686
-0.061090928
-0.060639333
-0.059418076
-0.057800642
-0.056144023
-0.054749922
-0.053835085
-0.053537035
-0.053928483
-0.055031274
-0.056827861
-0.059269727
-0.062284731
-0.065774544
-0.069623698
-0.073694487
-0.077829136
-0.081848272
-0.085552992
-0.088724281
-0.091125313
-0.092504534
-0.092600521
-0.091148122
-0.087888957
-0.08258426
-0.075033151
-0.065098085
-0.052740196
-0.03807016
-0.021419898
-0.0034418199
0.014768761
0.031597601
0.045084837
0.05325672
0.053517085
0.043607846
-0.063718511
-0.067237272
-0.067946898
-0.066740565
-0.064512561
-0.061815634
-0.059125895
-0.056816986
-0.05513808
-0.05423328
-0.054167098
-0.054945674
-0.056532632
-0.05886009
-0.061835954
-0.065346443
-0.069258773
-0.073420447
-0.077659272
-0.08178276
-0.085578014
-0.088812027
-0.091233105
-0.092573452
-0.092553423
-0.090887782
-0.087294819
-0.081509207
-0.073299045
-0.062489776
-0.048997343
-0.032875552
-0.01438614
0.0058951235
0.026924706
0.047045123
0.06406785
0.075531543
0.077939746
0.068005626
-0.071380699
-0.075893411
-0.076132295
-0.073672163
-0.069958068
-0.065787244
-0.06176867
-0.058339934
-0.055764908
-0.054174975
-0.053609424
-0.054045303
-0.055416489
-0.057628559
-0.060565043
-0.064091304
-0.068055678
-0.072289049
-0.076603948
-0.080793414
-0.084630309
-0.087867106
-0.090236669
-0.091454267
-0.091221213
-0.089230477
-0.085174822
-0.078759467
-0.069717258
-0.057831226
-0.04296517
-0.025107746
-0.0044387839
0.018570477
0.042965185
0.067105374
0.088611145
0.10448364
0.11010521
0.10076108
-0.081631335
-0.087181565
-0.086270101
-0.08171616
-0.075814487
-0.069654654
-0.063961074
-0.059200367
-0.055613438
-0.053286597
-0.052209238
-0.052310714
-0.053483972
-0.055599227
-0.058510801
-0.062059765
-0.066074001
-0.070366825
-0.07473513
-0.0789575
-0.082792765
-0.085979131
-0.088234258
-0.089256539
-0.088727962
-0.086318668
-0.081693508
-0.074524527
-0.064502689
-0.051358555
-0.034889272
-0.014997437
0.0082490493
0.034515724
0.063013865
0.092226384
0.11966038
0.14172298
0.15240493
0.14512514
-0.096759708
-0.10273803
-0.099197812
-0.09115514
-0.082062411
-0.073261377
-0.06550774
-0.059216926
-0.054540108
-0.051469306
-0.049910087
-0.049722865
-0.05074568
-0.052805823
-0.0557243
-0.059316066
-0.063388116
-0.067736563
-0.072143537
-0.076374323
-0.080175044
-0.083271058
-0.085366245
-0.086143432
-0.085266366
-0.082382585
-0.077128089
-0.069138399
-0.058055494
-0.043544629
-0.025315096
-0.0031506397
0.023041664
0.053142084
0.086634145
0.1222838
0.15778165
0.18895247
0.20809869
0.20632852
-0.12133928
-0.12518693
-0.11587271
-0.10208083
-0.088416962
-0.07619795
-0.06600542
-0.058051895
-0.052290982
-0.048549902
-0.046608043
-0.046232657
-0.047194414
-0.049272311
-0.052252607
-0.055924885
-0.060077091
-0.064490489
-0.06893503
-0.073165385
-0.076917757
-0.079907514
-0.081827694
-0.082348512
-0.081118471
-0.077764199
-0.071895637
-0.063110113
-0.050995957
-0.03514157
-0.01514518
0.0093697772
0.038726207
0.07313047
0.11252057
0.15626338
0.20263167
0.24752394
0.28130175
0.29235734
-0.16445674
-0.15843248
-0.13714799
-0.11415708
-0.094106951
-0.077630864
-0.064737551
-0.05516147
-0.048489594
-0.044291248
-0.04217255
-0.041787112
-0.042832139
-0.045039366
-0.048164442
-0.051976748
-0.05625046
-0.060756997
-0.065258806
-0.069504349
-0.073224186
-0.076127988
-0.077902438
-0.07821021
-0.07669022
-0.072947506
-0.066577439
-0.057140371
-0.044172101
-0.027180111
-0.0056357961
0.021035541
0.053464866
0.092332362
0.13829701
0.19182765
0.25266877
0.31751218
0.37626933
0.4153715
-0.24629362
-0.20631767
-0.16212997
-0.12552863
-0.097143416
-0.07587795
-0.060487343
-0.049752141
-0.042660047
-0.038436002
-0.036490125
-0.036365152
-0.037697101
-0.040184887
-0.043566966
-0.047603926
-0.052065601
-0.056721378
-0.061332815
-0.065647961
-0.069396993
-0.072288935
-0.074009317
-0.074219554
-0.072558242
-0.068605289
-0.061961416
-0.052155619
-0.03868265
-0.020980862
0.0015964936
0.029826059
0.064687235
0.10746577
0.15987201
0.22417878
0.30290644
0.39553318
0.49624441
0.60321329
-0.42543839
-0.26572976
-0.177221
-0.12463563
-0.089116276
-0.065102425
-0.049323646
-0.039185128
-0.032983518
-0.029673901
-0.028570528
-0.029186555
-0.031156606
-0.034189658
-0.038037349
-0.042473045
-0.047277864
-0.052230875
-0.05710192
-0.061646216
-0.065600257
-0.06867864
-0.07057133
-0.070940229
-0.069407538
-0.065629432
-0.059132007
-0.049452481
-0.036074421
-0.018402865
0.0042722112
0.032848162
0.068543626
0.11314307
0.16943767
0.24201823
0.33806712
0.46591687
0.64305569
0.92086326
-0.79331234
-0.32444157
-0.14899683
-0.087724806
-0.05534523
-0.035998947
-0.025090995
-0.019200453
-0.016354982
-0.015618551
-0.016493773
-0.018653569
-0.021852665
-0.025888006
-0.030574996
-0.035733366
-0.041178562
-0.046715791
-0.052135485
-0.057209662
-0.061688983
-0.065300381
-0.067745394
-0.06870044
-0.067824054
-0.064707513
-0.058941351
-0.050072027
-0.037592979
-0.020926754
0.00061109238
0.027881786
0.062059484
0.10491409
0.15945205
0.23152871
0.33385218
0.49409294
0.79001709
1.383779
1.2532588e-05
-0.00013032917
-0.0004425202
-0.00084507675
-0.0012634779
-0.001652276
-0.0019806165
-0.0022296785
-0.0023888317
-0.0024523745
-0.0024173691
-0.0022823601
-0.002046778
-0.001710866
-0.0012759809
-0.00074513103
-0.00012362716
0.00058026313
0.0013547613
0.0021842123
0.0030489881
0.0039257291
0.0047879518
0.0056070604
0.0063537213
0.0069995461
0.0075189753
0.0078912177
0.0081020803
0.0081455192
0.0080247602
0.0077528939
0.007352919
0.0068572949
0.0063069037
0.0057492828
0.0052394279
0.0048335912
0.0045935087
0.0045549498
0.00015446898
9.2010905e-06
-0.00024095162
-0.00054980757
-0.00087196334
-0.0011731101
-0.0014290203
-0.0016235248
-0.0017462652
-0.0017907984
-0.0017531829
-0.0016310545
-0.0014231587
-0.0011292638
-0.0007503609
-0.00028905507
0.0002499457
0.0008593322
0.0015287715
0.0022446299
0.002989907
0.0037445761
0.0044859391
0.0051896504
0.0058308644
0.0063856838
0.00683278
0.0071550512
0.0073411713
0.0073868733
0.0072958316
0.007080052
0.0067597322
0.0063626236
0.0059229412
0.0054797087
0.0050741025
0.0047494283
0.0045508083
0.0045155637
0.00047273331
0.00025463855
-1.1517956e-06
-0.00028024754
-0.00056055971
-0.00081753389
-0.0010333989
-0.0011961062
-0.001297451
-0.0013319148
-0.00129578
-0.0011865143
-0.0010024773
-0.00074291421
-0.00040817191
-6.7540023e-08
0.00047766192
0.0010189017
0.0016147618
0.0022533122
0.0029195477
0.0035955112
0.0042608397
0.0048935377
0.0054710712
0.0059717133
0.0063760525
0.0066685445
0.0068389589
0.0068835658
0.006805913
0.0066170939
0.006335459
0.0059857998
0.0055980892
0.005205787
0.0048435336
0.0045455595
0.0043481344
0.0042809767
0.00089435157
0.0005626674
0.00026216493
-2.3640176e-05
-0.00029433165
-0.00053352603
-0.00072968658
-0.00087561097
-0.00096622616
-0.00099783799
-0.00096763506
-0.00087333152
-0.00071305548
-0.00048546797
-0.00019006024
0.00017242539
0.00059950891
0.0010864806
0.0016259662
0.0022076196
0.0028180125
0.0034406962
0.0040567043
0.0046452435
0.0051847516
0.0056542163
0.0060346732
0.0063107569
0.0064721547
0.0065147962
0.0064416183
0.0062627828
0.0059952877
0.0056619943
0.0052901653
0.004909672
0.0045511973
0.0042447178
0.004016797
0.0038812451
0.0013451998
0.000884845
0.0005220574
0.00021178372
-6.6004269e-05
-0.00030208613
-0.00049082945
-0.00062998916
-0.00071790334
-0.00075300568
-0.00073363511
-0.00065789116
-0.00052369109
-0.00032902435
-7.2356847e-05
0.00024685991
0.00062762302
0.0010668092
0.0015586609
0.002094392
0.0026619804
0.0032461994
0.0038289724
0.004390052
0.004908048
0.0053617587
0.0057317137
0.0060017959
0.0061607721
0.0062035511
0.0061319942
0.0059551418
0.0056887817
0.0053543667
0.0049773519
0.004585249
0.0042062884
0.0038677126
0.0035851504
0.0033613452
0.0017721339
0.0011780412
0.00074389972
0.00039792945
0.00010127723
-0.00014302978
-0.00033474304
-0.00047633826
-0.00056949826
-0.00061479613
-0.00061174311
-0.00055881444
-0.00045365503
-0.00029346659
-7.5529035e-05
0.00020218279
0.00054032819
0.00093752435
0.0013897217
0.0018896958
0.0024267263
0.0029865412
0.0035515678
0.0041015711
0.004614662
0.0050686588
0.0054427131
0.0057190571
0.0058846837
0.0059327477
0.0058634902
0.0056845313
0.0054104539
0.005061674
0.0046626251
0.0042396546
0.0038201217
0.0034306072
0.0030782312
0.0027505601
0.0021299232
0.0014037148
0.00089478917
0.0005066639
0.00018328589
-7.7708388e-05
-0.0002809096
-0.00043312824
-0.00053913789
-0.00060147982
-0.00062070484
-0.00059553891
-0.00052321853
-0.00040000224
-0.00022180976
1.5046029e-05
0.00031306994
0.00067278341
0.0010919677
0.001565018
0.0020824865
0.0026309107
0.0031929509
0.0037479762
0.0042730471
0.0047443123
0.0051387337
0.0054359956
0.0056203957
0.0056824785
0.0056201693
0.005439219
0.0051528685
0.0047807253
0.0043468466
0.0038775092
0.0034007315
0.0029442783
0.0025083208
0.0020662207
0.0023799948
0.001527109
0.00094382847
0.00051078494
0.00015607533
-0.00012749392
-0.00034888005
-0.00051880451
-0.00064478887
-0.00073106568
-0.00077899289
-0.00078734152
-0.00075274568
-0.00067032715
-0.00053444607
-0.00033954734
-8.1071442e-05
0.00024361202
0.00063430292
0.001087169
0.001594128
0.0021425369
0.0027151755
0.0032907612
0.003844883
0.0043514266
0.0047844023
0.0051200376
0.0053389286
0.0054279889
0.0053819111
0.0052038933
0.0049054924
0.004505572
0.0040283149
0.0035008884
0.002953392
0.0024165506
0.0018855324
0.001322264
0.0024885389
0.0015165299
0.0008617136
0.00038340782
-5.0354741e-06
-0.00031527158
-0.00056024062
-0.00075416986
-0.00090696482
-0.0010242308
-0.0011078535
-0.0011564012
-0.0011656779
-0.0011294478
-0.0010402861
-0.00089053155
-0.00067331502
-0.00038362713
-1.9370871e-05
0.00041766548
0.00092100511
0.0014790102
0.002074649
0.0026859084
0.003286628
0.0038479251
0.0043401192
0.0047350248
0.0050084077
0.0051423304
0.0051270645
0.0049622582
0.0046571438
0.0042296742
0.0037045042
0.0031105325
0.002481264
0.0018520951
0.0012146729
0.000520249
0.0024250814
0.0013428972
0.00062087957
9.848596e-05
-0.00032470312
-0.00066456232
-0.00093770744
-0.0011615077
-0.0013479069
-0.0015035675
-0.0016306182
-0.0017271673
-0.0017879501
-0.0018051396
-0.0017692808
-0.0016703346
-0.0014988131
-0.0012469762
-0.0009100396
-0.00048733548
1.667205e-05
0.00059176274
0.0012213452
0.0018828124
0.0025481595
0.003185351
0.0037603092
0.0042394117
0.004592302
0.0047947217
0.004831008
0.0046958814
0.0043952124
0.0039455347
0.0033720858
0.002706206
0.0019860677
0.0012534161
0.00049752693
-0.0003407545
0.002161844
0.00097957631
0.0001957282
-0.00036863131
-0.00082674414
-0.0011985318
-0.0015040346
-0.0017634446
-0.0019904362
-0.0021924453
-0.0023715838
-0.002525261
-0.0026469165
-0.0027269009
-0.0027534742
-0.0027139201
-0.0025957699
-0.0023881161
-0.0020829749
-0.0016766478
-0.0011709844
-0.00057410777
9.8287599e-05
0.00082339911
0.0015715192
0.0023072584
0.0029915249
0.003584199
0.0040473314
0.0043485675
0.0044643924
0.0043827496
0.0041046121
0.0036441167
0.0030268343
0.0022870532
0.0014688303
0.00062196483
-0.0002658094
-0.0012643535
0.0016736292
0.00040244941
-0.00043709338
-0.0010407185
-0.0015334804
-0.0019392018
-0.002281131
-0.0025820043
-0.0028569659
-0.0031139902
-0.0033549594
-0.0035763874
-0.0037702239
-0.0039247866
-0.0040258012
-0.004057559
-0.004004205
-0.0038511503
-0.0035865789
-0.003202985
-0.0026986619
-0.0020792199
-0.0013581857
-0.00055796738
0.00029043778
0.0011483448
0.0019712096
0.0027113971
0.0033217619
0.0037597516
0.003991592
0.0039960019
0.0037668791
0.0033143681
0.0026636113
0.0018520289
0.00093070063
-4.07197e-05
-0.0010754607
-0.0022549442
0.00093803686
-0.00040981898
-0.0012983181
-0.0019381628
-0.0024650898
-0.0029066728
-0.0032891702
-0.0036376194
-0.0039684242
-0.0042899221
-0.004603616
-0.0049049882
-0.005184359
-0.005427846
-0.0056184158
-0.005737056
-0.0057640963
-0.0056806911
-0.0054704537
-0.0051211857
-0.0046266462
-0.003988471
-0.0032171615
-0.0023335938
-0.0013692109
-0.00036556901
0.0006271917
0.0015530703
0.0023540896
0.002975121
0.0033691908
0.0035026133
0.0033591988
0.0029426805
0.0022763007
0.0014003107
0.00037379149
-0.00073181918
-0.0019302701
-0.0033158423
-6.4111281e-05
-0.0014753848
-0.0024056094
-0.0030784167
-0.0036389388
-0.0041183267
-0.0045456594
-0.0049480648
-0.0053430511
-0.0057392116
-0.0061375942
-0.0065325903
-0.0069128238
-0.0072621091
-0.0075604809
-0.0077853427
-0.0079127833
-0.0079190958
-0.007782509
-0.0074851085
-0.0070149032
-0.0063680118
-0.0055504946
-0.0045801664
-0.0034875977
-0.0023162966
-0.0011216921
3.1330664e-05
0.0010724604
0.0019314577
0.0025447133
0.0028621351
0.0028533905
0.0025122809
0.001857693
0.00093169342
-0.00019795731
-0.0014459936
-0.0028262783
-0.0044475545
-0.0013482342
-0.0028087626
-0.0037730852
-0.0044754484
-0.0050689251
-0.0055880362
-0.0060644968
-0.0065273493
-0.0069951108
-0.0074765993
-0.0079724174
-0.0084758944
-0.0089739797
-0.0094481665
-0.0098754614
-0.010229467
-0.01048165
-0.010602851
-0.010565076
-0.010343578
-0.0099192059
-0.0092809599
-0.0084285232
-0.007374697
-0.0061473031
-0.0047902449
-0.003363291
-0.0019401694
-0.00060466004
0.00055540985
0.0014559991
0.0020257863
0.0022150267
0.0020026525
0.0013993772
0.00044701322
-0.00077785125
-0.0021740416
-0.0037550964
-0.0056459831
-0.0029254268
-0.0044203669
-0.0054108693
-0.0061392372
-0.0067648705
-0.0073254181
-0.0078550556
-0.008384606
-0.0089335675