/*--------------------------------*- C++ -*----------------------------------*\
  =========                 |
  \\      /  F ield         | OpenFOAM: The Open Source CFD Toolbox
   \\    /   O peration     | Website:  https://openfoam.org
    \\  /    A nd           | Version:  7
     \\/     M anipulation  |
\*---------------------------------------------------------------------------*/
FoamFile
{
    version     2.0;
    format      ascii;
    class       surfaceScalarField;
    location    "24";
    object      phi;
}
// * * * * * * * * * * * * * * * * * * * * * * * * * * * * * * * * * * * * * //

dimensions      [0 3 -1 0 0 0 0];

internalField   nonuniform List<scalar> 
45600
(
2.7490646e-07
-2.8249801e-07
-8.5360573e-11
4.0320235e-07
-1.2826695e-07
-2.6920977e-11
1.3248706e-07
2.7072294e-07
-7.7173438e-12
-5.6234922e-07
6.9483859e-07
-2.3036919e-12
-1.6393301e-06
1.0769803e-06
2.9620865e-12
-3.0276241e-06
1.3882906e-06
6.5216563e-12
-4.6524529e-06
1.6248206e-06
8.8402494e-12
-6.4450736e-06
1.7926086e-06
1.0468881e-11
-8.3453886e-06
1.9003029e-06
1.1633019e-11
-1.0301395e-05
1.9559967e-06
1.2423092e-11
-1.2267341e-05
1.9659369e-06
1.2882864e-11
-1.4201507e-05
1.9341559e-06
1.3034637e-11
-1.6064152e-05
1.8626324e-06
1.2891736e-11
-1.781593e-05
1.7517632e-06
1.2462251e-11
-1.9416948e-05
1.6010045e-06
1.1748086e-11
-2.0826545e-05
1.4095868e-06
1.0742506e-11
-2.2003787e-05
1.1772367e-06
9.4292049e-12
-2.2908641e-05
9.0485219e-07
7.7888795e-12
-2.3503735e-05
5.9508938e-07
5.8139122e-12
-2.3756568e-05
2.528239e-07
3.531977e-12
-2.3642012e-05
-1.1456535e-07
1.0175207e-12
-2.314489e-05
-4.971248e-07
-1.6304003e-12
-2.2262465e-05
-8.824147e-07
-4.3221101e-12
-2.1006515e-05
-1.2559306e-06
-6.9827003e-12
-1.9404765e-05
-1.6017308e-06
-9.5352335e-12
-1.7501467e-05
-1.9032937e-06
-1.1874689e-11
-1.5356901e-05
-2.1445764e-06
-1.3823447e-11
-1.3045712e-05
-2.3111948e-06
-1.5162213e-11
-1.0654076e-05
-2.391615e-06
-1.5726496e-11
-8.2757955e-06
-2.3782303e-06
-1.5502827e-11
-6.0075396e-06
-2.2682074e-06
-1.462405e-11
-3.9435031e-06
-2.0640318e-06
-1.3221198e-11
-2.1697781e-06
-1.7737737e-06
-1.1238965e-11
-7.5856994e-07
-1.4112592e-06
-8.4392824e-12
2.3816242e-07
-9.9671123e-07
-4.8578301e-12
7.965222e-07
-5.5826248e-07
-1.4084279e-12
9.2931149e-07
-1.3270115e-07
1.933189e-12
7.0564368e-07
2.2359866e-07
5.189685e-12
2.9049771e-07
4.1495577e-07
8.4933825e-12
2.903877e-07
1.8424001e-12
1.3275783e-07
-4.1522939e-07
-2.4326748e-11
-3.0181002e-07
3.0632014e-07
-1.5446743e-11
-1.6154909e-06
1.5844183e-06
-1.3372672e-11
-3.8747624e-06
2.9541218e-06
-1.3997567e-11
-7.0073621e-06
4.2095937e-06
-1.5033073e-11
-1.0879735e-05
5.2606835e-06
-1.6467111e-11
-1.5335111e-05
6.0802202e-06
-1.7827566e-11
-2.0215912e-05
6.6734322e-06
-1.8822266e-11
-2.5373935e-05
7.0583449e-06
-1.9382112e-11
-3.0673113e-05
7.2551922e-06
-1.9496955e-11
-3.5988346e-05
7.2811885e-06
-1.9180204e-11
-4.1202599e-05
7.148431e-06
-1.8460661e-11
-4.6203708e-05
6.8637652e-06
-1.7367678e-11
-5.0881805e-05
6.4298805e-06
-1.5921323e-11
-5.5127911e-05
5.8471237e-06
-1.4127576e-11
-5.8833978e-05
5.1156598e-06
-1.1978533e-11
-6.1894447e-05
4.2377096e-06
-9.4648486e-12
-6.4209241e-05
3.219654e-06
-6.5939053e-12
-6.5687982e-05
2.0738425e-06
-3.4270717e-12
-6.6255089e-05
8.1994081e-07
-6.1710704e-14
-6.5855609e-05
-5.1404655e-07
3.4015337e-12
-6.4460451e-05
-1.8923018e-06
6.9313761e-12
-6.2072147e-05
-3.2707487e-06
1.0423157e-11
-5.872879e-05
-4.599311e-06
1.3799536e-11
-5.4506806e-05
-5.823718e-06
1.6924466e-11
-4.952166e-05
-6.8884292e-06
1.958504e-11
-4.3926179e-05
-7.7400603e-06
2.1562262e-11
-3.7906273e-05
-8.3311447e-06
2.2742397e-11
-3.1674021e-05
-8.6239449e-06
2.3176015e-11
-2.5458334e-05
-8.5939829e-06
2.2997921e-11
-1.9493577e-05
-8.2329639e-06
2.223847e-11
-1.4006681e-05
-7.5508622e-06
2.0713392e-11
-9.2032359e-06
-6.5771704e-06
1.818532e-11
-5.2528689e-06
-5.3616879e-06
1.4754729e-11
-2.2740153e-06
-3.9757226e-06
1.1059442e-11
-3.1737193e-07
-2.5150103e-06
7.7617246e-12
6.5697048e-07
-1.1069422e-06
4.6619343e-12
8.0368936e-07
7.7162204e-08
3.6404137e-12
4.1795354e-07
8.009202e-07
4.4999542e-12
7.0823774e-07
-3.2770579e-12
-2.7363985e-07
-1.4157598e-07
-1.3413996e-11
-1.6275589e-06
1.6602497e-06
-8.2310963e-12
-4.2894634e-06
4.2463366e-06
-9.4624931e-12
-8.2747026e-06
6.9393711e-06
-7.9510324e-12
-1.3474401e-05
9.4092961e-06
-5.8961774e-12
-1.9708656e-05
1.1494942e-05
-4.7466154e-12
-2.6765632e-05
1.3137203e-05
-3.9839008e-12
-3.4426441e-05
1.4334251e-05
-3.3561561e-12
-4.2478398e-05
1.511031e-05
-2.8428112e-12
-5.0720162e-05
1.5496959e-05
-2.4006848e-12
-5.8961953e-05
1.5522979e-05
-1.9798964e-12
-6.7023296e-05
1.5209774e-05
-1.5512973e-12
-7.4730088e-05
1.457056e-05
-1.1052445e-12
-8.191223e-05
1.3612028e-05
-6.4913854e-13
-8.8402616e-05
1.2337518e-05
-2.0346712e-13
-9.403791e-05
1.0750957e-05
2.1252192e-13
-9.8661206e-05
8.8610002e-06
5.9987175e-13
-0.00010212649
6.6849296e-06
9.737897e-13
-0.00010430462
4.2519623e-06
1.3464784e-12
-0.0001050904
1.6057242e-06
1.7051468e-12
-0.00010441004
-1.1943876e-06
2.0153183e-12
-0.00010222888
-4.073458e-06
2.2238517e-12
-9.8557973e-05
-6.9416611e-06
2.3083107e-12
-9.3459505e-05
-9.6978062e-06
2.3192299e-12
-8.7049955e-05
-1.2233298e-05
2.3473726e-12
-7.9500617e-05
-1.4437769e-05
2.443266e-12
-7.1034948e-05
-1.6205696e-05
2.5510738e-12
-6.192243e-05
-1.7443619e-05
2.5362661e-12
-5.2468902e-05
-1.8077473e-05
2.3246638e-12
-4.3003506e-05
-1.8059443e-05
2.0406925e-12
-3.3862735e-05
-1.7373819e-05
1.9678672e-12
-2.5372199e-05
-1.6041412e-05
2.2856386e-12
-1.7826855e-05
-1.4122415e-05
2.8004965e-12
-1.1470342e-05
-1.1718076e-05
3.0350474e-12
-6.4737965e-06
-8.9722731e-06
2.7541951e-12
-2.9140517e-06
-6.0749532e-06
2.2953288e-12
-7.5132788e-07
-3.2698986e-06
2.1858272e-12
1.9426885e-07
-8.6845539e-07
3.4125086e-12
2.6553932e-07
7.2982204e-07
5.7098662e-12
9.7376977e-07
7.340518e-13
-7.4587319e-07
6.0431035e-07
-1.349904e-11
-3.1796751e-06
4.0940525e-06
-2.1323918e-12
-7.3461295e-06
8.412802e-06
-7.5278186e-12
-1.3163045e-05
1.27563e-05
-6.8134955e-12
-2.0455757e-05
1.6702015e-05
-4.1453643e-12
-2.8992514e-05
2.0031702e-05
-2.7745819e-12
-3.851369e-05
2.2658379e-05
-1.8535571e-12
-4.8752417e-05
2.4572981e-05
-1.0179676e-12
-5.9446648e-05
2.5804546e-05
-3.2736263e-13
-7.0344424e-05
2.639474e-05
2.2263846e-13
-8.1204645e-05
2.6383202e-05
6.7048773e-13
-9.179543e-05
2.5800556e-05
1.0451779e-12
-0.0001018918
2.4666922e-05
1.3695104e-12
-0.00011127396
2.2994186e-05
1.6574071e-12
-0.00011972706
2.079062e-05
1.9030685e-12
-0.00012704284
1.8066746e-05
2.0801438e-12
-0.00013302336
1.4841521e-05
2.1601658e-12
-0.00013748659
1.1148162e-05
2.1324863e-12
-0.00014027369
7.0390431e-06
2.0157093e-12
-0.00014125724
2.5892595e-06
1.8510228e-12
-0.00014034998
-2.1016486e-06
1.673922e-12
-0.00013751361
-6.9098053e-06
1.4323479e-12
-0.00013276628
-1.1688968e-05
1.0788145e-12
-0.00012618862
-1.627547e-05
5.90668e-13
-0.00011792727
-2.0494677e-05
3.2607818e-14
-0.00010819538
-2.41697e-05
-4.4618964e-13
-9.7269422e-05
-2.7131666e-05
-7.1129345e-13
-8.5482027e-05
-2.9230978e-05
-7.6986188e-13
-7.3210611e-05
-3.034882e-05
-7.8863428e-13
-6.0861981e-05
-3.0408041e-05
-9.2677472e-13
-4.8853248e-05
-2.938261e-05
-1.1002061e-12
-3.7589804e-05
-2.7304971e-05
-9.4800105e-13
-2.7441294e-05
-2.4270977e-05
-1.6282968e-13
-1.8716674e-05
-2.0442595e-05
1.0595908e-12
-1.1639389e-05
-1.6049375e-05
2.0421905e-12
-6.3234937e-06
-1.1390783e-05
2.3511584e-12
-2.751545e-06
-6.841994e-06
2.4888052e-12
-7.572387e-07
-2.862937e-06
3.2463598e-12
-9.5543557e-09
-1.7850605e-08
4.3461297e-12
9.6426441e-07
3.7713531e-12
-1.2279751e-06
1.8323021e-06
-1.487341e-11
-4.7881174e-06
7.6541889e-06
3.9711031e-12
-1.0521528e-05
1.4146218e-05
-6.5794297e-12
-1.8214272e-05
2.0449056e-05
-7.6343188e-12
-2.7603811e-05
2.6091566e-05
-5.2127683e-12
-3.8396094e-05
3.0823993e-05
-4.4629349e-12
-5.028277e-05
3.4545057e-05
-4.1114483e-12
-6.295441e-05
3.7244623e-05
-3.6270745e-12
-7.6108575e-05
3.8958713e-05
-3.1401721e-12
-8.945322e-05
3.9739392e-05
-2.6855545e-12
-0.00010270683
3.9636819e-05
-2.2463647e-12
-0.0001155968
3.8690536e-05
-1.8195457e-12
-0.00012785754
3.6927659e-05
-1.4025356e-12
-0.00013922932
3.4365969e-05
-9.8125693e-13
-0.00014945882
3.1020108e-05
-5.3858178e-13
-0.00015830149
2.6909427e-05
-7.3664213e-14
-0.00016552622
2.2066255e-05
3.896775e-13
-0.0001709217
1.6543655e-05
8.1202436e-13
-0.00017430454
1.0421883e-05
1.1654305e-12
-0.00017552831
3.8130209e-06
1.4590945e-12
-0.00017449312
-3.1368642e-06
1.7358533e-12
-0.00017115492
-1.0248015e-05
2.0210217e-12
-0.00016553388
-1.7309989e-05
2.297388e-12
-0.00015772104
-2.4088287e-05
2.4849075e-12
-0.0001478824
-3.0333302e-05
2.5016698e-12
-0.00013625988
-3.5792235e-05
2.3605325e-12
-0.00012316836
-4.022325e-05
2.2065575e-12
-0.00010898822
-4.3411153e-05
2.2210283e-12
-9.4153392e-05
-4.5183629e-05
2.4390089e-12
-7.9134499e-05
-4.5426851e-05
2.6579138e-12
-6.4417756e-05
-4.4099287e-05
2.6015596e-12
-5.0480139e-05
-4.1242629e-05
2.2646792e-12
-3.7762028e-05
-3.6989231e-05
2.05433e-12
-2.6638805e-05
-3.1565926e-05
2.3885045e-12
-1.7393161e-05
-2.5294967e-05
3.0920889e-12
-1.0189853e-05
-1.8593935e-05
3.5901675e-12
-5.054678e-06
-1.197712e-05
3.8550104e-12
-1.8598616e-06
-6.0578644e-06
3.1186638e-12
-3.2226577e-07
-1.5554881e-06
1.957424e-13
6.4202147e-07
5.8512888e-12
-1.6931653e-06
3.5254881e-06
-1.7289584e-11
-6.3713893e-06
1.2332406e-05
9.4792117e-12
-1.3671396e-05
2.1446228e-05
-5.5564368e-12
-2.3233945e-05
3.0011612e-05
-7.710076e-12
-3.4695051e-05
3.7552681e-05
-4.9582495e-12
-4.7689538e-05
4.381849e-05
-4.3663202e-12
-6.185714e-05
4.8712667e-05
-4.2319469e-12
-7.6847581e-05
5.2235068e-05
-3.8654299e-12
-9.232328e-05
5.4434413e-05
-3.4571922e-12
-0.00010795958
5.5375692e-05
-3.0558209e-12
-0.00012344317
5.5120418e-05
-2.6360815e-12
-0.0001384698
5.3717173e-05
-2.198321e-12
-0.00015274224
5.1200109e-05
-1.7588091e-12
-0.00016596948
4.7593206e-05
-1.3278726e-12
-0.00017786761
4.291824e-05
-8.9630211e-13
-0.00018816288
3.7204682e-05
-4.4282832e-13
-0.00019659668
3.0500056e-05
4.4754643e-14
-0.0002029326
2.2879584e-05
5.4920087e-13
-0.00020696489
1.4454189e-05
1.0237214e-12
-0.00020852805
5.37619e-06
1.4197245e-12
-0.0002075069
-4.1580204e-06
1.7252516e-12
-0.00020384652
-1.3908428e-05
1.9867327e-12
-0.00019756138
-2.3595154e-05
2.264828e-12
-0.00018874295
-3.2906711e-05
2.572434e-12
-0.00017756494
-4.1511274e-05
2.8282413e-12
-0.00016428539
-4.9071753e-05
2.9047669e-12
-0.00014924474
-5.5263907e-05
2.7606527e-12
-0.00013285925
-5.9796701e-05
2.5396602e-12
-0.00011560916
-6.2433796e-05
2.4970839e-12
-9.802135e-05
-6.3014663e-05
2.7541641e-12
-8.0646877e-05
-6.147367e-05
3.1041927e-12
-6.4033869e-05
-5.7855531e-05
3.1632761e-12
-4.8697212e-05
-5.2325888e-05
2.8348769e-12
-3.5086788e-05
-4.5176479e-05
2.5189454e-12
-2.3556658e-05
-3.6825211e-05
2.6457421e-12
-1.4337851e-05
-2.7812702e-05
3.3360598e-12
-7.5174284e-06
-1.8797431e-05
4.552152e-12
-3.026699e-06
-1.0548595e-05
3.485069e-12
-6.4250314e-07
-3.9397317e-06
-2.2503331e-12
-4.9119343e-10
8.215542e-12
-2.1329281e-06
5.6584374e-06
-2.0025416e-11
-7.8910342e-06
1.8090503e-05
1.4345534e-11
-1.6717311e-05
3.0272511e-05
-4.744948e-12
-2.8105575e-05
4.1399882e-05
-7.7289648e-12
-4.1584834e-05
5.1031943e-05
-4.5029578e-12
-5.6713777e-05
5.894744e-05
-3.9470905e-12
-7.3077808e-05
6.5076707e-05
-3.9302189e-12
-9.02865e-05
6.9443768e-05
-3.6056306e-12
-0.00010797062
7.2118534e-05
-3.2304148e-12
-0.00012577845
7.3183521e-05
-2.8734699e-12
-0.00014337181
7.2713778e-05
-2.4984957e-12
-0.00016042238
7.0767744e-05
-2.0901155e-12
-0.00017660905
6.7386788e-05
-1.6563703e-12
-0.00019161691
6.2601076e-05
-1.2195284e-12
-0.00020513821
5.6439546e-05
-7.9836423e-13
-0.00021687548
4.8941948e-05
-3.9206144e-13
-0.00022654675
4.0171315e-05
2.1627829e-14
-0.00023389265
3.0225477e-05
4.6636055e-13
-0.00023868508
1.9246621e-05
9.3694525e-13
-0.000240737
7.4281315e-06
1.3846153e-12
-0.00023991297
-4.9820354e-06
1.7394517e-12
-0.00023613967
-1.7681728e-05
1.9747087e-12
-0.0002294162
-3.0318659e-05
2.1246576e-12
-0.00021982297
-4.2499967e-05
2.2840839e-12
-0.00020752883
-5.3805424e-05
2.5126976e-12
-0.0001927951
-6.3805452e-05
2.7475745e-12
-0.00017597579
-7.2083164e-05
2.8259666e-12
-0.00015751283
-7.8259644e-05
2.6450402e-12
-0.00013792545
-8.2021231e-05
2.3308144e-12
-0.00011779321
-8.3147008e-05
2.201451e-12
-9.773256e-05
-8.1534356e-05
2.4627028e-12
-7.8367797e-05
-7.7220219e-05
2.9178318e-12
-6.0297572e-05
-7.0395999e-05
3.1124046e-12
-4.4059304e-05
-6.1414732e-05
2.8531115e-12
-3.0094331e-05
-5.0790293e-05
2.4777044e-12
-1.8717246e-05
-3.9189867e-05
2.8740763e-12
-1.0093023e-05
-2.7421606e-05
4.7942654e-12
-4.2252746e-06
-1.6416288e-05
3.6946129e-12
-9.5847326e-07
-7.206537e-06
-4.8523141e-12
-9.5899523e-07
1.0182587e-11
-2.5450406e-06
8.2034992e-06
-2.2794202e-11
-9.3287883e-06
2.4874236e-05
1.8660675e-11
-1.9615237e-05
4.0558968e-05
-4.2083172e-12
-3.2756636e-05
5.454129e-05
-7.9391859e-12
-4.817557e-05
6.645088e-05
-4.2688011e-12
-6.5353658e-05
7.6125531e-05
-3.7771752e-12
-8.3821582e-05
8.3544636e-05
-3.904658e-12
-0.00010314994
8.8772129e-05
-3.6390197e-12
-0.0001229408
9.1909409e-05
-3.2954999e-12
-0.00014282001
9.3062733e-05
-2.9714111e-12
-0.00016243028
9.2324046e-05
-2.6381374e-12
-0.0001814257
8.9763163e-05
-2.2764674e-12
-0.00019946796
8.5429054e-05
-1.8747877e-12
-0.00021622467
7.9357784e-05
-1.4357838e-12
-0.00023136985
7.1584735e-05
-9.8173142e-13
-0.0002445868
6.2158912e-05
-5.4055425e-13
-0.00025557303
5.1157545e-05
-1.2401452e-13
-0.00026404709
3.8699526e-05
2.8574217e-13
-0.00026975709
2.4956607e-05
7.2189706e-13
-0.00027249053
1.0161563e-05
1.1942384e-12
-0.00027208514
-5.3874093e-06
1.6575313e-12
-0.00026844022
-2.1326622e-05
2.0417147e-12
-0.00026152831
-3.7230564e-05
2.2705752e-12
-0.00025140604
-5.262226e-05
2.3680519e-12
-0.00023822374
-6.6987768e-05
2.4504101e-12
-0.00022223252
-7.9796703e-05
2.6270798e-12
-0.00020378762
-9.0528033e-05
2.8713619e-12
-0.00018334671
-9.8700496e-05
2.9999381e-12
-0.0001614616
-0.0001039063
2.8460514e-12
-0.0001387626
-0.00010584605
2.4993026e-12
-0.00011593484
-0.00010436222
2.3140263e-12
-9.3687179e-05
-9.946794e-05
2.5589456e-12
-7.2715134e-05
-9.1367985e-05
3.0457637e-12
-5.3660483e-05
-8.0469283e-05
3.2207615e-12
-3.7070904e-05
-6.7379869e-05
2.8034565e-12
-2.3363878e-05
-5.2896981e-05
2.8296919e-12
-1.2799297e-05
-3.7986224e-05
4.9894171e-12
-5.4648584e-06
-2.3750693e-05
3.5906815e-12
-1.2772413e-06
-1.1394124e-05
-7.67738e-12
-2.2362585e-06
1.2697698e-11
-2.9284624e-06
1.1131986e-05
-2.5484371e-11
-1.0673601e-05
3.2619351e-05
2.2511994e-11
-2.2336023e-05
5.2221397e-05
-3.8634593e-12
-3.7135721e-05
6.9341001e-05
-8.2515153e-12
-5.4393739e-05
8.3708904e-05
-4.1313752e-12
-7.3517127e-05
9.5248923e-05
-3.6865934e-12
-9.3983663e-05
0.00010401118
-3.9545999e-12
-0.00011532718
0.00011011565
-3.7593441e-12
-0.00013712426
0.00011370649
-3.4547224e-12
-0.00015898248
0.00011492096
-3.1530484e-12
-0.0001805306
0.00011387217
-2.836757e-12
-0.00020141084
0.00011064341
-2.504117e-12
-0.00022127362
0.00010529183
-2.1458442e-12
-0.00023977468
9.7858839e-05
-1.7432026e-12
-0.00025657479
8.8384852e-05
-1.2902949e-12
-0.00027134181
7.692594e-05
-8.0597675e-13
-0.00028375489
6.3570633e-05
-3.2712183e-13
-0.00029351071
4.8455346e-05
1.1914971e-13
-0.00030033149
3.1777381e-05
5.4040699e-13
-0.00030397465
1.3804701e-05
9.7137525e-13
-0.0003042439
-5.1181709e-06
1.4356936e-12
-0.00030100135
-2.4569165e-05
1.9358759e-12
-0.00029418095
-4.4050935e-05
2.3575174e-12
-0.00028380176
-6.300143e-05
2.6042747e-12
-0.00026998082
-8.0808723e-05
2.6705169e-12
-0.00025294423
-9.6833343e-05
2.6782966e-12
-0.00023303487
-0.00011043743
2.7867411e-12
-0.00021071501
-0.00012102036
3.0176934e-12
-0.00018656178
-0.00012805946
3.1827037e-12
-0.00016125405
-0.00013115372
3.0623434e-12
-0.00013554934
-0.00013006695
2.7133412e-12
-0.00011025101
-0.00012476636
2.5179235e-12
-8.6167053e-05
-0.000115452
2.7717466e-12
-6.4063468e-05
-0.00010257282
3.1679587e-12
-4.4616453e-05
-8.6826814e-05
3.0218641e-12
-2.8368402e-05
-6.9145048e-05
3.0360733e-12
-1.5693109e-05
-5.0661577e-05
5.3970151e-12
-6.7752099e-06
-3.2668606e-05
3.4295988e-12
-1.6070279e-06
-1.6562276e-05
-1.0713625e-11
-3.8432966e-06
1.5298694e-11
-3.281675e-06
1.441369e-05
-2.8035024e-11
-1.1915786e-05
4.1253434e-05
2.5957918e-11
-2.4855339e-05
6.5160953e-05
-3.6552413e-12
-4.1199633e-05
8.5685306e-05
-8.6345694e-12
-6.0175895e-05
0.00010268517
-4.0719704e-12
-8.1121695e-05
0.00011619473
-3.6372007e-12
-0.0001034656
0.00012635509
-4.0136268e-12
-0.00012670803
0.00013335808
-3.8815078e-12
-0.00015040365
0.00013740211
-3.6273612e-12
-0.000174146
0.00013866331
-3.362076e-12
-0.00019755467
0.00013728085
-3.0594532e-12
-0.00022026529
0.00013335404
-2.7305813e-12
-0.00024192238
0.00012694892
-2.3891606e-12
-0.00026217507
0.00011811153
-2.0256796e-12
-0.00028067549
0.00010688526
-1.6166559e-12
-0.00029707956
9.3330008e-05
-1.1467304e-12
-0.00031105016
7.7541245e-05
-6.2872478e-13
-0.00032226231
5.9667514e-05
-1.0452899e-13
-0.00033041036
3.9925437e-05
3.8167011e-13
-0.00033521714
1.8611476e-05
8.0954482e-13
-0.00033644534
-3.8899997e-06
1.2017159e-12
-0.00033391
-2.7104528e-05
1.6901795e-12
-0.0003274943
-5.0466635e-05
2.2028616e-12
-0.00031716528
-7.3330416e-05
2.6573046e-12
-0.00030299079
-9.4983185e-05
2.9306019e-12
-0.00028515543
-0.00011466871
2.9766981e-12
-0.00026397392
-0.00013161899
2.9141397e-12
-0.00023989952
-0.00014509482
2.9441477e-12
-0.00021352487
-0.00015443411
3.1343556e-12
-0.00018557293
-0.0001591056
3.2973214e-12
-0.00015687584
-0.00015876398
3.1835694e-12
-0.00012834105
-0.00015330118
2.8555099e-12
-0.00010090565
-0.00014288748
2.7228214e-12
-7.5482186e-05
-0.00012799632
2.9245691e-12
-5.2900925e-05
-0.00010940803
2.9113695e-12
-3.3854955e-05
-8.8190979e-05
3.1819059e-12
-1.8854704e-05
-6.5661851e-05
6.0118386e-12
-8.198242e-06
-4.3325102e-05
3.3850595e-12
-1.9611618e-06
-2.2799345e-05
-1.3996341e-11
-5.8044678e-06
1.7984768e-11
-3.6022751e-06
1.8015999e-05
-3.0417226e-11
-1.3044778e-05
5.0695909e-05
2.9014041e-11
-2.71491e-05
7.9265275e-05
-3.5437509e-12
-4.490686e-05
0.00010344307
-9.0676895e-12
-6.5461059e-05
0.00012323938
-4.1034122e-12
-8.8086638e-05
0.00013882032
-3.6637265e-12
-0.00011216806
0.00015043651
-4.1174195e-12
-0.00013717652
0.00015836655
-4.025292e-12
-0.00016264883
0.00016287442
-3.8155715e-12
-0.00018816873
0.00016418322
-3.6021644e-12
-0.00021335131
0.00016246342
-3.3372042e-12
-0.00023783057
0.0001578333
-3.0193899e-12
-0.00026125033
0.00015036869
-2.6723818e-12
-0.00028325815
0.00014011936
-2.3119749e-12
-0.00030350206
0.00012712917
-1.9330968e-12
-0.00032162984
0.00011145777
-1.5114878e-12
-0.00033729058
9.3201976e-05
-1.0219719e-12
-0.00035013848
7.2515425e-05
-4.6765816e-13
-0.00035983888
4.9625844e-05
1.0714757e-13
-0.00036607651
2.4849129e-05
6.2409309e-13
-0.00036856708
-1.3994361e-06
1.0158181e-12
-0.00036706951
-2.8602121e-05
1.4973966e-12
-0.00036140461
-5.6131566e-05
1.9627621e-12
-0.00035147291
-8.3262132e-05
2.4682508e-12
-0.00033727624
-0.00010917983
2.9455363e-12
-0.00031893941
-0.00013300549
3.2410366e-12
-0.00029673037
-0.00015382802
3.2731465e-12
-0.00027107604
-0.00017074919
3.1534037e-12
-0.00024257057
-0.00018293964
3.1127114e-12
-0.00021197237
-0.00018970382
3.2465768e-12
-0.00018018681
-0.00019054949
3.3660082e-12
-0.00014823265
-0.00018525529
3.2382652e-12
-0.00011719225
-0.0001739279
2.9808172e-12
-8.8148602e-05
-0.00015704003
2.8536396e-12
-6.2115146e-05
-0.0001354415
2.6552087e-12
-3.9966322e-05
-0.00011033977
3.1308283e-12
-2.2377508e-05
-8.3250651e-05
6.6849317e-12
-9.7826499e-06
-5.5919976e-05
3.464234e-12
-2.3546908e-06
-3.0227299e-05
-1.7555487e-11
-8.1591777e-06
2.0953627e-11
-3.887022e-06
2.1903055e-05
-3.2602302e-11
-1.404856e-05
6.0857418e-05
3.1659999e-11
-2.9191852e-05
9.440857e-05
-3.5064473e-12
-4.8214939e-05
0.00012246617
-9.5167589e-12
-7.0187375e-05
0.00014521182
-4.2051309e-12
-9.4329442e-05
0.00016296239
-3.7668811e-12
-0.00011998744
0.00017609452
-4.286523e-12
-0.00014660814
0.00018498727
-4.2167868e-12
-0.00017371479
0.00018998108
-4.029353e-12
-0.00020088562
0.00019135405
-3.8573455e-12
-0.00022773571
0.00018931351
-3.6445011e-12
-0.00025390231
0.0001839999
-3.3680198e-12
-0.00027903358
0.00017549998
-3.0340042e-12
-0.0003027806
0.00016386639
-2.6616911e-12
-0.00032479217
0.00014914074
-2.2713939e-12
-0.00034471218
0.00013137778
-1.8666574e-12
-0.00036217935
0.00011066914
-1.4252078e-12
-0.0003768292
8.7165267e-05
-9.1455522e-13
-0.00038829847
6.1095113e-05
-3.2661234e-13
-0.00039623233
3.2782999e-05
3.0971453e-13
-0.00040029445
2.6627071e-06
9.409869e-13
-0.00040018199
-2.8714583e-05
1.3985786e-12
-0.00039564223
-6.0671347e-05
1.8172793e-12
-0.00038649562
-9.2408776e-05
2.2541998e-12
-0.00037266099
-0.00012301448
2.7485691e-12
-0.00035418343
-0.00015148303
3.2290631e-12
-0.00033126235
-0.00017674905
3.5269614e-12
-0.00030427652
-0.00019773501
3.5369688e-12
-0.00027380183
-0.00021341436
3.3680436e-12
-0.00024061731
-0.00022288839
3.2663113e-12
-0.00020569436
-0.00022547246
3.3297651e-12
-0.00017016567
-0.00022078393
3.3857968e-12
-0.0001352726
-0.00020882094
3.2754736e-12
-0.0001022929
-0.00019001975
3.0066039e-12
-7.2455654e-05
-0.00016527879
2.4882306e-12
-4.6853115e-05
-0.00013594232
2.9698202e-12
-2.6361253e-05
-0.0001037425
7.3330387e-12
-1.1580389e-05
-7.0700833e-05
3.5760396e-12
-2.803302e-06
-3.900437e-05
-2.1508524e-11
-1.0962508e-05
2.4377194e-11
-4.1320889e-06
2.6035177e-05
-3.4542307e-11
-1.4913996e-05
7.1639293e-05
3.3867528e-11
-3.0956925e-05
0.0001104515
-3.5395382e-12
-5.1080322e-05
0.00014258958
-9.9609409e-12
-7.4291798e-05
0.0001684233
-4.3509831e-12
-9.9765497e-05
0.00018843609
-3.9214656e-12
-0.0001268159
0.00020314493
-4.5091266e-12
-0.00015487036
0.00021304174
-4.4651908e-12
-0.00018344284
0.00021855356
-4.2889694e-12
-0.00021211026
0.00022002147
-4.1341616e-12
-0.00024049207
0.00021769532
-3.9565172e-12
-0.00026823343
0.00021174127
-3.7309569e-12
-0.00029499191
0.00020225845
-3.4434522e-12
-0.00032042735
0.00018930183
-3.0900346e-12
-0.00034419462
0.00017290802
-2.6858159e-12
-0.00036593889
0.00015312206
-2.2566911e-12
-0.00038529315
0.0001300234
-1.8165466e-12
-0.00040187808
0.0001037502
-1.3492259e-12
-0.0004153045
7.4521519e-05
-8.1652567e-13
-0.00042517884
4.2657328e-05
-1.7930582e-13
-0.00043111205
8.5959265e-06
5.5513402e-13
-0.00043273433
-2.7092282e-05
1.1565416e-12
-0.00042971231
-6.3693348e-05
1.6930375e-12
-0.00042177441
-0.0001003467
2.1431847e-12
-0.00040874004
-0.00013604888
2.5735325e-12
-0.00039055381
-0.00016966929
3.048818e-12
-0.00036732204
-0.00019998081
3.5084599e-12
-0.00033934844
-0.00022570857
3.7770377e-12
-0.00030716413
-0.00024559864
3.7426375e-12
-0.00027154576
-0.00025850679
3.5201436e-12
-0.00023351511
-0.00026350316
3.3555311e-12
-0.00019431424
-0.00025998481
3.3499471e-12
-0.0001553523
-0.00024778284
3.3823867e-12
-0.00011812479
-0.00022724724
3.1829905e-12
-8.41115e-05
-0.0001992921
2.4480188e-12
-5.4665277e-05
-0.00016538857
2.8431184e-12
-3.0907225e-05
-0.00012750055
8.0129162e-12
-1.3644641e-05
-8.7963407e-05
3.654271e-12
-3.3229756e-06
-4.9326005e-05
-2.6040278e-11
-1.4285516e-05
2.8378817e-11
-4.3334265e-06
3.0368638e-05
-3.6182271e-11
-1.5627695e-05
8.2933526e-05
3.5620754e-11
-3.2417708e-05
0.00012724152
-3.6389277e-12
-5.3459979e-05
0.00016363186
-1.0394245e-11
-7.771199e-05
0.00019267531
-4.5337415e-12
-0.00010431038
0.00021503449
-4.1096735e-12
-0.00013254414
0.00023137869
-4.7600564e-12
-0.00016182601
0.00024232361
-4.753202e-12
-0.0001916648
0.00024839236
-4.5991201e-12
-0.00022164003
0.0002499967
-4.4545181e-12
-0.00025137962
0.00024743492
-4.2867429e-12
-0.00028054118
0.00024090283
-4.0880922e-12
-0.00030879665
0.00023051392
-3.848558e-12
-0.00033582012
0.0002163253
-3.5470176e-12
-0.00036127845
0.00019836634
-3.170707e-12
-0.00038482416
0.00017666779
-2.7303267e-12
-0.00040609071
0.00015128997
-2.256046e-12
-0.00042468991
0.0001223494
-1.7727374e-12
-0.00044021196
9.0043567e-05
-1.2705023e-12
-0.00045222877
5.467412e-05
-6.9989014e-13
-0.00046030117
1.6668319e-05
-1.9268707e-14
-0.00046399173
-2.3401711e-05
6.9609946e-13
-0.00046288268
-6.4802382e-05
1.4064148e-12
-0.00045660165
-0.00010662771
2.0122567e-12
-0.00044485441
-0.00014779614
2.4914168e-12
-0.00042746455
-0.00018705919
2.918651e-12
-0.00040441875
-0.00022302664
3.3653735e-12
-0.00037591425
-0.00025421306
3.7748012e-12
-0.00034240332
-0.00027910953
3.9736752e-12
-0.0003046275
-0.0002962826
3.8617774e-12
-0.00026363242
-0.00030449827
3.5679998e-12
-0.00022075434
-0.00030286293
3.3506188e-12
-0.00017757099
-0.00029096619
3.3324167e-12
-0.00013581451
-0.0002690037
3.2099514e-12
-9.7251564e-05
-0.00023785503
2.396714e-12
-6.3544603e-05
-0.00019909554
2.7840076e-12
-3.6114561e-05
-0.00015493062
8.8361791e-12
-1.60285e-05
-0.00010804947
3.7193955e-12
-3.9298197e-06
-6.1424647e-05
-3.132374e-11
-1.8215367e-05
3.3054595e-11
-4.4871965e-06
3.4855872e-05
-3.7481937e-11
-1.6177229e-05
9.462352e-05
3.6911316e-11
-3.3549706e-05
0.000144614
-3.7883421e-12
-5.5314241e-05
0.0001853964
-1.0806884e-11
-8.0389918e-05
0.000217751
-4.7559104e-12
-0.00010788421
0.00024252878
-4.332594e-12
-0.00013706651
0.000260561
-5.0271188e-12
-0.00016733939
0.00027259649
-5.0548173e-12
-0.00019821017
0.00027926315
-4.9357727e-12
-0.00022926446
0.00028105099
-4.81585e-12
-0.00026014239
0.00027831287
-4.6555062e-12
-0.00029051827
0.00027127872
-4.4587718e-12
-0.00032008334
0.00026007899
-4.2359052e-12
-0.0003485316
0.00024477357
-3.9764961e-12
-0.00037554829
0.00022538303
-3.6555962e-12
-0.00040080049
0.00020191998
-3.2529544e-12
-0.00042392986
0.00017441935
-2.7735024e-12
-0.00044454753
0.00014296708
-2.2494334e-12
-0.00046223143
0.00010772748
-1.712885e-12
-0.00047652684
6.8969528e-05
-1.1593406e-12
-0.00048695111
2.7092576e-05
-5.4649623e-13
-0.0004930039
-1.7348934e-05
1.5226902e-13
-0.00049418393
-6.3622352e-05
9.3256263e-13
-0.00049001415
-0.00011079747
1.7059511e-12
-0.00048007612
-0.00015773415
2.3627688e-12
-0.00046405412
-0.0002030812
2.867614e-12
-0.0004417883
-0.00024529249
3.2853382e-12
-0.00041333441
-0.00028266699
3.6832659e-12
-0.00037902472
-0.00031341921
4.0032074e-12
-0.00033952221
-0.00033578509
4.0827143e-12
-0.00029585653
-0.00034816394
3.8526328e-12
-0.00024942897
-0.00034929051
3.4931396e-12
-0.0002019743
-0.00033842089
3.2939766e-12
-0.00015547232
-0.00031550568
3.0999317e-12
-0.0001120112
-0.00028131613
2.2028904e-12
-7.3617234e-05
-0.0002374895
2.7041631e-12
-4.2076855e-05
-0.00018647101
9.8545193e-12
-1.8783938e-05
-0.0001313424
3.8326641e-12
-4.6399948e-06
-7.5568552e-05
-3.747957e-11
-2.2855398e-05
3.8509204e-11
-4.5902579e-06
3.9446169e-05
-3.8421026e-11
-1.6552601e-05
0.00010658583
3.7725635e-11
-3.433317e-05
0.00016239457
-3.9686418e-12
-5.6610596e-05
0.00020767384
-1.1178789e-11
-8.2276769e-05
0.00024341718
-5.0110476e-12
-0.00011041764
0.00027066966
-4.5952653e-12
-0.00014028823
0.0002904316
-5.3166354e-12
-0.00017128469
0.00030359296
-5.3623863e-12
-0.00020291594
0.0003108944
-5.2721738e-12
-0.00023477662
0.00031291168
-5.1870091e-12
-0.0002665224
0.00031005866
-5.0504083e-12
-0.00029784817
0.0003026045
-4.8578396e-12
-0.00032846923
0.00029070006
-4.6281529e-12
-0.00035810527
0.00027440962
-4.3726183e-12
-0.00038646674
0.0002537445
-4.0839683e-12
-0.0004132433
0.00022869654
-3.7360522e-12
-0.00043809409
0.00019927014
-3.3019343e-12
-0.00046063992
0.00016551291
-2.7798436e-12
-0.00048045769
0.00012754527
-2.2004771e-12
-0.00049707783
8.5589677e-05
-1.60041e-12
-0.00050998557
4.0000322e-05
-9.868617e-13
-0.00051862778
-8.7067325e-06
-3.2674473e-13
-0.00052242677
-5.9823377e-05
4.1908937e-13
-0.00052080309
-0.00011242115
1.2494457e-12
-0.0005132094
-0.00016532783
2.0720966e-12
-0.00049917677
-0.00021711381
2.7649456e-12
-0.00047837411
-0.00026609515
3.2775852e-12
-0.0004506793
-0.00031036182
3.662212e-12
-0.00041625772
-0.00034784082
3.9732184e-12
-0.00037563977
-0.00037640303
4.1467096e-12
-0.00032978434
-0.00039401935
4.0470628e-12
-0.00028011106
-0.00039896379
3.6950947e-12
-0.00022848304
-0.00039004893
3.3547283e-12
-0.00017712563
-0.00036686312
2.9730358e-12
-0.00012847726
-0.0003299645
1.8607007e-12
-8.498531e-05
-0.00028098144
2.5070722e-12
-4.8878477e-05
-0.00022257785
1.1032777e-11
-2.1960751e-05
-0.00015826013
4.0149912e-12
-5.4696601e-06
-9.2059601e-05
-4.4604708e-11
-2.8325101e-05
4.4873133e-11
-4.6406974e-06
4.4086906e-05
-3.8989845e-11
-1.674791e-05
0.000118693
3.8047795e-11
-3.4756153e-05
0.00018040282
-4.1710925e-12
-5.7328204e-05
0.0002302459
-1.1491999e-11
-8.3338893e-05
0.00026942787
-5.2827488e-12
-0.00011185923
0.00029919
-4.8906437e-12
-0.00014213414
0.00032070652
-5.6355265e-12
-0.00017355629
0.00033501512
-5.6877353e-12
-0.00020563859
0.00034297671
-5.6066114e-12
-0.00023798715
0.00034526023
-5.5431254e-12
-0.00027027596
0.00034234747
-5.4348671e-12
-0.00030222406
0.0003345526
-5.2620361e-12
-0.00033357532
0.00032205132
-5.031394e-12
-0.00036408079
0.0003049151
-4.7582982e-12
-0.00039348326
0.00028314699
-4.4576768e-12
-0.00042150364
0.00025671692
-4.1271882e-12
-0.00044782893
0.00022559542
-3.7408429e-12
-0.00047210182
0.0001897858
-3.2665303e-12
-0.00049391212
0.00014935557
-2.695596e-12
-0.00051279066
0.00010446823
-2.0543806e-12
-0.00052820666
5.5416339e-05
-1.3833684e-12
-0.00053956999
2.6566035e-06
-6.9715205e-13
-0.00054624045
-5.3152926e-05
1.254409e-14
-0.00054754606
-0.00011111555
8.0928223e-13
-0.00054281368
-0.00017006021
1.6838983e-12
-0.00053141451
-0.00022851296
2.536913e-12
-0.00051282679
-0.00028468285
3.2358443e-12
-0.00048671618
-0.00033647244
3.7195676e-12
-0.00045303135
-0.00038152568
4.0241032e-12
-0.00041210722
-0.00041732718
4.1811212e-12
-0.00036476182
-0.00044136474
4.1290958e-12
-0.00031236599
-0.0004513596
3.8330094e-12
-0.00025686011
-0.00044555481
3.4550408e-12
-0.00020069326
-0.00042302999
2.8899876e-12
-0.00014667073
-0.00038398704
1.4389962e-12
-9.7717128e-05
-0.00032993504
2.1755321e-12
-5.6590164e-05
-0.00026370482
1.2326105e-11
-2.5605247e-05
-0.00018924505
4.2347815e-12