/*--------------------------------*- C++ -*----------------------------------*\
  =========                 |
  \\      /  F ield         | OpenFOAM: The Open Source CFD Toolbox
   \\    /   O peration     | Website:  https://openfoam.org
    \\  /    A nd           | Version:  7
     \\/     M anipulation  |
\*---------------------------------------------------------------------------*/
FoamFile
{
    version     2.0;
    format      ascii;
    class       surfaceScalarField;
    location    "24";
    object      phi_0;
}
// * * * * * * * * * * * * * * * * * * * * * * * * * * * * * * * * * * * * * //

dimensions      [0 3 -1 0 0 0 0];

internalField   nonuniform List<scalar> 
45600
(
2.749062e-07
-2.8249825e-07
-8.5341076e-11
4.0320197e-07
-1.2826724e-07
-2.6920977e-11
1.3248678e-07
2.7072279e-07
-7.7173438e-12
-5.623493e-07
6.9483846e-07
-2.3036919e-12
-1.6393301e-06
1.0769801e-06
2.9620865e-12
-3.0276243e-06
1.3882903e-06
6.5216563e-12
-4.6524532e-06
1.6248204e-06
8.8402494e-12
-6.4450737e-06
1.7926086e-06
1.0468881e-11
-8.3453885e-06
1.9003028e-06
1.1633019e-11
-1.0301395e-05
1.9559964e-06
1.2423092e-11
-1.2267341e-05
1.9659365e-06
1.2882864e-11
-1.4201507e-05
1.9341556e-06
1.3034637e-11
-1.6064152e-05
1.8626323e-06
1.2891736e-11
-1.781593e-05
1.7517634e-06
1.2462251e-11
-1.9416948e-05
1.6010047e-06
1.1748086e-11
-2.0826545e-05
1.4095868e-06
1.0742506e-11
-2.2003786e-05
1.1772364e-06
9.4292049e-12
-2.2908641e-05
9.0485176e-07
7.7888795e-12
-2.3503735e-05
5.9508922e-07
5.8139122e-12
-2.3756568e-05
2.5282429e-07
3.531977e-12
-2.3642012e-05
-1.1456455e-07
1.0175207e-12
-2.3144889e-05
-4.9712424e-07
-1.6304003e-12
-2.2262464e-05
-8.8241496e-07
-4.3221101e-12
-2.1006514e-05
-1.2559316e-06
-6.9827003e-12
-1.9404766e-05
-1.6017317e-06
-9.5352335e-12
-1.7501468e-05
-1.9032931e-06
-1.1874689e-11
-1.5356901e-05
-2.1445744e-06
-1.3823447e-11
-1.3045711e-05
-2.3111928e-06
-1.5162213e-11
-1.0654074e-05
-2.391615e-06
-1.5726496e-11
-8.2757941e-06
-2.3782328e-06
-1.5502827e-11
-6.0075409e-06
-2.2682103e-06
-1.462405e-11
-3.9435068e-06
-2.0640316e-06
-1.3221198e-11
-2.1697808e-06
-1.7737691e-06
-1.1238965e-11
-7.5856818e-07
-1.4112543e-06
-8.4392823e-12
2.3816743e-07
-9.9671207e-07
-4.8578301e-12
7.9652548e-07
-5.5827018e-07
-1.4084279e-12
9.2930673e-07
-1.32709e-07
1.933189e-12
7.0563276e-07
2.236045e-07
5.189685e-12
2.9048992e-07
4.1496951e-07
8.4933824e-12
2.9039593e-07
1.8424001e-12
1.3275752e-07
-4.1522976e-07
-2.4326748e-11
-3.0181057e-07
3.0631959e-07
-1.5446743e-11
-1.6154915e-06
1.584418e-06
-1.3372672e-11
-3.8747627e-06
2.9541217e-06
-1.3997567e-11
-7.007362e-06
4.2095933e-06
-1.5033073e-11
-1.0879735e-05
5.2606829e-06
-1.6467111e-11
-1.5335111e-05
6.0802197e-06
-1.7827566e-11
-2.0215912e-05
6.6734319e-06
-1.8822266e-11
-2.5373935e-05
7.0583448e-06
-1.9382112e-11
-3.0673113e-05
7.2551919e-06
-1.9496955e-11
-3.5988346e-05
7.281188e-06
-1.9180204e-11
-4.1202599e-05
7.1484303e-06
-1.8460661e-11
-4.6203708e-05
6.8637646e-06
-1.7367678e-11
-5.0881805e-05
6.4298803e-06
-1.5921323e-11
-5.5127911e-05
5.847124e-06
-1.4127576e-11
-5.8833977e-05
5.1156602e-06
-1.1978533e-11
-6.1894446e-05
4.2377096e-06
-9.4648486e-12
-6.420924e-05
3.2196535e-06
-6.5939053e-12
-6.5687982e-05
2.0738418e-06
-3.4270717e-12
-6.6255089e-05
8.1994064e-07
-6.1710704e-14
-6.5855609e-05
-5.1404563e-07
3.4015337e-12
-6.4460451e-05
-1.8923001e-06
6.9313761e-12
-6.2072146e-05
-3.2707476e-06
1.0423157e-11
-5.8728788e-05
-4.5993116e-06
1.3799536e-11
-5.4506805e-05
-5.82372e-06
1.6924466e-11
-4.952166e-05
-6.8884305e-06
1.958504e-11
-4.3926181e-05
-7.7400589e-06
2.1562262e-11
-3.7906275e-05
-8.3311405e-06
2.2742397e-11
-3.1674021e-05
-8.623941e-06
2.3176015e-11
-2.5458331e-05
-8.5939835e-06
2.2997921e-11
-1.9493573e-05
-8.2329694e-06
2.223847e-11
-1.4006682e-05
-7.5508674e-06
2.0713392e-11
-9.203243e-06
-6.5771685e-06
1.818532e-11
-5.2528756e-06
-5.3616783e-06
1.4754729e-11
-2.2740135e-06
-3.9757147e-06
1.1059442e-11
-3.1736146e-07
-2.5150155e-06
7.7617246e-12
6.5697945e-07
-1.1069599e-06
4.6619343e-12
8.0368446e-07
7.7151223e-08
3.6404137e-12
4.1794186e-07
8.0092123e-07
4.4999542e-12
7.0824607e-07
-3.2770579e-12
-2.7363998e-07
-1.4157632e-07
-1.3413996e-11
-1.6275591e-06
1.6602489e-06
-8.2310963e-12
-4.2894638e-06
4.246336e-06
-9.4624931e-12
-8.2747031e-06
6.9393707e-06
-7.9510324e-12
-1.3474401e-05
9.4092958e-06
-5.8961774e-12
-1.9708656e-05
1.1494942e-05
-4.7466154e-12
-2.6765632e-05
1.3137202e-05
-3.9839008e-12
-3.4426441e-05
1.433425e-05
-3.3561561e-12
-4.2478398e-05
1.5110309e-05
-2.8428112e-12
-5.0720162e-05
1.5496959e-05
-2.4006848e-12
-5.8961952e-05
1.5522979e-05
-1.9798964e-12
-6.7023295e-05
1.5209773e-05
-1.5512973e-12
-7.4730087e-05
1.4570559e-05
-1.1052445e-12
-8.1912229e-05
1.3612027e-05
-6.4913854e-13
-8.8402616e-05
1.2337518e-05
-2.0346712e-13
-9.403791e-05
1.0750957e-05
2.0924638e-13
-9.8661205e-05
8.8610007e-06
5.9987175e-13
-0.00010212649
6.68493e-06
9.737897e-13
-0.00010430462
4.251962e-06
1.3464784e-12
-0.0001050904
1.6057233e-06
1.7051468e-12
-0.00010441004
-1.1943881e-06
2.0153183e-12
-0.00010222888
-4.0734573e-06
2.2238517e-12
-9.8557973e-05
-6.9416591e-06
2.3083107e-12
-9.3459505e-05
-9.6978041e-06
2.3192299e-12
-8.7049952e-05
-1.2233297e-05
2.3473726e-12
-7.9500615e-05
-1.4437771e-05
2.443266e-12
-7.1034947e-05
-1.6205698e-05
2.5510738e-12
-6.1922433e-05
-1.7443619e-05
2.5362661e-12
-5.2468906e-05
-1.8077468e-05
2.3246638e-12
-4.3003507e-05
-1.8059437e-05
2.0406925e-12
-3.3862731e-05
-1.7373817e-05
1.9678672e-12
-2.5372193e-05
-1.6041418e-05
2.2856386e-12
-1.7826855e-05
-1.4122423e-05
2.8004965e-12
-1.1470351e-05
-1.1718077e-05
3.0350474e-12
-6.4738082e-06
-8.9722626e-06
2.7541951e-12
-2.9140525e-06
-6.0749404e-06
2.2953288e-12
-7.5131538e-07
-3.2698974e-06
2.1858272e-12
1.9427815e-07
-8.6846669e-07
3.4125086e-12
2.6553674e-07
7.2981283e-07
5.7098662e-12
9.73771e-07
7.340518e-13
-7.4587323e-07
6.0431014e-07
-1.349904e-11
-3.179675e-06
4.0940518e-06
-2.1323918e-12
-7.3461294e-06
8.412801e-06
-7.5278186e-12
-1.3163045e-05
1.2756299e-05
-6.8134955e-12
-2.0455757e-05
1.6702014e-05
-4.1453643e-12
-2.8992514e-05
2.0031701e-05
-2.7745819e-12
-3.8513689e-05
2.2658378e-05
-1.8535571e-12
-4.8752417e-05
2.457298e-05
-1.0179676e-12
-5.9446648e-05
2.5804544e-05
-3.2736263e-13
-7.0344424e-05
2.6394739e-05
2.2263846e-13
-8.1204644e-05
2.6383201e-05
6.7048773e-13
-9.1795429e-05
2.5800555e-05
1.0451779e-12
-0.0001018918
2.4666922e-05
1.3695104e-12
-0.00011127396
2.2994185e-05
1.6574071e-12
-0.00011972706
2.0790619e-05
1.9030685e-12
-0.00012704284
1.8066745e-05
2.0801438e-12
-0.00013302336
1.4841521e-05
2.1601658e-12
-0.00013748659
1.1148163e-05
2.1324863e-12
-0.00014027369
7.039044e-06
2.0157093e-12
-0.00014125723
2.5892597e-06
1.8510228e-12
-0.00014034997
-2.1016495e-06
1.673922e-12
-0.00013751361
-6.9098065e-06
1.4323479e-12
-0.00013276628
-1.1688968e-05
1.0788145e-12
-0.00012618862
-1.6275467e-05
5.90668e-13
-0.00011792727
-2.0494673e-05
3.2607818e-14
-0.00010819537
-2.4169698e-05
-4.4618964e-13
-9.7269418e-05
-2.7131667e-05
-7.1129345e-13
-8.5482025e-05
-2.9230981e-05
-7.6986188e-13
-7.3210614e-05
-3.0348821e-05
-7.8863428e-13
-6.0861986e-05
-3.0408037e-05
-9.2677472e-13
-4.8853251e-05
-2.9382602e-05
-1.1002061e-12
-3.75898e-05
-2.7304967e-05
-9.4800105e-13
-2.7441285e-05
-2.4270982e-05
-1.6282968e-13
-1.8716672e-05
-2.0442605e-05
1.0595908e-12
-1.1639399e-05
-1.604938e-05
2.0421905e-12
-6.3235063e-06
-1.1390775e-05
2.3511584e-12
-2.751545e-06
-6.841982e-06
2.4888052e-12
-7.572274e-07
-2.8629342e-06
3.2463598e-12
-9.5498882e-09
-1.7855051e-08
4.3461297e-12
9.6426188e-07
3.7713531e-12
-1.2279752e-06
1.832302e-06
-1.487341e-11
-4.7881174e-06
7.6541883e-06
3.9711031e-12
-1.0521527e-05
1.4146217e-05
-6.5794297e-12
-1.8214272e-05
2.0449054e-05
-7.6343188e-12
-2.7603811e-05
2.6091565e-05
-5.2127683e-12
-3.8396094e-05
3.0823992e-05
-4.4629349e-12
-5.0282769e-05
3.4545056e-05
-4.1114483e-12
-6.295441e-05
3.7244622e-05
-3.6270745e-12
-7.6108573e-05
3.8958711e-05
-3.1401721e-12
-8.9453218e-05
3.973939e-05
-2.6855545e-12
-0.00010270683
3.9636817e-05
-2.2463647e-12
-0.0001155968
3.8690534e-05
-1.8195457e-12
-0.00012785754
3.6927658e-05
-1.4025356e-12
-0.00013922932
3.4365968e-05
-9.8125693e-13
-0.00014945881
3.1020107e-05
-5.3858178e-13
-0.00015830149
2.6909425e-05
-7.3664213e-14
-0.00016552622
2.2066254e-05
3.896775e-13
-0.0001709217
1.6543655e-05
8.1202436e-13
-0.00017430454
1.0421884e-05
1.1654305e-12
-0.00017552831
3.8130223e-06
1.4590945e-12
-0.00017449311
-3.1368634e-06
1.7358533e-12
-0.00017115491
-1.0248016e-05
2.0210217e-12
-0.00016553388
-1.7309991e-05
2.297388e-12
-0.00015772104
-2.4088288e-05
2.4849075e-12
-0.0001478824
-3.0333299e-05
2.5016698e-12
-0.00013625988
-3.579223e-05
2.3605325e-12
-0.00012316835
-4.0223246e-05
2.2065575e-12
-0.00010898822
-4.3411154e-05
2.2210283e-12
-9.4153388e-05
-4.5183633e-05
2.4390089e-12
-7.91345e-05
-4.5426855e-05
2.6579138e-12
-6.4417763e-05
-4.4099284e-05
2.6015596e-12
-5.0480145e-05
-4.124262e-05
2.2646792e-12
-3.7762025e-05
-3.6989223e-05
2.05433e-12
-2.6638796e-05
-3.1565928e-05
2.3885045e-12
-1.7393158e-05
-2.5294976e-05
3.0920889e-12
-1.0189861e-05
-1.8593939e-05
3.5901675e-12
-5.0546867e-06
-1.1977113e-05
3.8550104e-12
-1.8598586e-06
-6.0578564e-06
3.1186638e-12
-3.2226193e-07
-1.5554875e-06
1.957424e-13
6.4201945e-07
5.8512888e-12
-1.6931655e-06
3.5254877e-06
-1.7289584e-11
-6.3713895e-06
1.2332405e-05
9.4792117e-12
-1.3671396e-05
2.1446227e-05
-5.5564368e-12
-2.3233944e-05
3.001161e-05
-7.710076e-12
-3.469505e-05
3.7552679e-05
-4.9582495e-12
-4.7689537e-05
4.3818489e-05
-4.3663202e-12
-6.1857139e-05
4.8712666e-05
-4.2319469e-12
-7.684758e-05
5.2235066e-05
-3.8654299e-12
-9.2323278e-05
5.4434411e-05
-3.4571922e-12
-0.00010795958
5.537569e-05
-3.0558209e-12
-0.00012344317
5.5120416e-05
-2.6360815e-12
-0.0001384698
5.3717171e-05
-2.198321e-12
-0.00015274224
5.1200107e-05
-1.7588091e-12
-0.00016596948
4.7593205e-05
-1.3278726e-12
-0.00017786761
4.2918239e-05
-8.9630211e-13
-0.00018816287
3.7204681e-05
-4.4282832e-13
-0.00019659667
3.0500055e-05
4.4754643e-14
-0.0002029326
2.2879583e-05
5.4920087e-13
-0.00020696489
1.4454188e-05
1.0237214e-12
-0.00020852805
5.3761906e-06
1.4197245e-12
-0.0002075069
-4.1580187e-06
1.7252516e-12
-0.00020384651
-1.3908426e-05
1.9867327e-12
-0.00019756137
-2.3595154e-05
2.264828e-12
-0.00018874294
-3.2906713e-05
2.572434e-12
-0.00017756494
-4.1511275e-05
2.8282413e-12
-0.00016428539
-4.9071751e-05
2.9047669e-12
-0.00014924474
-5.5263901e-05
2.7606527e-12
-0.00013285925
-5.9796695e-05
2.5396602e-12
-0.00011560915
-6.2433794e-05
2.4970839e-12
-9.8021345e-05
-6.3014668e-05
2.7541641e-12
-8.0646877e-05
-6.1473676e-05
3.1041927e-12
-6.4033876e-05
-5.7855531e-05
3.1632761e-12
-4.8697219e-05
-5.232588e-05
2.8348769e-12
-3.5086787e-05
-4.517647e-05
2.5189454e-12
-2.355665e-05
-3.6825212e-05
2.6457421e-12
-1.4337849e-05
-2.7812709e-05
3.3360598e-12
-7.5174346e-06
-1.8797434e-05
4.552152e-12
-3.0267026e-06
-1.0548591e-05
3.485069e-12
-6.4250315e-07
-3.9397283e-06
-2.2503331e-12
-4.9141838e-10
8.215542e-12
-2.1329281e-06
5.6584368e-06
-2.0025416e-11
-7.8910344e-06
1.8090502e-05
1.4345534e-11
-1.6717311e-05
3.0272509e-05
-4.744948e-12
-2.8105575e-05
4.139988e-05
-7.7289648e-12
-4.1584833e-05
5.1031941e-05
-4.5029578e-12
-5.6713776e-05
5.8947438e-05
-3.9470905e-12
-7.3077807e-05
6.5076704e-05
-3.9302189e-12
-9.0286499e-05
6.9443765e-05
-3.6056306e-12
-0.00010797061
7.2118532e-05
-3.2304148e-12
-0.00012577844
7.3183519e-05
-2.8734699e-12
-0.0001433718
7.2713776e-05
-2.4984957e-12
-0.00016042237
7.0767742e-05
-2.0901155e-12
-0.00017660904
6.7386785e-05
-1.6563703e-12
-0.00019161691
6.2601075e-05
-1.2195284e-12
-0.00020513821
5.6439544e-05
-7.9836423e-13
-0.00021687547
4.8941948e-05
-3.9206144e-13
-0.00022654674
4.0171315e-05
2.1627829e-14
-0.00023389264
3.0225476e-05
4.6636055e-13
-0.00023868507
1.9246619e-05
9.3694525e-13
-0.000240737
7.4281303e-06
1.3846153e-12
-0.00023991297
-4.9820351e-06
1.7394517e-12
-0.00023613967
-1.7681726e-05
1.9747087e-12
-0.00022941619
-3.0318656e-05
2.1246576e-12
-0.00021982297
-4.2499966e-05
2.2840839e-12
-0.00020752883
-5.3805425e-05
2.5126976e-12
-0.0001927951
-6.3805454e-05
2.7475745e-12
-0.00017597579
-7.2083163e-05
2.8259666e-12
-0.00015751283
-7.8259639e-05
2.6450402e-12
-0.00013792545
-8.2021223e-05
2.3308144e-12
-0.0001177932
-8.3147004e-05
2.201451e-12
-9.7732552e-05
-8.1534359e-05
2.4627028e-12
-7.8367796e-05
-7.7220225e-05
2.9178318e-12
-6.0297579e-05
-7.0396e-05
3.1124046e-12
-4.4059311e-05
-6.1414725e-05
2.8531115e-12
-3.0094329e-05
-5.0790285e-05
2.4777044e-12
-1.8717239e-05
-3.9189867e-05
2.8740763e-12
-1.0093023e-05
-2.742161e-05
4.7942654e-12
-4.2252782e-06
-1.6416289e-05
3.6946129e-12
-9.5847515e-07
-7.206535e-06
-4.8523141e-12
-9.5899418e-07
1.0182587e-11
-2.5450404e-06
8.2034985e-06
-2.2794202e-11
-9.3287881e-06
2.4874235e-05
1.8660675e-11
-1.9615237e-05
4.0558966e-05
-4.2083172e-12
-3.2756635e-05
5.4541288e-05
-7.9391859e-12
-4.8175569e-05
6.6450878e-05
-4.2688011e-12
-6.5353657e-05
7.6125529e-05
-3.7771752e-12
-8.3821581e-05
8.3544634e-05
-3.904658e-12
-0.00010314993
8.8772126e-05
-3.6390197e-12
-0.0001229408
9.1909406e-05
-3.2954999e-12
-0.00014282001
9.306273e-05
-2.9714111e-12
-0.00016243027
9.2324044e-05
-2.6381374e-12
-0.00018142569
8.9763161e-05
-2.2764674e-12
-0.00019946796
8.5429051e-05
-1.8747877e-12
-0.00021622466
7.9357782e-05
-1.4357838e-12
-0.00023136984
7.1584733e-05
-9.8173142e-13
-0.0002445868
6.2158911e-05
-5.4055425e-13
-0.00025557303
5.1157544e-05
-1.2401452e-13
-0.00026404709
3.8699526e-05
2.8574217e-13
-0.00026975709
2.4956607e-05
7.2189706e-13
-0.00027249052
1.0161562e-05
1.1942384e-12
-0.00027208513
-5.3874107e-06
1.6575313e-12
-0.00026844022
-2.1326622e-05
2.0417147e-12
-0.00026152831
-3.7230562e-05
2.2705752e-12
-0.00025140604
-5.2622256e-05
2.3680519e-12
-0.00023822374
-6.6987765e-05
2.4504101e-12
-0.00022223251
-7.9796703e-05
2.6270798e-12
-0.00020378762
-9.0528035e-05
2.8713619e-12
-0.00018334671
-9.8700496e-05
2.9999381e-12
-0.0001614616
-0.00010390629
2.8460514e-12
-0.0001387626
-0.00010584604
2.4993026e-12
-0.00011593484
-0.00010436221
2.3140263e-12
-9.3687171e-05
-9.9467942e-05
2.5589456e-12
-7.2715132e-05
-9.1367991e-05
3.0457637e-12
-5.366049e-05
-8.0469284e-05
3.2207615e-12
-3.7070909e-05
-6.7379864e-05
2.8034565e-12
-2.3363875e-05
-5.2896975e-05
2.8296919e-12
-1.2799293e-05
-3.7986224e-05
4.9894171e-12
-5.4648584e-06
-2.3750695e-05
3.5906815e-12
-1.2772423e-06
-1.1394124e-05
-7.67738e-12
-2.2362579e-06
1.2697698e-11
-2.9284623e-06
1.1131985e-05
-2.5484371e-11
-1.06736e-05
3.261935e-05
2.2511994e-11
-2.2336022e-05
5.2221395e-05
-3.8634593e-12
-3.7135721e-05
6.9340998e-05
-8.2515153e-12
-5.4393738e-05
8.3708901e-05
-4.1313752e-12
-7.3517126e-05
9.5248921e-05
-3.6865934e-12
-9.3983661e-05
0.00010401117
-3.9545999e-12
-0.00011532718
0.00011011565
-3.7593441e-12
-0.00013712426
0.00011370649
-3.4547224e-12
-0.00015898248
0.00011492096
-3.1530484e-12
-0.00018053059
0.00011387217
-2.836757e-12
-0.00020141084
0.00011064341
-2.504117e-12
-0.00022127362
0.00010529183
-2.1458442e-12
-0.00023977467
9.7858837e-05
-1.7432026e-12
-0.00025657479
8.838485e-05
-1.2902949e-12
-0.00027134181
7.6925938e-05
-8.0597675e-13
-0.00028375489
6.3570631e-05
-3.2712183e-13
-0.0002935107
4.8455346e-05
1.1914971e-13
-0.00030033149
3.1777382e-05
5.4040699e-13
-0.00030397464
1.3804701e-05
9.7137525e-13
-0.00030424389
-5.1181716e-06
1.4356936e-12
-0.00030100134
-2.4569166e-05
1.9358759e-12
-0.00029418095
-4.4050935e-05
2.3575174e-12
-0.00028380176
-6.3001427e-05
2.6042747e-12
-0.00026998082
-8.0808718e-05
2.6705169e-12
-0.00025294423
-9.6833339e-05
2.6782966e-12
-0.00023303487
-0.00011043743
2.7867411e-12
-0.000210715
-0.00012102036
3.0176934e-12
-0.00018656178
-0.00012805946
3.1827037e-12
-0.00016125405
-0.00013115372
3.0623434e-12
-0.00013554934
-0.00013006694
2.7133412e-12
-0.000110251
-0.00012476636
2.5179235e-12
-8.6167046e-05
-0.000115452
2.7717466e-12
-6.4063468e-05
-0.00010257282
3.1679587e-12
-4.4616458e-05
-8.6826814e-05
3.0218641e-12
-2.8368404e-05
-6.9145043e-05
3.0360733e-12
-1.5693106e-05
-5.0661574e-05
5.397015e-12
-6.7752078e-06
-3.2668607e-05
3.4295988e-12
-1.6070274e-06
-1.6562278e-05
-1.0713625e-11
-3.8432969e-06
1.5298694e-11
-3.281675e-06
1.441369e-05
-2.8035024e-11
-1.1915786e-05
4.1253433e-05
2.5957918e-11
-2.4855338e-05
6.516095e-05
-3.6552413e-12
-4.1199632e-05
8.5685303e-05
-8.6345694e-12
-6.0175894e-05
0.00010268517
-4.0719704e-12
-8.1121693e-05
0.00011619473
-3.6372007e-12
-0.0001034656
0.00012635509
-4.0136268e-12
-0.00012670803
0.00013335808
-3.8815078e-12
-0.00015040365
0.00013740211
-3.6273612e-12
-0.000174146
0.00013866331
-3.362076e-12
-0.00019755467
0.00013728084
-3.0594532e-12
-0.00022026528
0.00013335403
-2.7305813e-12
-0.00024192237
0.00012694892
-2.3891606e-12
-0.00026217507
0.00011811153
-2.0256796e-12
-0.00028067548
0.00010688526
-1.6166559e-12
-0.00029707955
9.3330006e-05
-1.1467304e-12
-0.00031105015
7.7541243e-05
-6.2872478e-13
-0.00032226231
5.9667513e-05
-1.0452899e-13
-0.00033041036
3.9925437e-05
3.8167011e-13
-0.00033521714
1.8611478e-05
8.0954482e-13
-0.00033644533
-3.8899979e-06
1.2017159e-12
-0.00033390999
-2.7104528e-05
1.6901795e-12
-0.00032749429
-5.0466635e-05
2.2028616e-12
-0.00031716528
-7.3330416e-05
2.6573046e-12
-0.00030299079
-9.4983183e-05
2.9306019e-12
-0.00028515543
-0.0001146687
2.9766981e-12
-0.00026397392
-0.00013161898
2.9141397e-12
-0.00023989951
-0.00014509481
2.9441477e-12
-0.00021352486
-0.00015443411
3.1343556e-12
-0.00018557293
-0.0001591056
3.2973214e-12
-0.00015687585
-0.00015876398
3.1835694e-12
-0.00012834105
-0.00015330117
2.8555099e-12
-0.00010090565
-0.00014288747
2.7228214e-12
-7.548218e-05
-0.00012799632
2.9245691e-12
-5.2900924e-05
-0.00010940803
2.9113695e-12
-3.3854958e-05
-8.8190978e-05
3.1819059e-12
-1.8854705e-05
-6.5661847e-05
6.0118386e-12
-8.1982406e-06
-4.33251e-05
3.3850595e-12
-1.9611609e-06
-2.2799345e-05
-1.3996341e-11
-5.8044684e-06
1.7984768e-11
-3.6022752e-06
1.8015998e-05
-3.0417226e-11
-1.3044778e-05
5.0695907e-05
2.9014041e-11
-2.7149099e-05
7.9265272e-05
-3.5437509e-12
-4.4906859e-05
0.00010344307
-9.0676895e-12
-6.5461057e-05
0.00012323937
-4.1034122e-12
-8.8086636e-05
0.00013882031
-3.6637265e-12
-0.00011216805
0.00015043651
-4.1174195e-12
-0.00013717652
0.00015836655
-4.025292e-12
-0.00016264883
0.00016287442
-3.8155715e-12
-0.00018816873
0.00016418321
-3.6021644e-12
-0.0002133513
0.00016246342
-3.3372042e-12
-0.00023783056
0.0001578333
-3.0193899e-12
-0.00026125033
0.00015036869
-2.6723818e-12
-0.00028325815
0.00014011936
-2.3119749e-12
-0.00030350206
0.00012712917
-1.9330968e-12
-0.00032162983
0.00011145777
-1.5114878e-12
-0.00033729057
9.3201975e-05
-1.0219719e-12
-0.00035013848
7.2515423e-05
-4.6765816e-13
-0.00035983887
4.9625843e-05
1.0714757e-13
-0.00036607651
2.484913e-05
6.2409309e-13
-0.00036856708
-1.3994335e-06
1.0158181e-12
-0.00036706951
-2.8602118e-05
1.4973966e-12
-0.0003614046
-5.6131564e-05
1.9627621e-12
-0.0003514729
-8.3262132e-05
2.4682508e-12
-0.00033727623
-0.00010917983
2.9455363e-12
-0.00031893941
-0.00013300549
3.2410366e-12
-0.00029673037
-0.00015382801
3.2731465e-12
-0.00027107604
-0.00017074918
3.1534037e-12
-0.00024257056
-0.00018293964
3.1127114e-12
-0.00021197236
-0.00018970382
3.2465768e-12
-0.00018018681
-0.00019054949
3.3660082e-12
-0.00014823265
-0.00018525529
3.2382652e-12
-0.00011719225
-0.0001739279
2.9808172e-12
-8.8148598e-05
-0.00015704003
2.8536396e-12
-6.2115142e-05
-0.0001354415
2.6552087e-12
-3.9966322e-05
-0.00011033977
3.1308283e-12
-2.2377509e-05
-8.3250649e-05
6.6849317e-12
-9.7826502e-06
-5.5919973e-05
3.464234e-12
-2.3546906e-06
-3.0227298e-05
-1.7555487e-11
-8.1591778e-06
2.0953627e-11
-3.887022e-06
2.1903054e-05
-3.2602302e-11
-1.404856e-05
6.0857416e-05
3.1659999e-11
-2.9191852e-05
9.4408567e-05
-3.5064473e-12
-4.8214937e-05
0.00012246617
-9.5167589e-12
-7.0187373e-05
0.00014521181
-4.2051309e-12
-9.4329439e-05
0.00016296238
-3.7668811e-12
-0.00011998743
0.00017609451
-4.286523e-12
-0.00014660814
0.00018498727
-4.2167868e-12
-0.00017371479
0.00018998107
-4.029353e-12
-0.00020088562
0.00019135404
-3.8573455e-12
-0.00022773571
0.00018931351
-3.6445011e-12
-0.0002539023
0.0001839999
-3.3680198e-12
-0.00027903358
0.00017549997
-3.0340042e-12
-0.0003027806
0.00016386639
-2.6616911e-12
-0.00032479216
0.00014914074
-2.2713939e-12
-0.00034471217
0.00013137778
-1.8666574e-12
-0.00036217934
0.00011066914
-1.4252078e-12
-0.00037682919
8.7165266e-05
-9.1455522e-13
-0.00038829846
6.1095112e-05
-3.2661234e-13
-0.00039623232
3.2782998e-05
3.0971453e-13
-0.00040029445
2.6627083e-06
9.409869e-13
-0.00040018198
-2.8714579e-05
1.3985786e-12
-0.00039564222
-6.0671342e-05
1.8172793e-12
-0.00038649561
-9.2408772e-05
2.2541998e-12
-0.00037266098
-0.00012301448
2.7485691e-12
-0.00035418342
-0.00015148303
3.2290631e-12
-0.00033126235
-0.00017674904
3.5269614e-12
-0.00030427651
-0.000197735
3.5369688e-12
-0.00027380183
-0.00021341435
3.3680436e-12
-0.00024061731
-0.00022288839
3.2663113e-12
-0.00020569435
-0.00022547246
3.3297651e-12
-0.00017016567
-0.00022078393
3.3857968e-12
-0.0001352726
-0.00020882094
3.2754736e-12
-0.0001022929
-0.00019001975
3.0066039e-12
-7.2455651e-05
-0.00016527879
2.4882306e-12
-4.6853113e-05
-0.00013594231
2.9698202e-12
-2.6361254e-05
-0.0001037425
7.3330387e-12
-1.1580389e-05
-7.0700832e-05
3.5760396e-12
-2.8033024e-06
-3.9004369e-05
-2.1508524e-11
-1.0962508e-05
2.4377194e-11
-4.1320887e-06
2.6035176e-05
-3.4542307e-11
-1.4913995e-05
7.1639291e-05
3.3867528e-11
-3.0956925e-05
0.0001104515
-3.5395382e-12
-5.1080321e-05
0.00014258957
-9.9609409e-12
-7.4291796e-05
0.00016842329
-4.3509831e-12
-9.9765495e-05
0.00018843609
-3.9214656e-12
-0.0001268159
0.00020314492
-4.5091266e-12
-0.00015487036
0.00021304173
-4.4651908e-12
-0.00018344284
0.00021855356
-4.2889694e-12
-0.00021211025
0.00022002146
-4.1341616e-12
-0.00024049206
0.00021769532
-3.9565172e-12
-0.00026823343
0.00021174126
-3.7309569e-12
-0.00029499191
0.00020225845
-3.4434522e-12
-0.00032042734
0.00018930183
-3.0900346e-12
-0.00034419461
0.00017290802
-2.6858159e-12
-0.00036593888
0.00015312206
-2.2566911e-12
-0.00038529314
0.0001300234
-1.8165466e-12
-0.00040187808
0.0001037502
-1.3492259e-12
-0.00041530449
7.4521519e-05
-8.1652567e-13
-0.00042517883
4.2657328e-05
-1.7930582e-13
-0.00043111204
8.5959266e-06
5.5513402e-13
-0.00043273432
-2.709228e-05
1.1565416e-12
-0.00042971231
-6.3693344e-05
1.6930375e-12
-0.0004217744
-0.00010034669
2.1431847e-12
-0.00040874004
-0.00013604888
2.5735325e-12
-0.00039055381
-0.00016966929
3.048818e-12
-0.00036732203
-0.00019998081
3.5084599e-12
-0.00033934844
-0.00022570856
3.7770377e-12
-0.00030716413
-0.00024559864
3.7426375e-12
-0.00027154576
-0.00025850679
3.5201436e-12
-0.00023351511
-0.00026350315
3.3555311e-12
-0.00019431423
-0.00025998481
3.3499471e-12
-0.0001553523
-0.00024778284
3.3823867e-12
-0.00011812479
-0.00022724723
3.1829905e-12
-8.4111499e-05
-0.0001992921
2.4480188e-12
-5.4665275e-05
-0.00016538856
2.8431184e-12
-3.0907224e-05
-0.00012750055
8.0129162e-12
-1.3644641e-05
-8.7963406e-05
3.654271e-12
-3.322976e-06
-4.9326004e-05
-2.6040278e-11
-1.4285515e-05
2.8378817e-11
-4.3334263e-06
3.0368637e-05
-3.6182271e-11
-1.5627695e-05
8.2933523e-05
3.5620754e-11
-3.2417707e-05
0.00012724152
-3.6389277e-12
-5.3459977e-05
0.00016363185
-1.0394245e-11
-7.7711988e-05
0.00019267531
-4.5337415e-12
-0.00010431038
0.00021503448
-4.1096735e-12
-0.00013254414
0.00023137868
-4.7600564e-12
-0.000161826
0.0002423236
-4.753202e-12
-0.0001916648
0.00024839236
-4.5991201e-12
-0.00022164003
0.0002499967
-4.4545181e-12
-0.00025137962
0.00024743492
-4.2867429e-12
-0.00028054118
0.00024090283
-4.0880922e-12
-0.00030879664
0.00023051392
-3.848558e-12
-0.00033582012
0.0002163253
-3.5470176e-12
-0.00036127844
0.00019836634
-3.170707e-12
-0.00038482415
0.00017666778
-2.7303267e-12
-0.00040609071
0.00015128997
-2.256046e-12
-0.0004246899
0.0001223494
-1.7727374e-12
-0.00044021196
9.0043568e-05
-1.2705023e-12
-0.00045222876
5.4674122e-05
-6.9989014e-13
-0.00046030116
1.666832e-05
-1.9268707e-14
-0.00046399173
-2.340171e-05
6.9609946e-13
-0.00046288268
-6.480238e-05
1.4064148e-12
-0.00045660165
-0.00010662771
2.0122567e-12
-0.0004448544
-0.00014779613
2.4914168e-12
-0.00042746454
-0.00018705918
2.918651e-12
-0.00040441874
-0.00022302664
3.3653735e-12
-0.00037591424
-0.00025421306
3.7748012e-12
-0.00034240332
-0.00027910953
3.9736752e-12
-0.0003046275
-0.0002962826
3.8617774e-12
-0.00026363242
-0.00030449826
3.5679998e-12
-0.00022075434
-0.00030286292
3.3506188e-12
-0.00017757099
-0.00029096619
3.3324167e-12
-0.00013581451
-0.0002690037
3.2099514e-12
-9.7251564e-05
-0.00023785503
2.396714e-12
-6.3544603e-05
-0.00019909554
2.7840076e-12
-3.611456e-05
-0.00015493062
8.8361791e-12
-1.60285e-05
-0.00010804947
3.7193955e-12
-3.9298196e-06
-6.1424646e-05
-3.132374e-11
-1.8215367e-05
3.3054595e-11
-4.4871963e-06
3.4855871e-05
-3.7481937e-11
-1.6177229e-05
9.4623518e-05
3.6911316e-11
-3.3549705e-05
0.000144614
-3.7883421e-12
-5.531424e-05
0.0001853964
-1.0806884e-11
-8.0389916e-05
0.00021775099
-4.7559104e-12
-0.00010788421
0.00024252878
-4.332594e-12
-0.00013706651
0.00026056099
-5.0271188e-12
-0.00016733938
0.00027259648
-5.0548173e-12
-0.00019821017
0.00027926315
-4.9357727e-12
-0.00022926445
0.00028105099
-4.81585e-12
-0.00026014239
0.00027831286
-4.6555062e-12
-0.00029051827
0.00027127871
-4.4587718e-12
-0.00032008333
0.00026007898
-4.2359052e-12
-0.0003485316
0.00024477357
-3.9764961e-12
-0.00037554829
0.00022538303
-3.6555962e-12
-0.00040080048
0.00020191998
-3.2529544e-12
-0.00042392986
0.00017441935
-2.7735024e-12
-0.00044454753
0.00014296708
-2.2494334e-12
-0.00046223142
0.00010772748
-1.712885e-12
-0.00047652683
6.896953e-05
-1.1593406e-12
-0.0004869511
2.7092579e-05
-5.4649623e-13
-0.00049300389
-1.7348932e-05
1.5226902e-13
-0.00049418392
-6.362235e-05
9.3256263e-13
-0.00049001415
-0.00011079746
1.7059511e-12
-0.00048007612
-0.00015773414
2.3627688e-12
-0.00046405411
-0.00020308119
2.867614e-12
-0.0004417883
-0.00024529248
3.2853382e-12
-0.0004133344
-0.00028266698
3.6832659e-12
-0.00037902472
-0.00031341921
4.0032074e-12
-0.00033952221
-0.00033578508
4.0827143e-12
-0.00029585653
-0.00034816393
3.8526328e-12
-0.00024942896
-0.0003492905
3.4931396e-12
-0.0002019743
-0.00033842088
3.2939766e-12
-0.00015547232
-0.00031550568
3.0999317e-12
-0.0001120112
-0.00028131613
2.2028904e-12
-7.3617235e-05
-0.0002374895
2.7041631e-12
-4.2076855e-05
-0.00018647101
9.8545193e-12
-1.8783938e-05
-0.00013134239
3.8326641e-12
-4.6399945e-06
-7.5568551e-05
-3.747957e-11
-2.2855398e-05
3.8509204e-11
-4.5902577e-06
3.9446168e-05
-3.8421026e-11
-1.6552601e-05
0.00010658582
3.7725635e-11
-3.4333169e-05
0.00016239457
-3.9686418e-12
-5.6610595e-05
0.00020767384
-1.1178789e-11
-8.2276767e-05
0.00024341717
-5.0110476e-12
-0.00011041763
0.00027066965
-4.5952653e-12
-0.00014028823
0.00029043159
-5.3166354e-12
-0.00017128469
0.00030359295
-5.3623863e-12
-0.00020291593
0.0003108944
-5.2721738e-12
-0.00023477661
0.00031291167
-5.1870091e-12
-0.0002665224
0.00031005865
-5.0504083e-12
-0.00029784817
0.00030260449
-4.8578396e-12
-0.00032846923
0.00029070005
-4.6281529e-12
-0.00035810527
0.00027440961
-4.3726183e-12
-0.00038646674
0.0002537445
-4.0839683e-12
-0.0004132433
0.00022869654
-3.7360522e-12
-0.00043809408
0.00019927014
-3.3019343e-12
-0.00046063991
0.00016551291
-2.7798436e-12
-0.00048045769
0.00012754527
-2.2004771e-12
-0.00049707782
8.5589678e-05
-1.60041e-12
-0.00050998557
4.0000325e-05
-9.868617e-13
-0.00051862778
-8.7067292e-06
-3.2674473e-13
-0.00052242677
-5.9823375e-05
4.1908937e-13
-0.00052080309
-0.00011242114
1.2494457e-12
-0.0005132094
-0.00016532782
2.0720966e-12
-0.00049917677
-0.0002171138
2.7649456e-12
-0.00047837411
-0.00026609514
3.2775852e-12
-0.0004506793
-0.00031036182
3.662212e-12
-0.00041625772
-0.00034784082
3.9732184e-12
-0.00037563977
-0.00037640303
4.1467096e-12
-0.00032978434
-0.00039401934
4.0470628e-12
-0.00028011106
-0.00039896378
3.6950947e-12
-0.00022848303
-0.00039004892
3.3547283e-12
-0.00017712562
-0.00036686311
2.9730358e-12
-0.00012847725
-0.00032996449
1.8607007e-12
-8.498531e-05
-0.00028098143
2.5070722e-12
-4.8878477e-05
-0.00022257785
1.1032777e-11
-2.1960751e-05
-0.00015826013
4.0149912e-12
-5.46966e-06
-9.2059599e-05
-4.4604708e-11
-2.8325101e-05
4.4873133e-11
-4.6406972e-06
4.4086905e-05
-3.8989845e-11
-1.6747909e-05
0.000118693
3.8047795e-11
-3.4756152e-05
0.00018040282
-4.1710925e-12
-5.7328203e-05
0.0002302459
-1.1491999e-11
-8.3338892e-05
0.00026942786
-5.2827488e-12
-0.00011185923
0.00029918999
-4.8906437e-12
-0.00014213414
0.00032070651
-5.6355265e-12
-0.00017355629
0.00033501511
-5.6877353e-12
-0.00020563859
0.0003429767
-5.6066114e-12
-0.00023798714
0.00034526023
-5.5431254e-12
-0.00027027596
0.00034234747
-5.4348671e-12
-0.00030222406
0.0003345526
-5.2620361e-12
-0.00033357531
0.00032205132
-5.031394e-12
-0.00036408078
0.00030491509
-4.7582982e-12
-0.00039348326
0.00028314698
-4.4576768e-12
-0.00042150364
0.00025671692
-4.1271882e-12
-0.00044782892
0.00022559542
-3.7408429e-12
-0.00047210181
0.0001897858
-3.2665303e-12
-0.00049391212
0.00014935557
-2.695596e-12
-0.00051279066
0.00010446823
-2.0543806e-12
-0.00052820666
5.541634e-05
-1.3833684e-12
-0.00053956999
2.6566066e-06
-6.9715205e-13
-0.00054624045
-5.3152922e-05
1.254409e-14
-0.00054754606
-0.00011111555
8.0928223e-13
-0.00054281368
-0.00017006021
1.6838983e-12
-0.00053141451
-0.00022851296
2.536913e-12
-0.00051282679
-0.00028468285
3.2358443e-12
-0.00048671618
-0.00033647243
3.7195676e-12
-0.00045303135
-0.00038152567
4.0241032e-12
-0.00041210721
-0.00041732718
4.1811212e-12
-0.00036476182
-0.00044136473
4.1290958e-12
-0.00031236599
-0.00045135959
3.8330094e-12
-0.00025686011
-0.0004455548
3.4550408e-12
-0.00020069326
-0.00042302998
2.8899876e-12
-0.00014667073
-0.00038398703
1.4389962e-12
-9.7717127e-05
-0.00032993503
2.1755321e-12
-5.6590163e-05
-0.00026370482
1.2326105e-11
-2.5605247e-05
-0.00018924504
4.2347815e-12