/*--------------------------------*- C++ -*----------------------------------*\
  =========                 |
  \\      /  F ield         | OpenFOAM: The Open Source CFD Toolbox
   \\    /   O peration     | Website:  https://openfoam.org
    \\  /    A nd           | Version:  7
     \\/     M anipulation  |
\*---------------------------------------------------------------------------*/
FoamFile
{
    version     2.0;
    format      ascii;
    class       volVectorField;
    location    "24";
    object      U;
}
// * * * * * * * * * * * * * * * * * * * * * * * * * * * * * * * * * * * * * //

dimensions      [0 1 -1 0 0 0 0];

internalField   nonuniform List<vector> 
16000
(
(6.599646e-05 -6.7379622e-05 -4.3385502e-07)
(0.00016268311 -5.638115e-05 5.6635386e-06)
(0.00014189027 4.5244092e-07 1.9162906e-05)
(-5.0633289e-05 6.1886096e-05 3.6585256e-05)
(-0.00040997923 0.00011562893 5.4693636e-05)
(-0.00090902726 0.00015774244 7.1521873e-05)
(-0.0015177078 0.00018850328 8.5733887e-05)
(-0.0022068779 0.0002096075 9.6514484e-05)
(-0.0029505889 0.00022287549 0.0001034033)
(-0.0037264476 0.00022981026 0.00010615344)
(-0.0045150281 0.00023147639 0.00010463768)
(-0.0052989853 0.00022850293 9.8793017e-05)
(-0.00606216 0.00022114589 8.8594771e-05)
(-0.0067888265 0.00020938131 7.405347e-05)
(-0.0074631747 0.00019301231 5.5227852e-05)
(-0.0080690727 0.00017177999 3.2248142e-05)
(-0.0085901223 0.00014547176 5.3442656e-06)
(-0.0090099996 0.00011402203 -2.512586e-05)
(-0.0093130498 7.7600832e-05 -5.8652337e-05)
(-0.0094850949 3.6686159e-05 -9.4557478e-05)
(-0.0095143957 -7.8873265e-06 -0.00013199164)
(-0.0093926798 -5.4923348e-05 -0.00016994368)
(-0.0091161773 -0.00010284078 -0.00020726717)
(-0.0086865583 -0.00014974608 -0.00024272429)
(-0.0081116502 -0.00019351044 -0.00027504522)
(-0.0074058572 -0.00023188731 -0.00030300113)
(-0.0065901884 -0.0002626629 -0.00032548568)
(-0.005691831 -0.00028382649 -0.000341599)
(-0.0047432465 -0.00029374279 -0.0003507268)
(-0.0037808094 -0.00029130413 -0.00035260745)
(-0.0028430554 -0.00027604301 -0.00034738049)
(-0.0019686431 -0.00024819335 -0.00033561251)
(-0.0011941386 -0.0002087069 -0.00031829917)
(-0.00055167123 -0.00015926511 -0.00029684583)
(-6.6521843e-05 -0.00010239766 -0.00027302224)
(0.00024490614 -4.1739468e-05 -0.00024888557)
(0.0003789412 1.7851791e-05 -0.00022681661)
(0.00034980226 6.704937e-05 -0.00020925053)
(0.00020620878 8.9819949e-05 -0.00019886)
(5.7474937e-05 5.7394453e-05 -0.0001844124)
(5.7976059e-05 -0.00016709683 -6.6674654e-06)
(4.083548e-05 -4.0001845e-05 -4.1557163e-07)
(-0.00029500835 0.00024854236 1.1217775e-05)
(-0.0010110457 0.00056210987 2.5583669e-05)
(-0.0020992392 0.00084748732 4.0568489e-05)
(-0.0035140873 0.0010831132 5.4576466e-05)
(-0.0051946724 0.0012642936 6.6480358e-05)
(-0.0070766022 0.0013940594 7.5527875e-05)
(-0.0090981092 0.0014779521 8.1237177e-05)
(-0.011202251 0.0015215189 8.3308581e-05)
(-0.013336967 0.0015292033 8.155877e-05)
(-0.015454096 0.0015039681 7.5877804e-05)
(-0.017508054 0.0014473495 6.6207355e-05)
(-0.019454607 0.0013597699 5.2536663e-05)
(-0.021250036 0.0012409944 3.4911835e-05)
(-0.022850845 0.0010906527 1.3454027e-05)
(-0.024214088 0.00090877154 -1.1617792e-05)
(-0.025298289 0.00069627426 -3.9963652e-05)
(-0.026064908 0.00045541383 -7.1102904e-05)
(-0.026480247 0.00019010624 -0.00010440134)
(-0.026517664 -9.3865371e-05 -0.00013906817)
(-0.02615984 -0.00038877323 -0.00017417189)
(-0.025401031 -0.00068508382 -0.00020865669)
(-0.024249043 -0.00097174788 -0.00024139015)
(-0.022726636 -0.0012366816 -0.00027121656)
(-0.020872246 -0.0014674191 -0.00029702425)
(-0.01873982 -0.001651901 -0.00031782101)
(-0.016397639 -0.0017793465 -0.00033281131)
(-0.013926067 -0.0018411357 -0.00034146841)
(-0.01141428 -0.0018316172 -0.00034359395)
(-0.0089560782 -0.0017487575 -0.00033935884)
(-0.0066449903 -0.0015945794 -0.00032932135)
(-0.0045688794 -0.0013753985 -0.00031442073)
(-0.0028042084 -0.0011019807 -0.00029594781)
(-0.0014100215 -0.0007899212 -0.00027549451)
(-0.00042166091 -0.00046056384 -0.0002548764)
(0.00015573347 -0.00014252948 -0.0002360085)
(0.00035671652 0.00012231479 -0.00022090656)
(0.00027529536 0.0002710947 -0.00021166911)
(9.0148314e-05 0.00020506855 -0.00019547632)
(1.9067797e-06 -0.00014898742 -2.0453891e-05)
(-0.00025607287 0.00029699051 -1.1837053e-05)
(-0.0010504739 0.0010235975 6.1159446e-08)
(-0.0023878395 0.0017975141 1.3041145e-05)
(-0.0042394427 0.0025098796 2.6077273e-05)
(-0.006545545 0.003110034 3.8028638e-05)
(-0.0092250877 0.003580902 4.8068261e-05)
(-0.012189942 0.0039234085 5.5635537e-05)
(-0.015352909 0.0041461595 6.0348837e-05)
(-0.018630954 0.0042595649 6.1951451e-05)
(-0.021945955 0.0042727896 6.0270424e-05)
(-0.025224112 0.0041924512 5.5187954e-05)
(-0.028394758 0.0040224471 4.6627737e-05)
(-0.031389206 0.0037645027 3.455467e-05)
(-0.034140018 0.0034191506 1.8984903e-05)
(-0.036580925 0.0029869221 2.9709844e-09)
(-0.038647522 0.002469592 -2.2217315e-05)
(-0.040278708 0.0018713506 -4.7391557e-05)
(-0.041418815 0.0011998059 -7.5106281e-05)
(-0.042020263 0.00046673271 -0.00010480659)
(-0.04204653 -0.00031149383 -0.00013579453)
(-0.04147524 -0.001113803 -0.00016723486)
(-0.040301096 -0.0019148637 -0.00019818044)
(-0.038538351 -0.0026858427 -0.00022760826)
(-0.03622257 -0.0033956505 -0.00025447031)
(-0.033411422 -0.004012575 -0.00027775607)
(-0.030184289 -0.0045062179 -0.00029656263)
(-0.026640522 -0.0048496131 -0.00031016689)
(-0.022896276 -0.0050213697 -0.00031809298)
(-0.019079939 -0.0050076659 -0.00032016749)
(-0.01532628 -0.004803922 -0.00031655567)
(-0.01176955 -0.0044160322 -0.00030777364)
(-0.0085358262 -0.0038611373 -0.00029467475)
(-0.0057348648 -0.0031681047 -0.00027841172)
(-0.0034516798 -0.0023781345 -0.00026037845)
(-0.0017379694 -0.001546198 -0.00024213147)
(-0.00060370669 -0.00074416846 -0.00022528239)
(-8.073548e-06 -6.6329059e-05 -0.00021142411)
(0.00015540255 0.00036040559 -0.00020224339)
(7.3564095e-05 0.00035436117 -0.00018532426)
(-6.4689449e-05 5.0413321e-05 -3.8705696e-05)
(-0.00060839301 0.0010457361 -2.6168867e-05)
(-0.0019305492 0.0023817049 -1.2187681e-05)
(-0.0039464384 0.0037564814 1.1050065e-06)
(-0.0065889987 0.0050152719 1.3693168e-05)
(-0.0097791634 0.0060800178 2.4817389e-05)
(-0.013417067 0.0069204739 3.3940397e-05)
(-0.017395445 0.0075340636 4.0726908e-05)
(-0.021607626 0.007931345 4.4941014e-05)
(-0.025950558 0.008126988 4.6410891e-05)
(-0.030325685 0.0081347163 4.5005744e-05)
(-0.034638607 0.0079649515 4.0619233e-05)
(-0.038798149 0.0076243281 3.3164273e-05)
(-0.042715446 0.0071164659 2.2578577e-05)
(-0.046303492 0.0064435166 8.8384851e-06)
(-0.049477391 0.0056081126 -8.0214537e-06)
(-0.052155432 0.0046154234 -2.7885867e-05)
(-0.054260984 0.0034750938 -5.0535691e-05)
(-0.055725108 0.0022028815 -7.5627949e-05)
(-0.056489711 0.00082185583 -0.00010268147)
(-0.056511017 -0.00063695404 -0.00013107169)
(-0.055763129 -0.0021345725 -0.00016003353)
(-0.054241364 -0.0036247854 -0.00018868478)
(-0.05196503 -0.0050555861 -0.00021605831)
(-0.048979401 -0.0063713508 -0.00024115126)
(-0.045356578 -0.0075156656 -0.00026298645)
(-0.041194995 -0.0084346659 -0.00028068191)
(-0.036617369 -0.0090806877 -0.00029352296)
(-0.031766999 -0.0094159745 -0.00030102982)
(-0.026802394 -0.0094161619 -0.00030301303)
(-0.02189032 -0.0090732701 -0.00029960927)
(-0.01719751 -0.0083979988 -0.00029129147)
(-0.012881362 -0.0074212461 -0.00027885046)
(-0.0090800478 -0.0061949841 -0.00026334942)
(-0.0059024659 -0.0047929267 -0.00024605584)
(-0.0034184683 -0.0033118428 -0.00022835872)
(-0.0016495177 -0.0018745561 -0.00021168559)
(-0.00055982012 -0.00063470593 -0.00019743134)
(-5.0138156e-05 0.00021501318 -0.00018683125)
(3.8089285e-05 0.00041382802 -0.00016802229)
(-0.00013086707 0.00044555433 -5.8221833e-05)
(-0.00097095291 0.0022426612 -4.1158766e-05)
(-0.0028462098 0.0043591411 -2.4276464e-05)
(-0.0055647965 0.0064571575 -9.8442841e-06)
(-0.0090094023 0.0083534092 3.0741459e-06)
(-0.013075393 0.0099513777 1.4054096e-05)
(-0.017642179 0.011211669 2.2832574e-05)
(-0.022584547 0.012129501 2.930473e-05)
(-0.027779463 0.012717441 3.3393371e-05)
(-0.033107908 0.012994063 3.5025674e-05)
(-0.038455253 0.012977283 3.4124364e-05)
(-0.043710851 0.012681135 3.0601048e-05)
(-0.04876721 0.012115054 2.435885e-05)
(-0.053519293 0.011284919 1.5304245e-05)
(-0.057864335 0.010195202 3.3658666e-06)
(-0.061702408 0.0088516941 -1.1481797e-05)
(-0.064937826 0.007264404 -2.9192081e-05)
(-0.067481378 0.0054502673 -4.9619684e-05)
(-0.06925328 0.0034354238 -7.2496789e-05)
(-0.070186653 0.0012568473 -9.7414752e-05)
(-0.070231313 -0.0010368296 -0.00012381444)
(-0.069357619 -0.003385436 -0.00015098764)
(-0.067560084 -0.0057183422 -0.00017809358)
(-0.064860441 -0.0079566239 -0.00020419046)
(-0.061309867 -0.010016235 -0.00022828331)
(-0.056990062 -0.011812116 -0.00024938602)
(-0.052012889 -0.013263055 -0.0002665931)
(-0.04651834 -0.014297048 -0.00027915508)
(-0.04067067 -0.014856791 -0.00028654949)
(-0.034652614 -0.014904912 -0.00028853939)
(-0.028657766 -0.014428547 -0.00028521112)
(-0.022881299 -0.013442921 -0.00027698516)
(-0.017509414 -0.011993776 -0.00026459615)
(-0.012708034 -0.010158658 -0.00024904223)
(-0.0086114634 -0.0080474527 -0.00023150722)
(-0.0053117402 -0.0058029504 -0.00021327027)
(-0.0028484947 -0.0036024997 -0.00019564441)
(-0.0012000288 -0.001660568 -0.00017989611)
(-0.00028882366 -0.00023378544 -0.00016675134)
(-2.4788041e-06 0.00035046378 -0.00014551747)
(-0.00019286472 0.0010312957 -7.670189e-05)
(-0.0013239824 0.0038924967 -5.4800217e-05)
(-0.0037518419 0.0069679394 -3.4595531e-05)
(-0.0071732657 0.0099107404 -1.8502164e-05)
(-0.011414746 0.012527304 -4.7065929e-06)
(-0.016341389 0.014714398 6.6560492e-06)
(-0.021809487 0.016430387 1.5572837e-05)
(-0.027675705 0.017671898 2.2158367e-05)
(-0.033802183 0.018455125 2.6491063e-05)
(-0.040056592 0.018803091 2.8597619e-05)
(-0.04631154 0.018737959 2.8455282e-05)
(-0.052443723 0.018277293 2.5993132e-05)
(-0.05833298 0.017433328 2.1101644e-05)
(-0.063861652 0.016214397 1.3650674e-05)
(-0.068914553 0.014627739 3.5136971e-06)
(-0.07337974 0.01268304 -9.4034956e-06)
(-0.077150134 0.01039616 -2.5131579e-05)
(-0.080125962 0.0077926065 -4.3606224e-05)
(-0.082217895 0.0049104332 -6.4639039e-05)
(-0.08335072 0.0018022886 -8.7893966e-05)
(-0.083467331 -0.0014635806 -0.00011287237)
(-0.082532787 -0.0048035276 -0.00013891049)
(-0.080538202 -0.0081199718 -0.00016519101)
(-0.077504163 -0.01130424 -0.00019077281)
(-0.073483369 -0.014240724 -0.00021463771)
(-0.068562169 -0.01681228 -0.0002357539)
(-0.062860675 -0.018906667 -0.00025315166)
(-0.056531115 -0.020423737 -0.00026600469)
(-0.049754182 -0.021282917 -0.00027370822)
(-0.042733216 -0.021430475 -0.00027594396)
(-0.035686205 -0.020846003 -0.00027272296)
(-0.028835782 -0.019547588 -0.00026439934)
(-0.022397596 -0.017595334 -0.00025165129)
(-0.016567691 -0.015093116 -0.00023542872)
(-0.011509843 -0.012188802 -0.00021686841)
(-0.0073438951 -0.0090736304 -0.00019719591)
(-0.0041345223 -0.005981669 -0.00017768373)
(-0.0018815822 -0.0031890593 -0.00015956592)
(-0.00053619102 -0.0010143386 -0.00014317174)
(-4.1248669e-05 0.00015894437 -0.00011907845)
(-0.00025011566 0.0017985575 -9.2188411e-05)
(-0.0016597641 0.0059840945 -6.5300564e-05)
(-0.00462443 0.010198538 -4.1614296e-05)
(-0.0087321181 0.014106915 -2.3559565e-05)
(-0.013751521 0.017522209 -8.5213143e-06)
(-0.019514957 0.020346974 3.6175086e-06)
(-0.025853978 0.022545768 1.3068714e-05)
(-0.032606796 0.024121838 2.0148391e-05)
(-0.039621621 0.025097941 2.5078771e-05)
(-0.046754703 0.025503011 2.797811e-05)
(-0.053868446 0.025364066 2.8871996e-05)
(-0.06082985 0.024702383 2.770116e-05)
(-0.067509202 0.023533031 2.4337074e-05)
(-0.073779291 0.021866849 1.8605733e-05)
(-0.07951537 0.019714011 1.0317373e-05)
(-0.084595968 0.017088398 -6.9950094e-07)
(-0.088904575 0.014012166 -1.456141e-05)
(-0.09233214 0.010519969 -3.1292626e-05)
(-0.094780254 0.0066624699 -5.0789945e-05)
(-0.096164899 0.0025088218 -7.2792645e-05)
(-0.096420559 -0.0018521046 -9.686123e-05)
(-0.095504482 -0.0063119278 -0.00012236953)
(-0.093400909 -0.010744496 -0.00014851105)
(-0.09012499 -0.015009301 -0.00017432631)
(-0.085726052 -0.018956522 -0.00019874839)
(-0.080289926 -0.022433664 -0.00022066789)
(-0.073939902 -0.025293586 -0.00023901314)
(-0.066835898 -0.027403612 -0.00025283913)
(-0.059171458 -0.028655217 -0.00026141562)
(-0.051168268 -0.028973655 -0.00026430309)
(-0.043068065 -0.028326759 -0.0002614052)
(-0.035122053 -0.026732137 -0.00025298927)
(-0.027578215 -0.02426214 -0.0002396708)
(-0.020667244 -0.021046237 -0.0002223616)
(-0.014588288 -0.017270846 -0.0002021809)
(-0.0094957995 -0.013177175 -0.00018035157)
(-0.005486483 -0.0090579014 -0.0001581774)
(-0.0025879411 -0.0052522211 -0.00013694614)
(-0.00078446019 -0.0021405513 -0.00011666219)
(-7.6871597e-05 -0.00016054702 -8.9454947e-05)
(-0.0003029547 0.0027365112 -0.0001030118)
(-0.001975487 0.008498044 -7.1043289e-05)
(-0.0054521067 0.014028478 -4.3895624e-05)
(-0.010217907 0.019021257 -2.3751073e-05)
(-0.015985077 0.023310935 -7.2558945e-06)
(-0.022552651 0.026818016 5.9329785e-06)
(-0.029726988 0.029522235 1.623011e-05)
(-0.03732796 0.031439573 2.413336e-05)
(-0.045190685 0.032603194 2.9992823e-05)
(-0.05316154 0.033050165 3.4005438e-05)
(-0.061094846 0.03281349 3.6234343e-05)
(-0.068850411 0.031918632 3.6622361e-05)
(-0.076291648 0.030383607 3.501293e-05)
(-0.083284458 0.028221701 3.1179158e-05)
(-0.089696985 0.025445882 2.4858744e-05)
(-0.095400296 0.022074057 1.5793333e-05)
(-0.10026996 0.018134485 3.7708642e-06)
(-0.10418841 0.013670751 -1.1331021e-05)
(-0.10704809 0.0087459142 -2.950304e-05)
(-0.1087551 0.0034454695 -5.0566958e-05)
(-0.10923343 -0.0021211062 -7.4146818e-05)
(-0.10842938 -0.0078204309 -9.9654517e-05)
(-0.10631625 -0.013497032 -0.00012628905)
(-0.10289889 -0.018977139 -0.00015306056)
(-0.098217909 -0.024074429 -0.00017883373)
(-0.092353088 -0.028597759 -0.00020239404)
(-0.085425611 -0.032360765 -0.00022253264)
(-0.077598516 -0.035192977 -0.00023814369)
(-0.069074822 -0.036951956 -0.00024832454)
(-0.060092825 -0.037535656 -0.0002524666)
(-0.050918241 -0.036894065 -0.0002503233)
(-0.041833188 -0.035039028 -0.0002420436)
(-0.033122354 -0.03205122 -0.00022816488)
(-0.025057189 -0.028083532 -0.00020956407)
(-0.017879563 -0.023360606 -0.00018736573)
(-0.011786432 -0.018174945 -0.00016283429)
(-0.0069140534 -0.012880358 -0.00013737107)
(-0.0033238318 -0.0078822484 -0.00011240058)
(-0.0010368562 -0.0036261568 -8.7693025e-05)
(-0.00011093215 -0.00060702966 -5.7251045e-05)
(-0.00035169089 0.0038337962 -0.00010770853)
(-0.0022696707 0.011410283 -7.0554326e-05)
(-0.0062274369 0.018427172 -4.0076604e-05)
(-0.011614669 0.024619785 -1.7826305e-05)
(-0.018090193 0.029857353 2.3752087e-07)
(-0.025420848 0.034089644 1.4666751e-05)
(-0.033388489 0.037320461 2.6060874e-05)
(-0.04179539 0.039584984 3.5080682e-05)
(-0.050464631 0.040931174 4.2187181e-05)
(-0.059234197 0.041406971 4.7641168e-05)
(-0.067952227 0.041052924 5.1530342e-05)
(-0.076473541 0.039899419 5.378811e-05)
(-0.084657053 0.037967613 5.4219298e-05)
(-0.092364129 0.035273069 5.2533855e-05)
(-0.099457971 0.031831118 4.8386437e-05)
(-0.10580398 0.027663045 4.1420718e-05)
(-0.11127101 0.022802361 3.131724e-05)
(-0.11573354 0.017300565 1.7843027e-05)
(-0.11907447 0.011231964 9.005374e-07)
(-0.12118873 0.0046972192 -1.942708e-05)
(-0.12198741 -0.0021746389 -4.2838598e-05)
(-0.12140247 -0.0092259534 -6.8792726e-05)
(-0.11939184 -0.016272043 -9.6497191e-05)
(-0.11594487 -0.023105108 -0.00012492806)
(-0.11108765 -0.029500372 -0.00015286856)
(-0.10488788 -0.035224702 -0.00017897541)
(-0.097458836 -0.040047647 -0.00020186825)
(-0.088961607 -0.043754643 -0.00022023613)
(-0.079604877 -0.046161844 -0.00023295174)
(-0.069641552 -0.047131709 -0.00023918061)
(-0.05936158 -0.046588129 -0.00023847029)
(-0.049080733 -0.044529654 -0.00023080473)
(-0.039125595 -0.041039292 -0.00021661356)
(-0.029815625 -0.036289589 -0.00019673157)
(-0.021444046 -0.030542264 -0.00017230494)
(-0.014259441 -0.024142565 -0.00014467837)
(-0.0084460893 -0.017509151 -0.00011541196)
(-0.0041057463 -0.011119078 -8.6146706e-05)
(-0.0013000773 -0.0054896905 -5.6487822e-05)
(-0.0001446598 -0.0011817476 -2.2533867e-05)
(-0.00039638931 0.0050786412 -0.0001049594)
(-0.0025407867 0.014693387 -6.2481151e-05)
(-0.0069441654 0.023357818 -2.8875188e-05)
(-0.012909159 0.030860598 -4.5738186e-06)
(-0.02004552 0.037117096 1.5105736e-05)
(-0.02809012 0.042116621 3.0912792e-05)
(-0.036801907 0.045895479 4.3617518e-05)
(-0.045966898 0.048514498 5.4026727e-05)
(-0.055397478 0.050041039 6.2696253e-05)
(-0.06492479 0.050536986 6.9936067e-05)
(-0.074392594 0.050052287 7.5845159e-05)
(-0.083652763 0.048623193 8.033555e-05)
(-0.092561875 0.046274265 8.3162384e-05)
(-0.10097894 0.043023077 8.3961604e-05)
(-0.10876421 0.038886621 8.2293429e-05)
(-0.1157791 0.033888461 7.7690902e-05)
(-0.12188693 0.028065894 6.9712741e-05)
(-0.12695467 0.021476527 5.7998977e-05)
(-0.13085539 0.014203854 4.2327117e-05)
(-0.13347153 0.0063615149 2.2666117e-05)
(-0.13469904 -0.0019040058 -7.7640777e-07)
(-0.13445212 -0.01041252 -2.7525204e-05)
(-0.13266892 -0.018951195 -5.6808518e-05)
(-0.1293179 -0.027278181 -8.7574802e-05)
(-0.12440447 -0.035128783 -0.0001185214)
(-0.11797768 -0.042224611 -0.00014815825)
(-0.11013632 -0.048285862 -0.00017490044)
(-0.10103348 -0.053046573 -0.0001971843)
(-0.090878669 -0.056272414 -0.00021359796)
(-0.079936405 -0.057780013 -0.00022301296)
(-0.068520316 -0.057456402 -0.0002247006)
(-0.056982168 -0.055276662 -0.00021841538)
(-0.045695758 -0.051317664 -0.00020443067)
(-0.03503652 -0.045765886 -0.00018351558)
(-0.025358874 -0.038917889 -0.00015684353)
(-0.016973627 -0.031173209 -0.0001258726)
(-0.010123082 -0.023020426 -9.2380065e-05)
(-0.0049572849 -0.015016254 -5.8301137e-05)
(-0.0015839086 -0.0077601595 -2.3129565e-05)
(-0.00018000522 -0.0018920014 1.4736858e-05)
(-0.00043686967 0.0064585262 -9.3561933e-05)
(-0.0027868316 0.018316777 -4.5584954e-05)
(-0.0075958465 0.028778127 -9.1007957e-06)
(-0.014088543 0.037694653 1.7152913e-05)
(-0.021830658 0.045037909 3.8456506e-05)
(-0.030532063 0.050845937 5.5748604e-05)
(-0.039931052 0.055195332 6.9958399e-05)
(-0.049799181 0.058178745 8.2023906e-05)
(-0.059939745 0.059887546 9.2581487e-05)
(-0.070178669 0.060400778 0.00010197709)
(-0.080357116 0.059779838 0.0001103089)
(-0.09032595 0.058067944 0.00011745642)
(-0.099941474 0.055293379 0.00012311454)
(-0.1090624 0.051475395 0.00012683445)
(-0.11754803 0.046631717 0.00012807012)
(-0.12525746 0.040786702 0.00012623006)
(-0.13204977 0.033979409 0.0001207343)
(-0.13778515 0.026271045 0.00011107554)
(-0.14232678 0.017751373 9.688247e-05)
(-0.14554375 0.0085438456 7.7983118e-05)
(-0.14731496 -0.0011907695 5.4463576e-05)
(-0.14753387 -0.011252487 2.6701486e-05)
(-0.14611472 -0.021402548 -4.5730901e-06)
(-0.14299983 -0.031365973 -3.8299612e-05)
(-0.13816761 -0.040837388 -7.3096278e-05)
(-0.13164135 -0.04949027 -0.00010731694)
(-0.12349783 -0.056990085 -0.00013914332)
(-0.11387479 -0.063011443 -0.00016670946)
(-0.10297609 -0.067258964 -0.00018825047)
(-0.09107313 -0.0694909 -0.00020226156)
(-0.078501051 -0.069543826 -0.00020764886)
(-0.065648694 -0.067356017 -0.00020385142)
(-0.052941776 -0.062986636 -0.00019091458)
(-0.040819887 -0.056627769 -0.00016949609)
(-0.02970955 -0.048606956 -0.00014078512)
(-0.019996141 -0.039379253 -0.00010637708)
(-0.011992118 -0.029509408 -6.8323048e-05)
(-0.0059059981 -0.019644301 -2.8931375e-05)
(-0.0018995874 -0.010479277 1.2377305e-05)
(-0.00021911075 -0.0027504893 5.4717117e-05)
(-0.00047275719 0.0079597995 -7.2425344e-05)
(-0.0030052853 0.022246512 -1.8743964e-05)
(-0.0081754252 0.034640471 2.0332736e-05)
(-0.015139536 0.045066079 4.8413142e-05)
(-0.023424917 0.0535598 7.1328043e-05)
(-0.032717873 0.060216499 9.0198455e-05)
(-0.042738702 0.065160085 0.00010610255)
(-0.053246583 0.068520784 0.00012009661)
(-0.064037478 0.070418432 0.00013288537)
(-0.074933777 0.070952479 0.00014483985)
(-0.085775791 0.070197936 0.00015604755)
(-0.096415254 0.068206217 0.0001663463)
(-0.10671019 0.065009725 0.00017536168)
(-0.11652107 0.060629029 0.00018255035)
(-0.12570824 0.055081508 0.00018724839)
(-0.13413037 0.048390532 0.00018872517)
(-0.14164386 0.040594468 0.00018624323)
(-0.14810325 0.031755014 0.000179124)
(-0.15336242 0.02196455 0.00016681789)
(-0.15727688 0.011352298 0.0001489758)
(-0.15970725 8.9114232e-05 0.0001255184)
(-0.16052415 -0.011609279 9.670678e-05)
(-0.15961454 -0.02348147 6.3169969e-05)
(-0.1568897 -0.035221502 2.5950164e-05)
(-0.15229489 -0.046483683 -1.3510938e-05)
(-0.14582019 -0.056891311 -5.3413977e-05)
(-0.13751189 -0.06605013 -9.1686994e-05)
(-0.12748349 -0.073567008 -0.00012611433)
(-0.11592464 -0.079073829 -0.00015450325)
(-0.10310644 -0.082255806 -0.00017487479)
(-0.089380866 -0.082882413 -0.00018565811)
(-0.07517274 -0.080838055 -0.00018586327)
(-0.060962919 -0.076148666 -0.0001752063)
(-0.04726289 -0.069000069 -0.00015415907)
(-0.034582953 -0.059744366 -0.00012389089)
(-0.023397309 -0.048892311 -8.6143263e-05)
(-0.014103391 -0.037091764 -4.3294281e-05)
(-0.0069814031 -0.025092547 1.8910721e-06)
(-0.0022589955 -0.013702917 5.0038675e-05)
(-0.00026414472 -0.0037760355 9.7597087e-05)
(-0.00050354762 0.0095673768 -4.0579963e-05)
(-0.0031932543 0.026445007 1.9034191e-05)
(-0.0086753473 0.040891819 6.0389725e-05)
(-0.01604839 0.052912226 9.0155095e-05)
(-0.024807205 0.062614996 0.00011465883)
(-0.0346182 0.070158758 0.00013519723)
(-0.045186513 0.075720913 0.00015298828)
(-0.056261159 0.079474501 0.00016919518)
(-0.067632565 0.081572041 0.00018458131)
(-0.079121247 0.082136596 0.00019953458)
(-0.09056835 0.08125904 0.00021412485)
(-0.10182828 0.079000326 0.00022814198)
(-0.11276274 0.075397485 0.00024113574)
(-0.12323603 0.07047209 0.00025246043)
(-0.13311169 0.064240054 0.00026132382)
(-0.14225005 0.056721826 0.00026684162)
(-0.15050685 0.047952331 0.00026809896)
(-0.15773271 0.037990227 0.00026421927)
(-0.16377351 0.026926271 0.00025444036)
(-0.16847201 0.014890647 0.00023819483)
(-0.17167056 0.0020591466 0.0002151924)
(-0.17321585 -0.011342074 0.00018550935)
(-0.17296519 -0.02503352 0.00014963406)
(-0.17079499 -0.038681939 0.00010853753)
(-0.16661175 -0.051903251 6.3682163e-05)
(-0.16036486 -0.064269957 1.7000765e-05)
(-0.15206096 -0.075324145 -2.917452e-05)
(-0.14177883 -0.084597039 -7.2238854e-05)
(-0.12968296 -0.091635555 -0.00010949554)
(-0.11603389 -0.096035459 -0.00013838054)
(-0.10119235 -0.097479414 -0.00015670924)
(-0.085614756 -0.095776645 -0.00016291493)
(-0.069837779 -0.090899419 -0.00015624452)
(-0.054451205 -0.083010573 -0.00013687141)
(-0.040061024 -0.072476451 -0.00010587641)
(-0.027246382 -0.059861479 -6.5133009e-05)
(-0.016507644 -0.045903446 -1.7392076e-05)
(-0.0082137398 -0.031469763 3.4035171e-05)
(-0.0026743083 -0.017501796 8.9800883e-05)
(-0.00031729378 -0.004993847 0.0001435202)
(-0.00052867726 0.01126457 2.8043884e-06)
(-0.0033477174 0.030870892 6.8593986e-05)
(-0.0090879955 0.047473728 0.00011189173)
(-0.016801482 0.061163732 0.00014319051)
(-0.02595673 0.072127917 0.0001692566)
(-0.036203963 0.080594382 0.00019155337)
(-0.047236016 0.086799305 0.00021142984)
(-0.058793904 0.090963198 0.00023014636)
(-0.070664256 0.093275198 0.00024851769)
(-0.082667264 0.093885115 0.00026694365)
(-0.094646485 0.092901995 0.00028547293)
(-0.10646071 0.090397825 0.00030384469)
(-0.11797721 0.086414927 0.00032152977)
(-0.12906625 0.080975708 0.00033777536)
(-0.1395968 0.07409358 0.00035165282)
(-0.14943331 0.065784146 0.00036211115)
(-0.15843331 0.056076048 0.00036803824)
(-0.16644596 0.045021153 0.00036833146)
(-0.17331148 0.032703963 0.00036197818)
(-0.17886178 0.019250223 0.00034814514)
(-0.18292243 0.0048346556 0.00032627458)
(-0.18531664 -0.010312372 0.00029618604)
(-0.18587126 -0.025899537 0.00025816141)
(-0.18442547 -0.04157174 0.00021302938)
(-0.18084246 -0.05691046 0.00016221185)
(-0.17502401 -0.071438901 0.00010773238)
(-0.16692767 -0.084633487 5.2169025e-05)
(-0.1565857 -0.095943254 -1.460267e-06)
(-0.14412409 -0.10481828 -4.9885066e-05)
(-0.129779 -0.11074741 -8.9838339e-05)
(-0.11390758 -0.11330399 -0.00011836162)
(-0.096989019 -0.1121962 -0.00013312525)
(-0.079612543 -0.10731627 -0.00013271851)
(-0.062450057 -0.098780906 -0.00011685285)
(-0.046214508 -0.086954643 -8.6406249e-05)
(-0.031607627 -0.072449631 -4.333681e-05)
(-0.019254082 -0.056099057 9.2002316e-06)
(-0.0096331042 -0.038903794 6.7252532e-05)
(-0.0031578178 -0.021961587 0.00013147992)
(-0.00038078333 -0.0064355782 0.00019250833)
(-0.00054759573 0.013033079 5.8395167e-05)
(-0.0034658371 0.035479132 0.00013061052)
(-0.0094063422 0.054322605 0.00017549537)
(-0.017386296 0.069744824 0.00020816906)
(-0.026854283 0.082015356 0.00023576777)
(-0.037447944 0.091436167 0.00025991214)
(-0.048850507 0.098306531 0.00028207365)
(-0.060796998 0.1028985 0.0003036017)
(-0.073071796 0.10544145 0.00032535795)
(-0.085496156 0.106115 0.00034775266)
(-0.097917461 0.10504877 0.00037081384)
(-0.11020047 0.10232745 0.00039423122)
(-0.12221984 0.097999539 0.0004173978)
(-0.1338539 0.092088355 0.00043945279)
(-0.1449795 0.084604005 0.00045932672)
(-0.15546791 0.075555517 0.00047579179)
(-0.16518145 0.064962543 0.00048752085)
(-0.17397105 0.052866438 0.00049315768)
(-0.18167459 0.03934071 0.00049140026)
(-0.18811645 0.024500927 0.0004810976)
(-0.19310841 0.0085141295 0.00046135885)
(-0.19645258 -0.00839236 0.00043167243)
(-0.1979466 -0.02592308 0.00039202358)
(-0.19739198 -0.043708509 0.0003430078)
(-0.19460584 -0.061302101 0.00028591918)
(-0.18943667 -0.078182092 0.00022279979)
(-0.18178394 -0.093760152 0.00015642951)
(-0.17162093 -0.10739914 9.0237485e-05)
(-0.15901958 -0.11844207 2.8120513e-05)
(-0.14417435 -0.12625344 -2.583629e-05)
(-0.12742148 -0.13027269 -6.7723979e-05)
(-0.10924844 -0.13007653 -9.4225421e-05)
(-0.090288251 -0.12544404 -0.00010302714)
(-0.07129448 -0.11641448 -9.3149113e-05)
(-0.053096259 -0.10332643 -6.508908e-05)
(-0.036536309 -0.086827542 -2.0793481e-05)
(-0.022388362 -0.067848673 3.6171226e-05)
(-0.011268723 -0.047540267 0.00010111514)
(-0.0037218309 -0.027182636 0.0001746857)
(-0.00045691019 -0.00813936 0.00024438398)
(-0.00055984138 0.014853163 0.00012667266)
(-0.0035453184 0.040221508 0.00020556821)
(-0.0096247576 0.061370374 0.00025167152)
(-0.017792711 0.078574018 0.00028555488)
(-0.027483986 0.092187054 0.00031464916)
(-0.038326966 0.10258831 0.0003407208)
(-0.049997681 0.1101435 0.00036535569)
(-0.062226899 0.11517968 0.00038998597)
(-0.074798053 0.1179698 0.000415519)
(-0.087534617 0.11872629 0.00044237796)
(-0.10028902 0.11760184 0.00047057502)
(-0.1129334 0.11469574 0.00049975646)
(-0.12535153 0.11006389 0.00052924314)
(-0.13743187 0.10373092 0.0005580702)
(-0.14906168 0.095703206 0.00058502755)
(-0.16012201 0.085981853 0.000608705)
(-0.17048344 0.074575188 0.00062754665)
(-0.1800026 0.061510648 0.00063991834)
(-0.18851939 0.046846202 0.00064419147)
(-0.19585531 0.030681505 0.00063884507)
(-0.20181308 0.013168989 0.00062258641)
(-0.20617811 -0.0054751355 0.00059448862)
(-0.20872246 -0.024960226 0.00055413896)
(-0.209212 -0.044911781 0.00050178804)
(-0.20741755 -0.064864406 0.00043848681)
(-0.2031308 -0.084259145 0.00036618854)
(-0.19618549 -0.10244774 0.00028779177)
(-0.18648375 -0.11870684 0.00020709616)
(-0.17402662 -0.13226539 0.00012864546)
(-0.15894622 -0.14234787 5.7440157e-05)
(-0.14153543 -0.14823444 -1.4795794e-06)
(-0.12226876 -0.14933603 -4.3552792e-05)
(-0.10180699 -0.1452781 -6.5258194e-05)
(-0.080978481 -0.13598128 -6.4614805e-05)
(-0.060733722 -0.12172325 -4.1477971e-05)
(-0.042074184 -0.10316551 2.3851392e-06)
(-0.025950394 -0.081332952 6.3031821e-05)
(-0.013148198 -0.057540343 0.00013494486)
(-0.0043785828 -0.033279298 0.0002187369)
(-0.00054808167 -0.010149813 0.00029868349)
(-0.00056511991 0.016704027 0.00020790773)
(-0.0035848049 0.045047523 0.00029374285)
(-0.009739937 0.068545662 0.00034068868)
(-0.018014513 0.087565349 0.00037560778)
(-0.027835389 0.10254678 0.0004061445)
(-0.038824554 0.1139472 0.00043419837)
(-0.050652843 0.12220115 0.00046146253)
(-0.063048146 0.12769357 0.00048944832)
(-0.075793956 0.13074406 0.00051911121)
(-0.088716878 0.13160085 0.00055089432)
(-0.10167539 0.13044235 0.00058480363)
(-0.11455027 0.12738465 0.00062045297)
(-0.12723599 0.12249256 0.0006571019)
(-0.13963316 0.11579293 0.00069369064)
(-0.151642 0.10728846 0.00072887416)
(-0.16315647 0.096971567 0.00076105999)
(-0.17405922 0.084837489 0.00078845563)
(-0.18421707 0.070896936 0.00080913051)
(-0.19347721 0.05518832 0.00082109748)
(-0.20166414 0.037790021 0.00082241718)
(-0.20857785 0.018833002 0.00081132772)
(-0.21399357 -0.001486072 0.00078639935)
(-0.2176639 -0.022891359 0.00074671238)
(-0.21932406 -0.045014646 0.00069204448)
(-0.21870141 -0.067383689 0.00062306199)
(-0.21553043 -0.089413978 0.00054148547)
(-0.20957421 -0.11040694 0.00045020246)
(-0.20065309 -0.12955832 0.00035329039)
(-0.18868034 -0.14598122 0.00025591022)
(-0.17370284 -0.1587483 0.00016403622)
(-0.15594274 -0.16695642 8.4004419e-05)
(-0.13583306 -0.16981392 2.1892852e-05)
(-0.11403738 -0.16674514 -1.7209052e-05)
(-0.091443059 -0.15749955 -2.9920414e-05)
(-0.069120291 -0.14224512 -1.5084544e-05)
(-0.048244204 -0.12162216 2.5979015e-05)
(-0.029971717 -0.096736237 8.9054445e-05)
(-0.015296575 -0.06907734 0.00016772981)
(-0.0051401108 -0.040378862 0.00026256099)
(-0.00065685275 -0.012518033 0.00035455537)
(-0.00056338597 0.018564418 0.00030214515)
(-0.0035843041 0.049905787 0.00039519045)
(-0.0097519209 0.07577558 0.00044260365)
(-0.018051093 0.09663024 0.00047837212)
(-0.02790583 0.11299406 0.00051026865)
(-0.03893395 0.12540284 0.00054031257)
(-0.050802563 0.13436143 0.00057029928)
(-0.063237663 0.14031509 0.00060181949)
(-0.07602352 0.14363296 0.00063588396)
(-0.088990563 0.14460206 0.00067296783)
(-0.10200416 0.14342938 0.00071308577)
(-0.11495481 0.14025026 0.00075583538)
(-0.12774915 0.13514044 0.00080043108)
(-0.14030191 0.1281303 0.0008457328)
(-0.1525287 0.11921962 0.00089027201)
(-0.16433963 0.10839197 0.00093228056)
(-0.17563336 0.095628579 0.0009697287)