/*--------------------------------*- C++ -*----------------------------------*\
  =========                 |
  \\      /  F ield         | OpenFOAM: The Open Source CFD Toolbox
   \\    /   O peration     | Website:  https://openfoam.org
    \\  /    A nd           | Version:  7
     \\/     M anipulation  |
\*---------------------------------------------------------------------------*/
FoamFile
{
    version     2.0;
    format      ascii;
    class       volVectorField;
    location    "24";
    object      U_0;
}
// * * * * * * * * * * * * * * * * * * * * * * * * * * * * * * * * * * * * * //

dimensions      [0 1 -1 0 0 0 0];

internalField   nonuniform List<vector> 
16000
(
(6.5996396e-05 -6.737968e-05 -4.3385502e-07)
(0.00016268296 -5.6381218e-05 5.6635386e-06)
(0.00014189012 4.5240574e-07 1.9162906e-05)
(-5.063336e-05 6.1886053e-05 3.6585256e-05)
(-0.00040997924 0.00011562886 5.4693636e-05)
(-0.00090902728 0.00015774238 7.1521873e-05)
(-0.0015177078 0.00018850328 8.5733887e-05)
(-0.002206878 0.00020960753 9.6514484e-05)
(-0.0029505889 0.00022287549 0.0001034033)
(-0.0037264476 0.00022981019 0.00010615344)
(-0.004515028 0.00023147629 0.00010463768)
(-0.0052989853 0.00022850287 9.8793017e-05)
(-0.00606216 0.0002211459 8.8594771e-05)
(-0.0067888265 0.00020938137 7.405347e-05)
(-0.0074631746 0.00019301236 5.5227852e-05)
(-0.0080690725 0.00017177996 3.2248142e-05)
(-0.0085901221 0.00014547165 5.3442656e-06)
(-0.0090099994 0.00011402192 -2.512586e-05)
(-0.0093130498 7.7600838e-05 -5.8652337e-05)
(-0.009485095 3.6686318e-05 -9.4557478e-05)
(-0.0095143956 -7.8871193e-06 -0.00013199164)
(-0.0093926796 -5.492328e-05 -0.00016994368)
(-0.0091161769 -0.00010284096 -0.00020726717)
(-0.008686558 -0.00014974639 -0.00024272429)
(-0.0081116502 -0.00019351057 -0.00027504522)
(-0.0074058576 -0.00023188702 -0.00030300113)
(-0.0065901888 -0.0002626623 -0.00032548568)
(-0.005691831 -0.0002838261 -0.000341599)
(-0.0047432459 -0.00029374309 -0.0003507268)
(-0.0037808086 -0.000291305 -0.00035260745)
(-0.0028430553 -0.0002760436 -0.00034738049)
(-0.0019686441 -0.00024819281 -0.00033561251)
(-0.00119414 -0.00020870541 -0.00031829917)
(-0.00055167155 -0.00015926414 -0.00029684583)
(-6.6520329e-05 -0.00010239863 -0.00027302224)
(0.00024490816 -4.1741877e-05 -0.00024888557)
(0.00037894113 1.7850575e-05 -0.00022681661)
(0.00034979908 6.7051584e-05 -0.00020925053)
(0.00020620435 8.9824276e-05 -0.00019886)
(5.7472949e-05 5.7396995e-05 -0.0001844124)
(5.7975984e-05 -0.00016709697 -6.6674654e-06)
(4.0835287e-05 -4.0002024e-05 -4.1557163e-07)
(-0.00029500859 0.00024854228 1.1217775e-05)
(-0.0010110458 0.00056210981 2.5583669e-05)
(-0.0020992393 0.00084748719 4.0568489e-05)
(-0.0035140873 0.001083113 5.4576466e-05)
(-0.0051946725 0.0012642935 6.6480358e-05)
(-0.0070766023 0.0013940594 7.5527875e-05)
(-0.0090981093 0.001477952 8.1237177e-05)
(-0.011202251 0.0015215188 8.3308581e-05)
(-0.013336966 0.0015292031 8.155877e-05)
(-0.015454096 0.0015039678 7.5877804e-05)
(-0.017508054 0.0014473493 6.6207355e-05)
(-0.019454607 0.00135977 5.2536663e-05)
(-0.021250035 0.0012409946 3.4911835e-05)
(-0.022850845 0.0010906528 1.3454027e-05)
(-0.024214088 0.00090877142 -1.1617792e-05)
(-0.025298289 0.00069627402 -3.9963652e-05)
(-0.026064908 0.00045541368 -7.1102904e-05)
(-0.026480247 0.00019010637 -0.00010440134)
(-0.026517664 -9.3864947e-05 -0.00013906817)
(-0.02615984 -0.00038877281 -0.00017417189)
(-0.025401031 -0.00068508379 -0.00020865669)
(-0.024249043 -0.00097174835 -0.00024139015)
(-0.022726636 -0.0012366822 -0.00027121656)
(-0.020872246 -0.0014674191 -0.00029702425)
(-0.018739821 -0.0016519001 -0.00031782101)
(-0.01639764 -0.0017793452 -0.00033281131)
(-0.013926068 -0.0018411352 -0.00034146841)
(-0.01141428 -0.0018316183 -0.00034359395)
(-0.0089560767 -0.0017487594 -0.00033935884)
(-0.0066449898 -0.0015945799 -0.00032932135)
(-0.0045688812 -0.0013753964 -0.00031442073)
(-0.0028042113 -0.0011019776 -0.00029594781)
(-0.0014100227 -0.0007899206 -0.00027549451)
(-0.0004216582 -0.00046056757 -0.0002548764)
(0.00015573795 -0.0001425346 -0.0002360085)
(0.00035671748 0.00012231392 -0.00022090656)
(0.00027529067 0.00027109934 -0.00021166911)
(9.0144833e-05 0.00020507285 -0.00019547632)
(1.9067507e-06 -0.00014898757 -2.0453891e-05)
(-0.00025607294 0.00029699025 -1.1837053e-05)
(-0.001050474 0.0010235973 6.1159446e-08)
(-0.0023878397 0.001797514 1.3041145e-05)
(-0.0042394428 0.0025098795 2.6077273e-05)
(-0.006545545 0.0031100337 3.8028638e-05)
(-0.0092250877 0.0035809018 4.8068261e-05)
(-0.012189942 0.0039234082 5.5635537e-05)
(-0.015352909 0.0041461594 6.0348837e-05)
(-0.018630954 0.0042595648 6.1951451e-05)
(-0.021945955 0.0042727894 6.0270424e-05)
(-0.025224111 0.004192451 5.5187954e-05)
(-0.028394757 0.0040224468 4.6627737e-05)
(-0.031389206 0.0037645025 3.455467e-05)
(-0.034140018 0.0034191506 1.8984903e-05)
(-0.036580925 0.0029869223 2.9709844e-09)
(-0.038647522 0.0024695922 -2.2217315e-05)
(-0.040278708 0.0018713505 -4.7391557e-05)
(-0.041418814 0.0011998057 -7.5106281e-05)
(-0.042020263 0.00046673249 -0.00010480659)
(-0.04204653 -0.00031149375 -0.00013579453)
(-0.04147524 -0.0011138025 -0.00016723486)
(-0.040301096 -0.001914863 -0.00019818044)
(-0.038538351 -0.0026858424 -0.00022760826)
(-0.036222569 -0.0033956509 -0.00025447031)
(-0.033411421 -0.0040125758 -0.00027775607)
(-0.030184288 -0.0045062181 -0.00029656263)
(-0.026640522 -0.0048496121 -0.00031016689)
(-0.022896278 -0.0050213679 -0.00031809298)
(-0.01907994 -0.0050076647 -0.00032016749)
(-0.015326279 -0.0048039229 -0.00031655567)
(-0.011769548 -0.0044160345 -0.00030777364)
(-0.0085358249 -0.0038611386 -0.00029467475)
(-0.0057348667 -0.0031681027 -0.00027841172)
(-0.0034516844 -0.0023781305 -0.00026037845)
(-0.0017379722 -0.0015461965 -0.00024213147)
(-0.00060370405 -0.00074417213 -0.00022528239)
(-8.0685074e-06 -6.6334789e-05 -0.00021142411)
(0.00015540334 0.00036040361 -0.00020224339)
(7.3562766e-05 0.0003543629 -0.00018532426)
(-6.4689471e-05 5.0413209e-05 -3.8705696e-05)
(-0.00060839301 0.0010457358 -2.6168867e-05)
(-0.0019305492 0.0023817046 -1.2187681e-05)
(-0.0039464384 0.0037564811 1.1050065e-06)
(-0.0065889988 0.0050152717 1.3693168e-05)
(-0.0097791635 0.0060800176 2.4817389e-05)
(-0.013417067 0.0069204736 3.3940397e-05)
(-0.017395444 0.0075340631 4.0726908e-05)
(-0.021607626 0.0079313446 4.4941014e-05)
(-0.025950558 0.0081269877 4.6410891e-05)
(-0.030325685 0.0081347161 4.5005744e-05)
(-0.034638607 0.0079649513 4.0619233e-05)
(-0.038798148 0.0076243278 3.3164273e-05)
(-0.042715445 0.0071164655 2.2578577e-05)
(-0.046303491 0.0064435163 8.8384851e-06)
(-0.04947739 0.0056081124 -8.0214537e-06)
(-0.052155431 0.0046154235 -2.7885867e-05)
(-0.054260984 0.003475094 -5.0535691e-05)
(-0.055725107 0.0022028816 -7.5627949e-05)
(-0.05648971 0.00082185564 -0.00010268147)
(-0.056511016 -0.00063695439 -0.00013107169)
(-0.055763128 -0.0021345726 -0.00016003353)
(-0.054241364 -0.0036247849 -0.00018868478)
(-0.051965031 -0.0050555851 -0.00021605831)
(-0.048979401 -0.00637135 -0.00024115126)
(-0.045356578 -0.0075156656 -0.00026298645)
(-0.041194994 -0.0084346668 -0.00028068191)
(-0.036617367 -0.0090806884 -0.00029352296)
(-0.031766999 -0.0094159738 -0.00030102982)
(-0.026802396 -0.0094161596 -0.00030301303)
(-0.021890322 -0.009073268 -0.00029960927)
(-0.01719751 -0.0083979991 -0.00029129147)
(-0.01288136 -0.0074212491 -0.00027885046)
(-0.0090800456 -0.0061949867 -0.00026334942)
(-0.0059024675 -0.0047929254 -0.00024605584)
(-0.0034184733 -0.0033118382 -0.00022835872)
(-0.0016495204 -0.0018745531 -0.00021168559)
(-0.00055981745 -0.00063470775 -0.00019743134)
(-5.0134657e-05 0.00021500989 -0.00018683125)
(3.8090212e-05 0.00041382758 -0.00016802229)
(-0.00013086712 0.00044555426 -5.8221833e-05)
(-0.00097095295 0.0022426609 -4.1158766e-05)
(-0.0028462098 0.0043591406 -2.4276464e-05)
(-0.0055647964 0.006457157 -9.8442841e-06)
(-0.0090094022 0.0083534088 3.0741459e-06)
(-0.013075393 0.0099513773 1.4054096e-05)
(-0.017642179 0.011211668 2.2832574e-05)
(-0.022584546 0.012129501 2.930473e-05)
(-0.027779463 0.012717441 3.3393371e-05)
(-0.033107907 0.012994062 3.5025674e-05)
(-0.038455252 0.012977283 3.4124364e-05)
(-0.04371085 0.012681134 3.0601048e-05)
(-0.048767209 0.012115054 2.435885e-05)
(-0.053519292 0.011284919 1.5304245e-05)
(-0.057864334 0.010195201 3.3658666e-06)
(-0.061702407 0.0088516937 -1.1481797e-05)
(-0.064937825 0.0072644037 -2.9192081e-05)
(-0.067481377 0.0054502674 -4.9619684e-05)
(-0.069253279 0.0034354242 -7.2496789e-05)
(-0.070186652 0.0012568476 -9.7414752e-05)
(-0.070231312 -0.0010368297 -0.00012381444)
(-0.069357618 -0.0033854364 -0.00015098764)
(-0.067560083 -0.0057183425 -0.00017809358)
(-0.06486044 -0.0079566235 -0.00020419046)
(-0.061309867 -0.010016234 -0.00022828331)
(-0.056990062 -0.011812114 -0.00024938602)
(-0.052012888 -0.013263054 -0.0002665931)
(-0.046518338 -0.014297049 -0.00027915508)
(-0.040670668 -0.014856792 -0.00028654949)
(-0.034652614 -0.014904912 -0.00028853939)
(-0.028657768 -0.014428544 -0.00028521112)
(-0.022881302 -0.013442918 -0.00027698516)
(-0.017509415 -0.011993775 -0.00026459615)
(-0.012708031 -0.010158661 -0.00024904223)
(-0.0086114607 -0.0080474559 -0.00023150722)
(-0.0053117413 -0.0058029497 -0.00021327027)
(-0.0028484985 -0.0036024956 -0.00019564441)
(-0.0012000299 -0.0016605654 -0.00017989611)
(-0.00028882171 -0.00023378632 -0.00016675134)
(-2.4776324e-06 0.0003504628 -0.00014551747)
(-0.00019286477 0.0010312956 -7.670189e-05)
(-0.0013239825 0.0038924965 -5.4800217e-05)
(-0.0037518419 0.006967939 -3.4595531e-05)
(-0.0071732656 0.0099107397 -1.8502164e-05)
(-0.011414746 0.012527303 -4.7065929e-06)
(-0.016341388 0.014714397 6.6560492e-06)
(-0.021809487 0.016430386 1.5572837e-05)
(-0.027675705 0.017671897 2.2158367e-05)
(-0.033802182 0.018455124 2.6491063e-05)
(-0.040056591 0.01880309 2.8597619e-05)
(-0.046311539 0.018737958 2.8455282e-05)
(-0.052443722 0.018277292 2.5993132e-05)
(-0.058332979 0.017433328 2.1101644e-05)
(-0.063861651 0.016214396 1.3650674e-05)
(-0.068914552 0.014627738 3.5136971e-06)
(-0.073379739 0.01268304 -9.4034956e-06)
(-0.077150133 0.010396159 -2.5131579e-05)
(-0.08012596 0.0077926061 -4.3606224e-05)
(-0.082217893 0.0049104332 -6.4639039e-05)
(-0.083350719 0.001802289 -8.7893966e-05)
(-0.08346733 -0.0014635801 -0.00011287237)
(-0.082532786 -0.0048035275 -0.00013891049)
(-0.0805382 -0.0081199722 -0.00016519101)
(-0.077504161 -0.011304241 -0.00019077281)
(-0.073483368 -0.014240724 -0.00021463771)
(-0.068562169 -0.016812278 -0.0002357539)
(-0.062860676 -0.018906665 -0.00025315166)
(-0.056531115 -0.020423736 -0.00026600469)
(-0.04975418 -0.021282917 -0.00027370822)
(-0.042733214 -0.021430477 -0.00027594396)
(-0.035686204 -0.020846004 -0.00027272296)
(-0.028835783 -0.019547586 -0.00026439934)
(-0.0223976 -0.01759533 -0.00025165129)
(-0.016567692 -0.015093114 -0.00023542872)
(-0.01150984 -0.012188804 -0.00021686841)
(-0.0073438927 -0.009073633 -0.00019719591)
(-0.0041345231 -0.0059816683 -0.00017768373)
(-0.0018815843 -0.0031890566 -0.00015956592)
(-0.00053619142 -0.0010143377 -0.00014317174)
(-4.1248364e-05 0.00015894394 -0.00011907845)
(-0.00025011566 0.0017985573 -9.2188411e-05)
(-0.0016597641 0.0059840941 -6.5300564e-05)
(-0.00462443 0.010198538 -4.1614296e-05)
(-0.008732118 0.014106914 -2.3559565e-05)
(-0.013751521 0.017522208 -8.5213143e-06)
(-0.019514957 0.020346973 3.6175086e-06)
(-0.025853978 0.022545767 1.3068714e-05)
(-0.032606796 0.024121838 2.0148391e-05)
(-0.03962162 0.02509794 2.5078771e-05)
(-0.046754702 0.02550301 2.797811e-05)
(-0.053868445 0.025364065 2.8871996e-05)
(-0.060829848 0.024702383 2.770116e-05)
(-0.067509201 0.02353303 2.4337074e-05)
(-0.07377929 0.021866849 1.8605733e-05)
(-0.079515369 0.01971401 1.0317373e-05)
(-0.084595966 0.017088398 -6.9950094e-07)
(-0.088904574 0.014012166 -1.456141e-05)
(-0.092332138 0.010519969 -3.1292626e-05)
(-0.094780252 0.0066624694 -5.0789945e-05)
(-0.096164898 0.0025088216 -7.2792645e-05)
(-0.096420558 -0.0018521041 -9.686123e-05)
(-0.095504481 -0.0063119269 -0.00012236953)
(-0.093400908 -0.010744495 -0.00014851105)
(-0.090124988 -0.015009301 -0.00017432631)
(-0.085726049 -0.018956523 -0.00019874839)
(-0.080289925 -0.022433664 -0.00022066789)
(-0.073939902 -0.025293585 -0.00023901314)
(-0.066835899 -0.027403609 -0.00025283913)
(-0.059171459 -0.028655215 -0.00026141562)
(-0.051168267 -0.028973656 -0.00026430309)
(-0.043068062 -0.028326762 -0.0002614052)
(-0.035122051 -0.026732138 -0.00025298927)
(-0.027578216 -0.024262138 -0.0002396708)
(-0.020667247 -0.021046234 -0.0002223616)
(-0.014588289 -0.017270844 -0.0002021809)
(-0.0094957975 -0.013177177 -0.00018035157)
(-0.0054864813 -0.009057903 -0.0001581774)
(-0.0025879417 -0.0052522205 -0.00013694614)
(-0.00078446137 -0.0021405502 -0.00011666219)
(-7.6871981e-05 -0.00016054678 -8.9454947e-05)
(-0.00030295465 0.0027365109 -0.0001030118)
(-0.0019754869 0.0084980434 -7.1043289e-05)
(-0.0054521066 0.014028478 -4.3895624e-05)
(-0.010217906 0.019021256 -2.3751073e-05)
(-0.015985076 0.023310934 -7.2558945e-06)
(-0.02255265 0.026818015 5.9329785e-06)
(-0.029726988 0.029522234 1.623011e-05)
(-0.03732796 0.031439572 2.413336e-05)
(-0.045190685 0.032603193 2.9992823e-05)
(-0.053161539 0.033050164 3.4005438e-05)
(-0.061094845 0.032813489 3.6234343e-05)
(-0.068850409 0.031918631 3.6622361e-05)
(-0.076291647 0.030383606 3.501293e-05)
(-0.083284457 0.0282217 3.1179158e-05)
(-0.089696983 0.025445881 2.4858744e-05)
(-0.095400294 0.022074057 1.5793333e-05)
(-0.10026995 0.018134484 3.7708642e-06)
(-0.10418841 0.013670751 -1.1331021e-05)
(-0.10704808 0.0087459137 -2.950304e-05)
(-0.1087551 0.0034454689 -5.0566958e-05)
(-0.10923343 -0.0021211065 -7.4146818e-05)
(-0.10842938 -0.0078204304 -9.9654517e-05)
(-0.10631625 -0.013497031 -0.00012628905)
(-0.10289889 -0.018977138 -0.00015306056)
(-0.098217908 -0.024074428 -0.00017883373)
(-0.092353086 -0.02859776 -0.00020239404)
(-0.085425609 -0.032360765 -0.00022253264)
(-0.077598516 -0.035192976 -0.00023814369)
(-0.069074823 -0.036951953 -0.00024832454)
(-0.060092826 -0.037535653 -0.0002524666)
(-0.05091824 -0.036894064 -0.0002503233)
(-0.041833185 -0.03503903 -0.0002420436)
(-0.033122352 -0.032051221 -0.00022816488)
(-0.02505719 -0.028083531 -0.00020956407)
(-0.017879565 -0.023360603 -0.00018736573)
(-0.011786433 -0.018174943 -0.00016283429)
(-0.0069140519 -0.012880359 -0.00013737107)
(-0.0033238309 -0.0078822493 -0.00011240058)
(-0.0010368566 -0.0036261565 -8.7693025e-05)
(-0.00011093252 -0.0006070293 -5.7251045e-05)
(-0.00035169087 0.003833796 -0.00010770853)
(-0.0022696706 0.011410282 -7.0554326e-05)
(-0.0062274367 0.018427171 -4.0076604e-05)
(-0.011614669 0.024619784 -1.7826305e-05)
(-0.018090193 0.029857352 2.3752087e-07)
(-0.025420848 0.034089643 1.4666751e-05)
(-0.033388489 0.03732046 2.6060874e-05)
(-0.041795389 0.039584983 3.5080682e-05)
(-0.05046463 0.040931173 4.2187181e-05)
(-0.059234196 0.04140697 4.7641168e-05)
(-0.067952226 0.041052923 5.1530342e-05)
(-0.07647354 0.039899419 5.378811e-05)
(-0.084657051 0.037967612 5.4219298e-05)
(-0.092364127 0.035273068 5.2533855e-05)
(-0.099457969 0.031831117 4.8386437e-05)
(-0.10580397 0.027663044 4.1420718e-05)
(-0.11127101 0.022802361 3.131724e-05)
(-0.11573354 0.017300565 1.7843027e-05)
(-0.11907447 0.011231964 9.005374e-07)
(-0.12118873 0.004697219 -1.942708e-05)
(-0.12198741 -0.0021746394 -4.2838598e-05)
(-0.12140247 -0.0092259537 -6.8792726e-05)
(-0.11939184 -0.016272043 -9.6497191e-05)
(-0.11594487 -0.023105106 -0.00012492806)
(-0.11108765 -0.02950037 -0.00015286856)
(-0.10488788 -0.035224701 -0.00017897541)
(-0.097458833 -0.040047647 -0.00020186825)
(-0.088961604 -0.043754643 -0.00022023613)
(-0.079604876 -0.046161843 -0.00023295175)
(-0.069641554 -0.047131706 -0.00023918061)
(-0.059361581 -0.046588126 -0.00023847029)
(-0.049080732 -0.044529653 -0.00023080473)
(-0.039125593 -0.041039293 -0.00021661356)
(-0.029815623 -0.036289591 -0.00019673157)
(-0.021444047 -0.030542263 -0.00017230494)
(-0.014259442 -0.024142563 -0.00014467837)
(-0.0084460893 -0.01750915 -0.00011541196)
(-0.0041057453 -0.011119078 -8.6146706e-05)
(-0.0013000768 -0.005489691 -5.6487822e-05)
(-0.0001446598 -0.0011817475 -2.2533867e-05)
(-0.00039638934 0.005078641 -0.0001049594)
(-0.0025407867 0.014693387 -6.2481151e-05)
(-0.0069441652 0.023357817 -2.8875188e-05)
(-0.012909158 0.030860596 -4.5738186e-06)
(-0.02004552 0.037117095 1.5105736e-05)
(-0.028090119 0.04211662 3.0912792e-05)
(-0.036801906 0.045895478 4.3617518e-05)
(-0.045966897 0.048514497 5.4026727e-05)
(-0.055397477 0.050041038 6.2696253e-05)
(-0.064924789 0.050536985 6.9936067e-05)
(-0.074392593 0.050052285 7.5845159e-05)
(-0.083652761 0.048623192 8.033555e-05)
(-0.092561874 0.046274264 8.3162384e-05)
(-0.10097893 0.043023076 8.3961604e-05)
(-0.10876421 0.03888662 8.2293429e-05)
(-0.11577909 0.03388846 7.7690902e-05)
(-0.12188693 0.028065893 6.9712741e-05)
(-0.12695467 0.021476527 5.7998977e-05)
(-0.13085538 0.014203854 4.2327117e-05)
(-0.13347153 0.0063615154 2.2666117e-05)
(-0.13469904 -0.0019040056 -7.7640777e-07)
(-0.13445212 -0.010412521 -2.7525203e-05)
(-0.13266892 -0.018951195 -5.6808518e-05)
(-0.1293179 -0.027278181 -8.7574802e-05)
(-0.12440447 -0.035128781 -0.0001185214)
(-0.11797768 -0.042224609 -0.00014815825)
(-0.11013632 -0.04828586 -0.00017490044)
(-0.10103348 -0.053046573 -0.0001971843)
(-0.090878667 -0.056272414 -0.00021359796)
(-0.079936404 -0.057780012 -0.00022301296)
(-0.068520317 -0.0574564 -0.0002247006)
(-0.056982169 -0.055276659 -0.00021841538)
(-0.045695758 -0.051317663 -0.00020443067)
(-0.035036518 -0.045765887 -0.00018351558)
(-0.025358873 -0.038917889 -0.00015684353)
(-0.016973628 -0.031173208 -0.0001258726)
(-0.010123083 -0.023020425 -9.2380065e-05)
(-0.0049572847 -0.015016253 -5.8301137e-05)
(-0.0015839081 -0.0077601598 -2.3129565e-05)
(-0.000180005 -0.0018920016 1.4736858e-05)
(-0.00043686971 0.006458526 -9.3561933e-05)
(-0.0027868316 0.018316777 -4.5584954e-05)
(-0.0075958464 0.028778126 -9.1007957e-06)
(-0.014088543 0.037694651 1.7152913e-05)
(-0.021830658 0.045037908 3.8456506e-05)
(-0.030532062 0.050845935 5.5748604e-05)
(-0.039931051 0.055195331 6.9958399e-05)
(-0.04979918 0.058178744 8.2023906e-05)
(-0.059939744 0.059887544 9.2581487e-05)
(-0.070178668 0.060400777 0.00010197709)
(-0.080357114 0.059779836 0.0001103089)
(-0.090325948 0.058067942 0.00011745642)
(-0.099941472 0.055293377 0.00012311454)
(-0.1090624 0.051475394 0.00012683445)
(-0.11754803 0.046631717 0.00012807012)
(-0.12525745 0.040786701 0.00012623006)
(-0.13204977 0.033979408 0.0001207343)
(-0.13778514 0.026271044 0.00011107554)
(-0.14232678 0.017751373 9.688247e-05)
(-0.14554375 0.0085438462 7.7983118e-05)
(-0.14731496 -0.0011907685 5.4463576e-05)
(-0.14753387 -0.011252487 2.6701486e-05)
(-0.14611472 -0.021402548 -4.5730901e-06)
(-0.14299982 -0.031365974 -3.8299612e-05)
(-0.13816761 -0.040837387 -7.3096278e-05)
(-0.13164135 -0.049490268 -0.00010731694)
(-0.12349783 -0.056990082 -0.00013914332)
(-0.11387479 -0.063011441 -0.00016670946)
(-0.10297609 -0.067258964 -0.00018825047)
(-0.091073128 -0.069490901 -0.00020226156)
(-0.07850105 -0.069543825 -0.00020764886)
(-0.065648695 -0.067356015 -0.00020385142)
(-0.052941777 -0.062986633 -0.00019091458)
(-0.040819886 -0.056627768 -0.00016949609)
(-0.029709548 -0.048606957 -0.00014078512)
(-0.01999614 -0.039379253 -0.00010637708)
(-0.011992119 -0.029509407 -6.8323048e-05)
(-0.0059059985 -0.0196443 -2.8931375e-05)
(-0.0018995874 -0.010479276 1.2377305e-05)
(-0.00021911063 -0.0027504895 5.4717117e-05)
(-0.00047275719 0.0079597992 -7.2425344e-05)
(-0.0030052853 0.022246511 -1.8743964e-05)
(-0.008175425 0.03464047 2.0332736e-05)
(-0.015139535 0.045066077 4.8413142e-05)
(-0.023424916 0.053559798 7.1328043e-05)
(-0.032717873 0.060216498 9.0198455e-05)
(-0.042738701 0.065160084 0.00010610255)
(-0.053246582 0.068520782 0.00012009661)
(-0.064037477 0.07041843 0.00013288537)
(-0.074933775 0.070952477 0.00014483985)
(-0.08577579 0.070197935 0.00015604755)
(-0.096415252 0.068206215 0.0001663463)
(-0.10671019 0.065009724 0.00017536168)
(-0.11652107 0.060629028 0.00018255035)
(-0.12570824 0.055081508 0.00018724839)
(-0.13413037 0.048390532 0.00018872517)
(-0.14164386 0.040594467 0.00018624323)
(-0.14810325 0.031755013 0.000179124)
(-0.15336242 0.02196455 0.00016681789)
(-0.15727688 0.011352298 0.0001489758)
(-0.15970725 8.9115062e-05 0.0001255184)
(-0.16052415 -0.011609278 9.670678e-05)
(-0.15961454 -0.023481469 6.3169969e-05)
(-0.1568897 -0.035221501 2.5950164e-05)
(-0.15229489 -0.046483683 -1.3510938e-05)
(-0.14582019 -0.056891311 -5.3413977e-05)
(-0.13751189 -0.066050129 -9.1686994e-05)
(-0.12748349 -0.073567006 -0.00012611433)
(-0.11592464 -0.079073827 -0.00015450325)
(-0.10310643 -0.082255805 -0.00017487479)
(-0.089380864 -0.082882413 -0.00018565811)
(-0.075172739 -0.080838054 -0.00018586327)
(-0.06096292 -0.076148663 -0.0001752063)
(-0.047262891 -0.069000066 -0.00015415907)
(-0.034582952 -0.059744364 -0.00012389089)
(-0.023397308 -0.048892311 -8.6143263e-05)
(-0.01410339 -0.037091763 -4.3294281e-05)
(-0.0069814034 -0.025092546 1.8910721e-06)
(-0.0022589958 -0.013702916 5.0038675e-05)
(-0.00026414479 -0.0037760354 9.7597087e-05)
(-0.00050354757 0.0095673765 -4.0579963e-05)
(-0.0031932542 0.026445006 1.9034191e-05)
(-0.008675347 0.040891818 6.0389725e-05)
(-0.016048389 0.052912224 9.0155095e-05)
(-0.024807205 0.062614995 0.00011465883)
(-0.034618199 0.070158756 0.00013519723)
(-0.045186512 0.075720912 0.00015298828)
(-0.056261157 0.079474499 0.00016919518)
(-0.067632564 0.081572039 0.00018458131)
(-0.079121246 0.082136595 0.00019953458)
(-0.090568348 0.081259039 0.00021412485)
(-0.10182828 0.079000325 0.00022814198)
(-0.11276273 0.075397483 0.00024113574)
(-0.12323603 0.070472089 0.00025246043)
(-0.13311169 0.064240053 0.00026132382)
(-0.14225005 0.056721826 0.00026684162)
(-0.15050685 0.047952331 0.00026809896)
(-0.1577327 0.037990227 0.00026421927)
(-0.16377351 0.026926271 0.00025444036)
(-0.168472 0.014890647 0.00023819483)
(-0.17167055 0.0020591468 0.0002151924)
(-0.17321585 -0.011342073 0.00018550935)
(-0.17296519 -0.025033518 0.00014963406)
(-0.17079499 -0.038681937 0.00010853753)
(-0.16661175 -0.051903249 6.3682163e-05)
(-0.16036485 -0.064269956 1.7000765e-05)
(-0.15206096 -0.075324145 -2.917452e-05)
(-0.14177883 -0.084597038 -7.2238854e-05)
(-0.12968296 -0.091635552 -0.00010949554)
(-0.11603389 -0.096035456 -0.00013838054)
(-0.10119235 -0.097479413 -0.00015670924)
(-0.085614754 -0.095776644 -0.00016291493)
(-0.069837778 -0.090899418 -0.00015624452)
(-0.054451205 -0.083010571 -0.00013687141)
(-0.040061024 -0.072476449 -0.00010587641)
(-0.027246381 -0.059861478 -6.5133009e-05)
(-0.016507643 -0.045903446 -1.7392076e-05)
(-0.0082137396 -0.031469763 3.4035171e-05)
(-0.0026743085 -0.017501795 8.9800883e-05)
(-0.0003172939 -0.0049938469 0.0001435202)
(-0.00052867721 0.01126457 2.8043884e-06)
(-0.0033477172 0.030870891 6.8593986e-05)
(-0.0090879952 0.047473727 0.00011189173)
(-0.016801481 0.06116373 0.00014319051)
(-0.025956729 0.072127915 0.0001692566)
(-0.036203963 0.08059438 0.00019155337)
(-0.047236015 0.086799303 0.00021142984)
(-0.058793903 0.090963195 0.00023014636)
(-0.070664255 0.093275196 0.00024851769)
(-0.082667263 0.093885112 0.00026694365)
(-0.094646483 0.092901993 0.00028547293)
(-0.10646071 0.090397824 0.00030384469)
(-0.11797721 0.086414926 0.00032152977)
(-0.12906625 0.080975706 0.00033777536)
(-0.1395968 0.074093578 0.00035165282)
(-0.14943331 0.065784145 0.00036211115)
(-0.15843331 0.056076047 0.00036803824)
(-0.16644596 0.045021153 0.00036833146)
(-0.17331148 0.032703964 0.00036197818)
(-0.17886177 0.019250223 0.00034814514)
(-0.18292243 0.0048346558 0.00032627458)
(-0.18531664 -0.010312372 0.00029618604)
(-0.18587126 -0.025899536 0.00025816141)
(-0.18442547 -0.041571738 0.00021302938)
(-0.18084246 -0.056910458 0.00016221185)
(-0.17502401 -0.071438899 0.00010773238)
(-0.16692766 -0.084633486 5.2169025e-05)
(-0.1565857 -0.095943253 -1.460267e-06)
(-0.14412408 -0.10481828 -4.9885066e-05)
(-0.129779 -0.11074741 -8.9838339e-05)
(-0.11390758 -0.11330399 -0.00011836162)
(-0.096989018 -0.11219619 -0.00013312525)
(-0.079612542 -0.10731627 -0.00013271851)
(-0.062450056 -0.098780905 -0.00011685285)
(-0.046214508 -0.086954641 -8.6406249e-05)
(-0.031607627 -0.072449629 -4.333681e-05)
(-0.019254082 -0.056099056 9.2002316e-06)
(-0.0096331038 -0.038903793 6.7252532e-05)
(-0.0031578177 -0.021961587 0.00013147992)
(-0.00038078337 -0.0064355782 0.00019250833)
(-0.0005475957 0.013033079 5.8395167e-05)
(-0.0034658369 0.035479131 0.00013061052)
(-0.0094063419 0.054322603 0.00017549537)
(-0.017386295 0.069744822 0.00020816906)
(-0.026854282 0.082015354 0.00023576777)
(-0.037447943 0.091436165 0.00025991214)
(-0.048850506 0.098306528 0.00028207365)
(-0.060796997 0.1028985 0.0003036017)
(-0.073071795 0.10544145 0.00032535795)
(-0.085496155 0.106115 0.00034775266)
(-0.09791746 0.10504877 0.00037081384)
(-0.11020047 0.10232745 0.00039423122)
(-0.12221984 0.097999537 0.0004173978)
(-0.1338539 0.092088353 0.00043945279)
(-0.1449795 0.084604004 0.00045932672)
(-0.15546791 0.075555516 0.00047579179)
(-0.16518145 0.064962542 0.00048752085)
(-0.17397105 0.052866438 0.00049315768)
(-0.18167459 0.039340711 0.00049140026)
(-0.18811644 0.024500927 0.0004810976)
(-0.19310841 0.0085141302 0.00046135885)
(-0.19645257 -0.0083923595 0.00043167243)
(-0.1979466 -0.025923079 0.00039202358)
(-0.19739198 -0.043708507 0.0003430078)
(-0.19460583 -0.061302099 0.00028591918)
(-0.18943667 -0.078182089 0.00022279979)
(-0.18178394 -0.093760149 0.00015642951)
(-0.17162093 -0.10739914 9.0237485e-05)
(-0.15901957 -0.11844207 2.8120513e-05)
(-0.14417435 -0.12625344 -2.583629e-05)
(-0.12742148 -0.13027268 -6.7723979e-05)
(-0.10924844 -0.13007653 -9.4225421e-05)
(-0.09028825 -0.12544404 -0.00010302714)
(-0.071294478 -0.11641448 -9.3149113e-05)
(-0.053096259 -0.10332642 -6.508908e-05)
(-0.036536309 -0.08682754 -2.0793481e-05)
(-0.022388362 -0.067848671 3.6171226e-05)
(-0.011268723 -0.047540267 0.00010111514)
(-0.0037218308 -0.027182636 0.0001746857)
(-0.00045691014 -0.00813936 0.00024438398)
(-0.00055984136 0.014853163 0.00012667266)
(-0.0035453183 0.040221507 0.00020556821)
(-0.0096247573 0.061370372 0.00025167152)
(-0.01779271 0.078574015 0.00028555488)
(-0.027483986 0.092187052 0.00031464916)
(-0.038326965 0.10258831 0.0003407208)
(-0.04999768 0.1101435 0.00036535569)
(-0.062226898 0.11517968 0.00038998597)
(-0.074798052 0.1179698 0.000415519)
(-0.087534615 0.11872628 0.00044237796)
(-0.10028902 0.11760183 0.00047057502)
(-0.11293339 0.11469574 0.00049975646)
(-0.12535152 0.11006389 0.00052924314)
(-0.13743187 0.10373092 0.0005580702)
(-0.14906168 0.095703204 0.00058502755)
(-0.16012201 0.085981852 0.000608705)
(-0.17048344 0.074575187 0.00062754665)
(-0.1800026 0.061510647 0.00063991834)
(-0.18851939 0.046846202 0.00064419147)
(-0.19585531 0.030681506 0.00063884507)
(-0.20181308 0.01316899 0.00062258641)
(-0.20617811 -0.0054751345 0.00059448862)
(-0.20872246 -0.024960225 0.00055413896)
(-0.209212 -0.04491178 0.00050178804)
(-0.20741755 -0.064864405 0.00043848681)
(-0.2031308 -0.084259143 0.00036618854)
(-0.19618549 -0.10244774 0.00028779177)
(-0.18648375 -0.11870683 0.00020709616)
(-0.17402662 -0.13226539 0.00012864546)
(-0.15894622 -0.14234787 5.7440157e-05)
(-0.14153543 -0.14823444 -1.4795794e-06)
(-0.12226875 -0.14933603 -4.3552792e-05)
(-0.10180699 -0.1452781 -6.5258194e-05)
(-0.08097848 -0.13598127 -6.4614805e-05)
(-0.060733721 -0.12172325 -4.1477971e-05)
(-0.042074183 -0.10316551 2.3851392e-06)
(-0.025950394 -0.08133295 6.3031821e-05)
(-0.013148198 -0.057540342 0.00013494486)
(-0.0043785828 -0.033279298 0.0002187369)
(-0.00054808163 -0.010149813 0.00029868349)
(-0.00056511988 0.016704027 0.00020790773)
(-0.0035848048 0.045047521 0.00029374285)
(-0.0097399367 0.06854566 0.00034068868)
(-0.018014513 0.087565347 0.00037560778)
(-0.027835389 0.10254678 0.0004061445)
(-0.038824553 0.1139472 0.00043419837)
(-0.050652842 0.12220115 0.00046146253)
(-0.063048145 0.12769356 0.00048944832)
(-0.075793955 0.13074406 0.00051911121)
(-0.088716877 0.13160084 0.00055089432)
(-0.10167539 0.13044235 0.00058480363)
(-0.11455027 0.12738464 0.00062045297)
(-0.12723598 0.12249256 0.0006571019)
(-0.13963316 0.11579293 0.00069369064)
(-0.151642 0.10728846 0.00072887416)
(-0.16315647 0.096971566 0.00076105999)
(-0.17405921 0.084837488 0.00078845563)
(-0.18421707 0.070896935 0.00080913051)
(-0.19347721 0.055188319 0.00082109748)
(-0.20166414 0.037790021 0.00082241718)
(-0.20857784 0.018833003 0.00081132772)
(-0.21399357 -0.0014860707 0.00078639935)
(-0.2176639 -0.022891358 0.00074671238)
(-0.21932406 -0.045014645 0.00069204448)
(-0.21870141 -0.067383687 0.00062306199)
(-0.21553043 -0.089413977 0.00054148547)
(-0.20957421 -0.11040694 0.00045020246)
(-0.20065309 -0.12955832 0.00035329039)
(-0.18868034 -0.14598122 0.00025591022)
(-0.17370283 -0.1587483 0.00016403622)
(-0.15594274 -0.16695642 8.4004419e-05)
(-0.13583306 -0.16981391 2.1892852e-05)
(-0.11403738 -0.16674514 -1.7209052e-05)
(-0.091443059 -0.15749954 -2.9920414e-05)
(-0.06912029 -0.14224512 -1.5084544e-05)
(-0.048244203 -0.12162216 2.5979015e-05)
(-0.029971716 -0.096736236 8.9054445e-05)
(-0.015296575 -0.069077339 0.00016772981)
(-0.0051401109 -0.040378861 0.00026256099)
(-0.00065685276 -0.012518033 0.00035455537)
(-0.00056338593 0.018564418 0.00030214515)
(-0.003584304 0.049905786 0.00039519045)
(-0.0097519206 0.075775578 0.00044260365)
(-0.018051093 0.096630238 0.00047837212)
(-0.02790583 0.11299406 0.00051026865)
(-0.03893395 0.12540283 0.00054031257)
(-0.050802562 0.13436143 0.00057029928)
(-0.063237662 0.14031508 0.00060181949)
(-0.076023519 0.14363296 0.00063588396)
(-0.088990562 0.14460205 0.00067296783)
(-0.10200416 0.14342938 0.00071308577)
(-0.11495481 0.14025025 0.00075583538)
(-0.12774915 0.13514043 0.00080043108)
(-0.1403019 0.1281303 0.0008457328)
(-0.1525287 0.11921961 0.00089027201)
(-0.16433962 0.10839197 0.00093228056)
(-0.17563336 0.095628578 0.0009697287)