/*--------------------------------*- C++ -*----------------------------------*\
  =========                 |
  \\      /  F ield         | OpenFOAM: The Open Source CFD Toolbox
   \\    /   O peration     | Website:  https://openfoam.org
    \\  /    A nd           | Version:  7
     \\/     M anipulation  |
\*---------------------------------------------------------------------------*/
FoamFile
{
    version     2.0;
    format      ascii;
    class       volScalarField;
    location    "32";
    object      p;
}
// * * * * * * * * * * * * * * * * * * * * * * * * * * * * * * * * * * * * * //

dimensions      [0 2 -2 0 0 0 0];

internalField   nonuniform List<scalar> 
16000
(
8.6607216e-06
-0.00013163682
-0.00044313176
-0.0008454926
-0.0012637045
-0.0016523759
-0.0019806341
-0.0022296386
-0.0023887513
-0.0024522675
-0.0024172474
-0.0022822344
-0.0020466577
-0.0017107602
-0.0012758997
-0.00074508593
-0.00012363092
0.00058019849
0.0013546256
0.0021839972
0.0030486861
0.0039253326
0.004787454
0.0056064599
0.0063530258
0.0069987725
0.0075181434
0.0078903436
0.0081011759
0.0081446014
0.0080238624
0.007752063
0.0073521939
0.0068566847
0.0063063889
0.0057488369
0.0052390904
0.0048334414
0.0045935738
0.0045548152
0.00015325886
8.3483538e-06
-0.0002417374
-0.0005506184
-0.00087281434
-0.0011740154
-0.0014299768
-0.0016245188
-0.0017472806
-0.0017918194
-0.0017541945
-0.001632043
-0.0014241112
-0.0011301672
-0.00075120133
-0.00028981879
0.00024927104
0.00085875691
0.0015283038
0.002244277
0.0029896758
0.0037444734
0.0044859643
0.0051897938
0.005831109
0.0063860112
0.006833176
0.0071555036
0.0073416587
0.0073873565
0.0072962615
0.0070803945
0.0067599858
0.0063628035
0.0059230396
0.0054796752
0.0050738691
0.0047490775
0.0045505143
0.0045151472
0.00047191633
0.00025403351
-1.8022608e-06
-0.00028084919
-0.00056109375
-0.00081803187
-0.0010338745
-0.0011965638
-0.0012978939
-0.0013323445
-0.0012961961
-0.0011869162
-0.001002865
-0.00074328823
-0.00040853221
-4.1317576e-07
0.00047733236
0.0010185885
0.0016144628
0.0022530232
0.0029192654
0.0035952354
0.0042605732
0.0048932825
0.0054708233
0.0059714623
0.0063757896
0.0066682728
0.0068386939
0.0068833202
0.0068056783
0.0066168426
0.0063351748
0.0059855067
0.0055978373
0.0052055953
0.0048433459
0.0045453252
0.004347895
0.0042806426
0.00089353324
0.00056227449
0.0002615827
-2.4201615e-05
-0.00029480428
-0.0005339541
-0.00073008571
-0.00087598445
-0.0009665792
-0.00099817524
-0.00096795907
-0.00087364338
-0.00071335617
-0.00048575946
-0.00019034546
0.0001721436
0.0005992289
0.0010862019
0.0016256879
0.0022073386
0.0028177232
0.0034403924
0.004056384
0.0046449113
0.0051844142
0.0056538744
0.0060343178
0.0063103777
0.0064717561
0.006514403
0.0064412576
0.006262455
0.0059949616
0.0056616435
0.0052898113
0.0049093769
0.0045509924
0.0042445449
0.0040165806
0.0038810002
0.0013443329
0.00088466459
0.00052151045
0.00021119652
-6.6511789e-05
-0.0003025709
-0.00049130465
-0.00063045
-0.00071834998
-0.0007534399
-0.00073405784
-0.00065830203
-0.00052408865
-0.00032940707
-7.2724378e-05
0.00024650638
0.00062728178
0.0010664797
0.0015583446
0.002094091
0.0026616944
0.0032459231
0.003828698
0.004389775
0.0049077727
0.0053614943
0.0057314632
0.0060015471
0.0061605052
0.0062032608
0.0061317037
0.0059548843
0.0056885608
0.005354142
0.0049770801
0.0045849505
0.0042060438
0.0038675059
0.0035848206
0.0033611893
0.0017711811
0.0011780528
0.00074339044
0.00039734273
0.00010078153
-0.00014350889
-0.00033522085
-0.0004768061
-0.00056995409
-0.00061524032
-0.00061217614
-0.00055923671
-0.00045406602
-0.0002938645
-7.5911642e-05
0.0002018166
0.00053997741
0.00093718653
0.0013893952
0.001889382
0.0024264287
0.0029862615
0.0035513011
0.0041013069
0.004614392
0.0050683861
0.0054424514
0.0057188158
0.0058844515
0.0059324973
0.0058632076
0.0056842395
0.0054101956
0.0050614588
0.0046624055
0.0042393916
0.0038198693
0.0034303612
0.0030778111
0.0027505046
0.0021288738
0.0014038968
0.00089430979
0.00050607881
0.00018280872
-7.8170046e-05
-0.0002813745
-0.0004335857
-0.00053958548
-0.00060191725
-0.00062113148
-0.00059595491
-0.00052362455
-0.00040039821
-0.00022219412
1.4675831e-05
0.00031271572
0.00067244442
0.0010916405
0.0015646994
0.0020821764
0.002630614
0.0031926715
0.0037477106
0.0042727824
0.0047440358
0.0051384468
0.0054357163
0.0056201413
0.0056822411
0.0056199166
0.0054389294
0.0051525652
0.0047804553
0.004346615
0.0038772775
0.0034005113
0.0029440129
0.0025077856
0.0020662392
0.0023788475
0.0015274432
0.00094336976
0.00051019412
0.00015560778
-0.00012794768
-0.00034934146
-0.00051926064
-0.0006452376
-0.00073150716
-0.00077942563
-0.00078776413
-0.00075315791
-0.00067072958
-0.00053483902
-0.00033992956
-8.1439906e-05
0.00024326039
0.00063396841
0.0010868478
0.0015938144
0.0021422295
0.002714879
0.0032904826
0.0038446214
0.004351168
0.0047841289
0.0051197471
0.0053386415
0.0054277294
0.005381675
0.0052036454
0.0049052076
0.0045052728
0.0040280409
0.0035006524
0.0029532096
0.0024162888
0.0018848815
0.0013223611
0.0024872952
0.0015169999
0.00086126919
0.00038280787
-5.4974219e-06
-0.00031572174
-0.00056070286
-0.00075462831
-0.00090741702
-0.001024678
-0.0011082951
-0.0011568352
-0.0011661023
-0.0011298616
-0.0010406897
-0.00089092562
-0.0006736989
-0.00038399746
-1.9723047e-05
0.00041733323
0.00092068851
0.001478702
0.0020743442
0.0026856113
0.0032863485
0.0038476662
0.0043398673
0.0047347575
0.005008118
0.0051420396
0.005126801
0.0049620206
0.0046568962
0.0042293916
0.003704204
0.0031102666
0.0024810971
0.0018518436
0.0012139172
0.0005204294
0.0024237449
0.0013434873
0.00062044379
9.7874271e-05
-0.00032516202
-0.00066501079
-0.00093817263
-0.0011619711
-0.0013483646
-0.0015040211
-0.0016310681
-0.0017276129
-0.0017883893
-0.0018055696
-0.0017696997
-0.0016707422
-0.0014992106
-0.0012473638
-0.00091041392
-0.00048769087
1.6338548e-05
0.00059144957
0.0012210416
0.0018825097
0.0025478602
0.0031850677
0.0037600492
0.0042391628
0.0045920387
0.004794433
0.0048307147
0.004695614
0.0043949695
0.0039452794
0.0033717916
0.0027059179
0.0019858986
0.0012531628
0.00049666288
-0.00034047973
0.0021604198
0.0009802713
0.00019529575
-0.00036925807
-0.00082720381
-0.0011989811
-0.0015045046
-0.0017639156
-0.0019909033
-0.002192909
-0.0023720444
-0.002525719
-0.0026473714
-0.0027273506
-0.0027539152
-0.002714349
-0.0025961858
-0.0023885204
-0.002083369
-0.0016770295
-0.0011713486
-0.000574444
9.7975488e-05
0.00082309866
0.0015712181
0.0023069569
0.0029912371
0.0035839356
0.0040470818
0.0043483043
0.0044641029
0.0043824551
0.0041043419
0.0036438629
0.0030265546
0.0022867648
0.0014686642
0.00062169874
-0.0002667995
-0.0012639705
0.0016721234
0.00040323421
-0.00043752666
-0.0010413631
-0.0015339456
-0.0019396558
-0.0022816081
-0.0025824849
-0.0028574454
-0.0031144685
-0.0033554356
-0.0035768614
-0.0037706961
-0.003925257
-0.0040262675
-0.0040580168
-0.0040046495
-0.0038515793
-0.003586994
-0.0032033882
-0.0026990508
-0.0020795899
-0.0013585278
-0.00055828178
0.00029013832
0.0011480448
0.0019709065
0.0027111054
0.0033214941
0.0037594975
0.0039913241
0.0039957094
0.0037665845
0.003314091
0.0026633277
0.0018517469
0.00093055356
-4.0996636e-05
-0.0010765985
-0.0022544397
0.00093645617
-0.00040896077
-0.0012987556
-0.0019388267
-0.0024655645
-0.0029071361
-0.0032896579
-0.0036381116
-0.0039689176
-0.0042904177
-0.0046041124
-0.004905484
-0.0051848535
-0.0054283393
-0.0056189078
-0.0057375447
-0.0057645765
-0.0056811566
-0.0054709007
-0.0051216146
-0.0046270593
-0.0039888724
-0.0032175428
-0.0023339448
-0.0013695303
-0.00036586987
0.00062689148
0.001552766
0.0023537946
0.0029748476
0.0033689279
0.0035023362
0.0033589027
0.0029423814
0.0022759946
0.0014000233
0.00037367177
-0.00073209866
-0.0019315752
-0.0033151992
-6.575824e-05
-0.0014744712
-0.0024060548
-0.0030791001
-0.0036394255
-0.0041188031
-0.0045461621
-0.0049485722
-0.0053435607
-0.0057397258
-0.006138113
-0.0065331121
-0.0069133465
-0.0072626311
-0.0075610016
-0.007785862
-0.0079132994
-0.0079196032
-0.0077829999
-0.007485577
-0.0070153491
-0.006368441
-0.0055509088
-0.0045805591
-0.0034879582
-0.0023166223
-0.0011219962
3.1028684e-05
0.0010721543
0.001931159
0.0025444315
0.0028618592
0.0028531029
0.002511976
0.0018573639
0.0009313885
-0.00019805198
-0.001446272
-0.002827772
-0.0044467482
-0.0013499368
-0.002807812
-0.0037735425
-0.004476152
-0.0050694255
-0.0055885279
-0.0060650176
-0.0065278761
-0.0069956403
-0.0074771344
-0.0079729595
-0.0084764434
-0.0089745341
-0.009448723
-0.0098760171
-0.010230021
-0.010482201
-0.010603398
-0.010565613
-0.010344097
-0.0099196982
-0.0092814254
-0.0084289671
-0.0073751229
-0.0061477056
-0.0047906134
-0.0033636228
-0.0019404782
-0.00060496572
0.00055510004
0.0014556938
0.002025492
0.0022147359
0.0020023479
0.0013990341
0.00044668969
-0.00077792288
-0.0021743215
-0.0037568071
-0.0056449827
-0.002927173
-0.0044193975
-0.0054113422
-0.0061399619
-0.0067653869
-0.0073259263
-0.0078555958
-0.0083851548
-0.0089341208
-0.0095115966
-0.010117843
-0.010745257
-0.011379233
-0.011999026
-0.012578617
-0.013087686
-0.013492785
-0.01375878
-0.013850657
-0.013735708
-0.013386136
-0.012782015
-0.011914478
-0.010788921
-0.0094279368
-0.0078735101
-0.0061879531
-0.0044529674
-0.0027662604
-0.0012353468
3.1423979e-05
0.00093600509
0.0014026844
0.0013888534
0.00089138871
-5.1661531e-05
-0.0013554177
-0.0029016677
-0.0047040379
-0.0068991907
-0.0048037241
-0.0063151565
-0.0073252249
-0.0080761153
-0.008732551
-0.0093357076
-0.0099219075
-0.010523612
-0.011161373
-0.01184472
-0.012573781
-0.013340254
-0.01412822
-0.014914893
-0.015671351
-0.016363354
-0.016952363
-0.017396874
-0.017654165
-0.017682541
-0.017444115
-0.016908142
-0.01605485
-0.014879467
-0.013396327
-0.01164242
-0.0096798187
-0.0075961822
-0.0055024796
-0.0035271726
-0.0018064884
-0.00047109183
0.00036960533
0.00064290509
0.00032391589
-0.00055893942
-0.0019148893
-0.0036065504
-0.0056464068
-0.0081897019
-0.0069806248
-0.0084962933
-0.009516411
-0.010285564
-0.010971237
-0.011617179
-0.012261914
-0.01293961
-0.013672007
-0.014469323
-0.015331871
-0.016251001
-0.017209822
-0.018183823
-0.019141432
-0.020044628
-0.02084977
-0.021508754
-0.021970646
-0.022183902
-0.022099265
-0.021673391
-0.02087321
-0.019680862
-0.018098938
-0.016155616
-0.013908902
-0.011449092
-0.0088982839
-0.0064057294
-0.0041380923
-0.0022643393
-0.00093618327
-0.00026691888
-0.0003138783
-0.0010669296
-0.0024338908
-0.004257831
-0.0065498425
-0.0094850474
-0.0094535043
-0.010959265
-0.0119816
-0.012764622
-0.013476732
-0.014163978
-0.014867054
-0.015621962
-0.016451921
-0.017368226
-0.018371819
-0.019454161
-0.020597847
-0.021777063
-0.022957951
-0.024098996
-0.02515161
-0.026061068
-0.026767957
-0.027210296
-0.027326452
-0.027058947
-0.026359238
-0.025193506
-0.023548912
-0.021440476
-0.018917347
-0.016067721
-0.013020898
-0.0099448074
-0.0070373399
-0.0045103803
-0.0025666804
-0.0013722709
-0.0010305791
-0.0015620848
-0.0028809444
-0.0048122399
-0.0073660675
-0.010738478
-0.012212676
-0.01369605
-0.014713299
-0.015505257
-0.016239478
-0.016964085
-0.017722054
-0.018551526
-0.019477664
-0.020513394
-0.021660865
-0.022912226
-0.024250103
-0.025647896
-0.027069924
-0.028471573
-0.029799622
-0.03099291
-0.031983549
-0.032698865
-0.033064232
-0.033006904
-0.032461044
-0.031374563
-0.029715441
-0.027481029
-0.02470617
-0.021470946
-0.017906024
-0.01419347
-0.010560618
-0.0072647407
-0.0045673913
-0.00270031
-0.0018295079
-0.0020226888
-0.0032125457
-0.0052109065
-0.0080286588
-0.01188369
-0.015243562
-0.016694773
-0.017700518
-0.018495745
-0.019245598
-0.020000176
-0.020805071
-0.021701129
-0.022716179
-0.023865529
-0.025153272
-0.026572919
-0.028107757
-0.029730964
-0.031405555
-0.03308429
-0.034709735
-0.036214649
-0.03752293
-0.0385513
-0.03921196
-0.0394163
-0.039079927
-0.038131074
-0.03651496
-0.034207102
-0.031222422
-0.027626013
-0.023542346
-0.019160482
-0.014732163
-0.010559206
-0.0069672844
-0.0042662861
-0.0027033791
-0.0024146412
-0.0033691507
-0.0053749924
-0.0084482057
-0.012829608
-0.018527518
-0.019940777
-0.020929905
-0.021721738
-0.02247781
-0.023250322
-0.024088166
-0.025035864
-0.026124962
-0.027374174
-0.028790436
-0.030369406
-0.032095691
-0.03394282
-0.035873016
-0.037836889
-0.039773255
-0.041609255
-0.04326102
-0.044635063
-0.045630673
-0.046143599
-0.046071222
-0.045317782
-0.043806705
-0.041487457
-0.038349642
-0.034436277
-0.02985693
-0.024798174
-0.019527579
-0.014386358
-0.0097655243
-0.0060630944
-0.0036265094
-0.0026854634
-0.0032698647
-0.0052002295
-0.0085064083
-0.013454113
-0.022043109
-0.023418202
-0.024387397
-0.02516779
-0.025916719
-0.026689011
-0.0275381
-0.028513707
-0.029652628
-0.030978324
-0.032501683
-0.034221368
-0.036123957
-0.038183843
-0.040362876
-0.042609913
-0.044860426
-0.047036401
-0.04904673
-0.050788321
-0.052148181
-0.053006774
-0.053242832
-0.052739492
-0.051394376
-0.049129193
-0.045904266
-0.041734123
-0.036704515
-0.030988503
-0.0248577
-0.018682769
-0.01291571
-0.0080478985
-0.0045443289
-0.0027561852
-0.0028055541
-0.0045501539
-0.008048943
-0.013596571
-0.025767921
-0.027112205
-0.028060475
-0.028819389
-0.029542492
-0.030288463
-0.031117343
-0.032086391
-0.033239791
-0.034607511
-0.036205695
-0.038036913
-0.040090304
-0.042341477
-0.044752151
-0.047269626
-0.049826271
-0.052339257
-0.054710725
-0.056828637
-0.058568551
-0.059796599
-0.06037388
-0.060162566
-0.059035383
-0.056885093
-0.053640196
-0.049281803
-0.043863874
-0.037534679
-0.030555949
-0.023313421
-0.016309305
-0.010126622
-0.005360324
-0.0025109338
-0.0018301419
-0.0032478184
-0.0068768996
-0.013049055
-0.029681056
-0.031011997
-0.03194116
-0.032665527
-0.033336869
-0.034020096
-0.034785184
-0.035700367
-0.036820155
-0.038183224
-0.039812469
-0.041715244
-0.043883657
-0.046294642
-0.048909722
-0.051674528
-0.054518281
-0.057353422
-0.060075641
-0.062564496
-0.064684921
-0.066289823
-0.067224056
-0.067330103
-0.06645683
-0.064468919
-0.061262282
-0.056781801
-0.051043716
-0.044161507
-0.036372703
-0.028060684
-0.019760937
-0.01213801
-0.0059211628
-0.001784328
-0.00014992505
-0.0010657478
-0.0047365195
-0.011546048
-0.033766554
-0.035115021
-0.036029986
-0.036701895
-0.037285436
-0.037856031
-0.038498752
-0.039297722
-0.040321641
-0.041620559
-0.043225694
-0.0451499
-0.047388354
-0.049919026
-0.052702752
-0.055682964
-0.058785276
-0.061917127
-0.064967724
-0.067808496
-0.070294385
-0.072266088
-0.073553685
-0.073981937
-0.073376627
-0.071577186
-0.068447787
-0.063896605
-0.05789903
-0.050526497
-0.041979678
-0.032621392
-0.022998976
-0.013839889
-0.006001534
-0.00034723287
0.0024891253
0.0022861527
-0.0013068055
-0.0087522703
-0.038018269
-0.039432843
-0.040341325
-0.040934807
-0.041380083
-0.041770419
-0.042213742
-0.042816828
-0.043667427
-0.044829952
-0.046345396
-0.048232436
-0.050488892
-0.053092914
-0.056003607
-0.059161138
-0.06248657
-0.065881604
-0.069228521
-0.072390502
-0.075212775
-0.07752454
-0.079142168
-0.079873926
-0.079526343
-0.077914295
-0.074872976
-0.070275631
-0.064056671
-0.056241878
-0.04698596
-0.036614936
-0.025664942
-0.014900988
-0.0052910891
0.0021080065
0.0064158865
0.0071751308
0.0038157551
-0.0042478267
-0.042447197
-0.043999769
-0.044910695
-0.045386062
-0.045621548
-0.045740393
-0.04588464
-0.046192605
-0.046776805
-0.047718974
-0.049070813
-0.050856399
-0.053074966
-0.055703215
-0.058696779
-0.06199088
-0.065500543
-0.069120506
-0.07272524
-0.076169094
-0.079287434
-0.081898205
-0.083804786
-0.084800243
-0.084673329
-0.083217145
-0.080240724
-0.075585381
-0.069146866
-0.060905412
-0.050965281
-0.039603813
-0.027324767
-0.014902013
-0.0033867278
0.0059809224
0.012050023
0.01406319
0.011136743
0.0024910205
-0.047093264
-0.048885973
-0.049805103
-0.050099033
-0.050021952
-0.04974642
-0.049464268
-0.04935632
-0.049565868
-0.050194199
-0.051303491
-0.052921544
-0.055046615
-0.057651328
-0.060685304
-0.064076474
-0.067731788
-0.071537303
-0.07535869
-0.079039951
-0.082406293
-0.085264104
-0.087403874
-0.088604073
-0.088636856
-0.087275229
-0.084304761
-0.079538159
-0.072836116
-0.064136175
-0.053492113
-0.041126295
-0.027493815
-0.013349606
0.0002056942
0.011771903
0.019918405
0.023528739
0.021290176
0.012119131
-0.052045466
-0.054218297
-0.055138029
-0.055146394
-0.05460715
-0.053771817
-0.052902562
-0.052234975
-0.051948175
-0.052163306
-0.052950674
-0.054338223
-0.056319264
-0.058858499
-0.061896314
-0.065350036
-0.069116199
-0.073069954
-0.077068071
-0.080940342
-0.084502388
-0.087548156
-0.089854722
-0.091185808
-0.091297972
-0.089943805
-0.086887399
-0.081915527
-0.074857168
-0.065610996
-0.054183071
-0.040739457
-0.025676436
-0.0097066441
0.0060551377
0.02008211
0.030669937
0.036293591
0.03507616
0.025465527
-0.057478139
-0.060214143
-0.061091377
-0.060639777
-0.059418515
-0.057801077
-0.056144455
-0.054750355
-0.053835522
-0.053537481
-0.053928942
-0.055031749
-0.056828354
-0.059270237
-0.062285262
-0.065775091
-0.069624262
-0.073695064
-0.077829722
-0.081848862
-0.085553579
-0.088724861
-0.091125881
-0.092505085
-0.09260105
-0.091148627
-0.087889435
-0.082584713
-0.07503358
-0.065098493
-0.052740588
-0.038070541
-0.021420272
-0.0034421918
0.014768388
0.031597226
0.04508446
0.053256344
0.053516715
0.043607485
-0.063718971
-0.067237722
-0.06794734
-0.066740999
-0.064512987
-0.061816054
-0.059126311
-0.056817402
-0.055138498
-0.054233706
-0.054167536
-0.054946128
-0.056533105
-0.058860582
-0.061836465
-0.065346972
-0.069259319
-0.073421007
-0.077659842
-0.081783334
-0.085578586
-0.088812592
-0.091233657
-0.092573985
-0.092553933
-0.090888266
-0.087295275
-0.081509635
-0.073299446
-0.062490154
-0.048997703
-0.032875899
-0.01438648
0.0058947862
0.026924367
0.047044779
0.064067501
0.075531192
0.077939398
0.068005288
-0.071381145
-0.075893848
-0.076132724
-0.073672584
-0.069958479
-0.065787646
-0.061769066
-0.058340328
-0.055765305
-0.054175379
-0.05360984
-0.054045735
-0.05541694
-0.057629031
-0.060565536
-0.064091817
-0.068056208
-0.072289593
-0.076604501
-0.080793972
-0.084630867
-0.087867656
-0.090237206
-0.091454783
-0.091221706
-0.089230943
-0.085175258
-0.078759873
-0.069717637
-0.05783158
-0.042965504
-0.025108064
-0.0044390929
0.018570171
0.042964878
0.067105061
0.088610825
0.10448332
0.11010488
0.10076076
-0.081631764
-0.087181985
-0.086270514
-0.081716563
-0.075814879
-0.069655035
-0.063961447
-0.059200737
-0.055613811
-0.053286978
-0.052209633
-0.052311125
-0.053484403
-0.055599679
-0.058511276
-0.062060261
-0.066074516
-0.070367354
-0.07473567
-0.078958045
-0.082793309
-0.085979668
-0.088234781
-0.089257042
-0.08872844
-0.086319118
-0.081693928
-0.074524917
-0.06450305
-0.051358889
-0.034889584
-0.014997733
0.0082487647
0.034515445
0.063013586
0.0922261
0.11966009
0.14172268
0.15240463
0.14512485
-0.096760116
-0.10273843
-0.099198205
-0.091155523
-0.082062781
-0.073261736
-0.06550809
-0.059217272
-0.054540457
-0.051469664
-0.04991046
-0.049723256
-0.050746092
-0.052806258
-0.055724757
-0.059316546
-0.063388616
-0.067737079
-0.072144065
-0.076374856
-0.080175577
-0.083271584
-0.085366757
-0.086143924
-0.085266833
-0.082383024
-0.077128497
-0.069138777
-0.058055842
-0.04354495
-0.025315394
-0.00315092
0.023041397
0.053141824
0.086633887
0.12228354
0.15778138
0.18895219
0.20809841
0.20632824
-0.12133967
-0.12518731
-0.11587308
-0.10208119
-0.088417309
-0.076198285
-0.066005747
-0.058052219
-0.05229131
-0.048550239
-0.046608395
-0.04623303
-0.047194809
-0.049272731
-0.052253051
-0.055925351
-0.060077578
-0.064490993
-0.068935546
-0.073165908
-0.076918279
-0.07990803
-0.081828196
-0.082348996
-0.08111893
-0.07776463
-0.071896039
-0.063110484
-0.050996298
-0.035141885
-0.015145471
0.009369505
0.038725949
0.073130221
0.11252032
0.15626313
0.20263142
0.24752368
0.28130148
0.29235708
-0.16445711
-0.15843284
-0.13714834
-0.11415742
-0.094107279
-0.07763118
-0.064737858
-0.055161776
-0.048489904
-0.044291569
-0.042172887
-0.041787469
-0.042832521
-0.045039773
-0.048164874
-0.051977203
-0.056250936
-0.06075749
-0.065259311
-0.069504862
-0.073224699
-0.076128495
-0.077902933
-0.078210687
-0.076690674
-0.072947933
-0.066577837
-0.05714074
-0.044172441
-0.027180424
-0.0056360861
0.021035271
0.053464611
0.092332116
0.13829677
0.19182741
0.25266852
0.31751193
0.37626908
0.41537126
-0.24629397
-0.20631802
-0.16213032
-0.12552896
-0.097143732
-0.075878252
-0.060487638
-0.049752434
-0.042660345
-0.038436311
-0.036490451
-0.036365499
-0.037697471
-0.040185283
-0.043567387
-0.047604372
-0.052066068
-0.056721863
-0.061333313
-0.065648466
-0.069397499
-0.072289436
-0.074009807
-0.074220028
-0.072558696
-0.068605716
-0.061961814
-0.052155989
-0.038682992
-0.020981178
0.0015962006
0.029825786
0.064686977
0.10746552
0.15987176
0.22417854
0.3029062
0.39553294
0.49624416
0.60321305
-0.42543874
-0.26573012
-0.17722134
-0.12463596
-0.089116588
-0.065102723
-0.049323934
-0.039185414
-0.032983808
-0.029674201
-0.028570845
-0.029186893
-0.031156967
-0.034190045
-0.038037761
-0.042473482
-0.047278323
-0.052231353
-0.057102411
-0.061646716
-0.065600759
-0.068679138
-0.070571819
-0.070940702
-0.069407989
-0.065629862
-0.05913241
-0.049452857
-0.036074768
-0.018403187
0.0042719127
0.032847883
0.068543363
0.11314282
0.16943742
0.24201799
0.33806688
0.46591663
0.64305545
0.92086302
-0.7933127
-0.32444192
-0.14899717
-0.087725138
-0.055345544
-0.035999244
-0.02509128
-0.019200733
-0.016355264
-0.015618842
-0.016494079
-0.018653895
-0.021853015
-0.025888383
-0.030575399
-0.035733796
-0.041179015
-0.046716264
-0.052135974
-0.057210162
-0.061689486
-0.065300882
-0.067745887
-0.068700918
-0.067824513
-0.064707951
-0.058941762
-0.050072411
-0.037593335
-0.020927084
0.00061078727
0.027881502
0.062059216
0.10491383
0.1594518
0.23152847
0.33385194
0.4940927
0.79001685
1.3837788
1.2194749e-05
-0.00013066769
-0.00044286007
-0.0008454192
-0.0012638238
-0.0016526254
-0.0019809689
-0.0022300333
-0.0023891888
-0.0024527335
-0.0024177297
-0.0022827216
-0.0020471393
-0.0017112262
-0.0012763397
-0.00074548863
-0.00012398392
0.00057990768
0.0013544084
0.0021838633
0.0030486432
0.003925387
0.0047876102
0.0056067185
0.0063533813
0.0069992118
0.0075186482
0.0078908941
0.0081017524
0.0081451817
0.0080244173
0.0077525573
0.0073525952
0.0068569733
0.0063065621
0.0057489122
0.0052390479
0.0048332418
0.0045932034
0.0045546695
0.0001541318
8.8634262e-06
-0.00024129037
-0.00055014817
-0.00087230659
-0.0011734565
-0.0014293697
-0.0016238765
-0.0017466187
-0.0017911533
-0.0017535391
-0.0016314117
-0.0014235166
-0.0011296217
-0.00075071783
-0.00028941034
0.00024959192
0.00085897952
0.0015284191
0.0022442782
0.0029895575
0.0037442307
0.0044855978
0.0051893107
0.005830523
0.0063853401
0.0068324381
0.0071547172
0.0073408462
0.0073865484
0.0072954938
0.0070796981
0.0067593772
0.0063622877
0.0059226247
0.0054793821
0.005073729
0.0047490113
0.0045504012
0.0045152419
0.00047239927
0.00025430344
-1.488631e-06
-0.00028058632
-0.00056090062
-0.00081787729
-0.0010337451
-0.0011964549
-0.0012978019
-0.0013322673
-0.0012961335
-0.0011868685
-0.0010028323
-0.00074327012
-0.00040852829
-4.234066e-07
0.00047730773
0.0010185495
0.0016144108
0.0022529607
0.0029191953
0.0035951596
0.0042604919
0.0048931956
0.0054707327
0.0059713726
0.0063757059
0.0066681952
0.0068386167
0.0068832367
0.0068055893
0.0066167567
0.0063350973
0.0059854288
0.0055977409
0.0052054753
0.0048432262
0.0045452055
0.0043477317
0.0042806179
0.00089402178
0.00056233598
0.00026183117
-2.3976487e-05
-0.00029467028
-0.00053386679
-0.00073002964
-0.00087595653
-0.00096657423
-0.00099818837
-0.00096798718
-0.0008736846
-0.00071340904
-0.00048582216
-0.00019041552
0.000172069
0.00059915237
0.0010861254
0.0016256133
0.0022072683
0.0028176606
0.0034403423
0.0040563495
0.004644892
0.0051844072
0.0056538778
0.0060343331
0.0063104075
0.0064717975
0.0065144441
0.0064412837
0.0062624605
0.0059949527
0.0056616261
0.0052897766
0.0049093055
0.0045508749
0.0042443996
0.0040164319
0.0038808699
0.0013448749
0.00088451767
0.00052172752
0.00021145089
-6.634001e-05
-0.00030242429
-0.00049116996
-0.0006303319
-0.00071824843
-0.00075335338
-0.00073398547
-0.00065824369
-0.00052404482
-0.00032937853
-7.2711534e-05
0.000246504
0.00062726539
0.0010664505
0.0015583028
0.0020940365
0.0026616276
0.0032458468
0.0038286171
0.0043896936
0.004907691
0.0053614095
0.0057313737
0.0060014568
0.0061604216
0.0062031865
0.0061316301
0.0059547982
0.0056884591
0.0053540366
0.0049769848
0.0045848562
0.0042059174
0.0038673771
0.0035848009
0.0033609743
0.0017718142
0.0011777179
0.00074357363
0.00039760038
0.00010094486
-0.00014336526
-0.00033508127
-0.00047667893
-0.00056984117
-0.00061514141
-0.00061209126
-0.00055916579
-0.00045400918
-0.00029382244
-7.5885472e-05
0.00020182603
0.00053997031
0.00093716426
0.0013893594
0.0018893333
0.0024263666
0.0029861859
0.0035512144
0.0041012146
0.0046142995
0.0050682945
0.0054423566
0.0057187142
0.0058843463
0.0059323981
0.0058631191
0.0056841534
0.0054100969
0.0050613445
0.0046622917
0.0042392841
0.0038197312
0.0034302407
0.0030778777
0.0027501954
0.0021296091
0.0014033956
0.0008944665
0.00050633805
0.00018295663
-7.8040871e-05
-0.00028124523
-0.00043346692
-0.00053947939
-0.00060182386
-0.00062105154
-0.00059588885
-0.00052357224
-0.00040035949
-0.00022216942
1.4685466e-05
0.00031270931
0.00067242214
0.0010916042
0.0015646515
0.0020821186
0.0026305456
0.0031925916
0.0037476211
0.0042726893
0.0047439459
0.0051383615
0.0054356302
0.0056200479
0.005682142
0.0056198218
0.0054388448
0.0051524818
0.0047803588
0.0043465075
0.0038771629
0.0034003527
0.0029438943
0.0025079509
0.0020658552
0.0023796859
0.0015267939
0.00094350893
0.0005104617
0.00015574851
-0.00012782389
-0.00034921313
-0.00051914091
-0.00064512891
-0.00073140928
-0.0007793397
-0.00078769149
-0.00075309927
-0.00067068496
-0.00053480819
-0.00033991276
-8.1438261e-05
0.00024324549
0.00063393675
0.0010868014
0.0015937568
0.0021421628
0.0027148031
0.0032903957
0.0038445245
0.0043510673
0.0047840328
0.0051196581
0.0053385533
0.0054276334
0.0053815716
0.0052035447
0.0049051153
0.0045051816
0.0040279444
0.0035005384
0.0029530292
0.0024161684
0.0018851494
0.0013218881
0.002488234
0.0015162182
0.00086139694
0.00038308696
-5.3603062e-06
-0.00031559999
-0.00056057217
-0.00075450457
-0.00090730335
-0.0010245738
-0.0011082012
-0.0011567531
-0.0011660337
-0.0011298075
-0.0010406504
-0.00089090073
-0.00067368847
-0.0003840026
-1.9745621e-05
0.00041729256
0.00092063211
0.0014786336
0.0020742676
0.0026855268
0.0032862537
0.003847561
0.0043397577
0.0047346531
0.0050080226
0.0051419465
0.0051267006
0.0049619124
0.0046567891
0.0042292921
0.003704113
0.0031101594
0.0024809002
0.00185172
0.001214287
0.00051986263
0.0024247789
0.0013425874
0.00062056477
9.8166859e-05
-0.00032502653
-0.00066488992
-0.00093803877
-0.0011618424
-0.0013482451
-0.0015039104
-0.0016309668
-0.001727522
-0.0017883103
-0.0018055044
-0.0017696498
-0.0016707082
-0.001499192
-0.0012473603
-0.0009104264
-0.00048772121
1.6289863e-05
0.00059138251
0.0012209619
0.0018824228
0.0025477672
0.0031849656
0.0037599369
0.0042390459
0.0045919274
0.0047943319
0.0048306172
0.0046955101
0.0043948577
0.0039451698
0.0033716981
0.002705815
0.0019856881
0.0012530389
0.00049714154
-0.00034114695
0.0021615425
0.00097926679
0.00019541354
-0.00036895016
-0.00082706721
-0.0011988593
-0.0015043666
-0.0017637807
-0.0019907763
-0.00219279
-0.0023719344
-0.0025256189
-0.0026472821
-0.0027272734
-0.0027538522
-0.0027143024
-0.0025961565
-0.0023885079
-0.0020833725
-0.0016770488
-0.0011713842
-0.00057450243
9.7897426e-05
0.00082300737
0.0015711202
0.0023068546
0.0029911275
0.0035838169
0.0040469591
0.0043481879
0.0044639974
0.0043823535
0.004104234
0.0036437508
0.0030264572
0.0022866604
0.0014684362
0.00062157625
-0.000266199
-0.0012647497
0.001673327
0.00040213873
-0.00043740958
-0.001041039
-0.0015338051
-0.0019395306
-0.0022814645
-0.0025823429
-0.0028573097
-0.0031143395
-0.0033553149
-0.0035767504
-0.0037705957
-0.0039251677
-0.0040261907
-0.0040579549
-0.0040046052
-0.0038515541
-0.0035869873
-0.003203399
-0.0026990801
-0.0020796371
-0.0013585962
-0.0005583707
0.00029003526
0.0011479355
0.0019707945
0.0027109881
0.0033213697
0.0037593709
0.0039912049
0.0039956008
0.0037664785
0.0033139826
0.0026632322
0.0018516403
0.00093030172
-4.1119758e-05
-0.0010758596
-0.0022553463
0.00093773186
-0.00041013245
-0.0012986373
-0.0019384867
-0.0024654181
-0.0029070051
-0.0032895069
-0.0036379616
-0.0039687728
-0.0042902779
-0.0046039794
-0.0049053599
-0.0051847399
-0.0054282371
-0.0056188176
-0.0057374676
-0.0057645151
-0.005681114
-0.0054708791
-0.0051216142
-0.0046270797
-0.0039889089
-0.0032175987
-0.0023340231
-0.0013696301
-0.00036598453
0.00062677098
0.0015526442
0.0023536702
0.002974719
0.0033688003
0.003502217
0.0033587917
0.0029422754
0.0022759061
0.0013999185
0.00037339199
-0.0007322254
-0.0019306786
-0.0033162531
-6.4421424e-05
-0.0014757032
-0.0024059332
-0.0030787453
-0.0036392722
-0.0041186647
-0.0045460019
-0.0049484127
-0.005343406
-0.0057395752
-0.0061379676
-0.006532974
-0.006913218
-0.007262514
-0.007560897
-0.0077857704
-0.0079132218
-0.0079195421
-0.0077829591
-0.0074855595
-0.0070153554
-0.0063684676
-0.0055509544
-0.0045806252
-0.0034880473
-0.0023167334
-0.0011221221
3.0897732e-05
0.0010720239
0.0019310291
0.0025443019
0.0028617338
0.0028529846
0.002511868
0.0018572825
0.00093128892
-0.00019836177
-0.0014464036
-0.0028266939
-0.0044479747
-0.0013485515
-0.002809088
-0.0037734157
-0.0044757833
-0.0050692649
-0.0055883813
-0.0060648472
-0.0065277056
-0.0069954745
-0.0074769724
-0.007972802
-0.0084762919
-0.0089743903
-0.0094485896
-0.0098758962
-0.010229914
-0.010482109
-0.010603321
-0.010565553
-0.010344059
-0.0099196857
-0.0092814384
-0.0084290031
-0.0073751797
-0.0061477837
-0.0047907147
-0.0033637457
-0.0019406147
-0.00060510549
0.00055496366
0.0014555624
0.0020253656
0.0022146143
0.0020022375
0.0013989584
0.00044659578
-0.00077826606
-0.0021744579
-0.0037555181
-0.0056464116
-0.0029257531
-0.0044207012
-0.0054112086
-0.0061395803
-0.006765218
-0.0073257711
-0.0078554151
-0.0083849727