/*--------------------------------*- C++ -*----------------------------------*\
  =========                 |
  \\      /  F ield         | OpenFOAM: The Open Source CFD Toolbox
   \\    /   O peration     | Website:  https://openfoam.org
    \\  /    A nd           | Version:  7
     \\/     M anipulation  |
\*---------------------------------------------------------------------------*/
FoamFile
{
    version     2.0;
    format      ascii;
    class       surfaceScalarField;
    location    "32";
    object      phi_0;
}
// * * * * * * * * * * * * * * * * * * * * * * * * * * * * * * * * * * * * * //

dimensions      [0 3 -1 0 0 0 0];

internalField   nonuniform List<scalar> 
45600
(
2.7500879e-07
-2.8240011e-07
-8.3033052e-11
4.032548e-07
-1.2821983e-07
-2.6164626e-11
1.325179e-07
2.7074426e-07
-7.3349967e-12
-5.6233157e-07
6.9485157e-07
-1.981892e-12
-1.6393237e-06
1.0769891e-06
3.2192913e-12
-3.0276294e-06
1.3882992e-06
6.7384734e-12
-4.6524694e-06
1.6248311e-06
9.0381098e-12
-6.4451002e-06
1.7926203e-06
1.0657349e-11
-8.3454254e-06
1.9003138e-06
1.181036e-11
-1.0301444e-05
1.956006e-06
1.2582588e-11
-1.2267402e-05
1.9659456e-06
1.3019514e-11
-1.420158e-05
1.9341657e-06
1.3151128e-11
-1.6064237e-05
1.8626439e-06
1.3001285e-11
-1.7816024e-05
1.7517753e-06
1.2581351e-11
-1.941705e-05
1.6010148e-06
1.1880751e-11
-2.0826654e-05
1.4095933e-06
1.0871999e-11
-2.2003903e-05
1.1772395e-06
9.5301964e-12
-2.2908764e-05
9.0485375e-07
7.8512066e-12
-2.3503863e-05
5.9509258e-07
5.8637765e-12
-2.3756695e-05
2.5282905e-07
3.6160849e-12
-2.3642134e-05
-1.145618e-07
1.1589254e-12
-2.3145003e-05
-4.9712842e-07
-1.4677327e-12
-2.2262571e-05
-8.8242775e-07
-4.2160722e-12
-2.1006616e-05
-1.2559484e-06
-6.9820208e-12
-1.9404863e-05
-1.601744e-06
-9.5975317e-12
-1.7501555e-05
-1.9032957e-06
-1.1860674e-11
-1.5356968e-05
-2.1445722e-06
-1.3629925e-11
-1.3045752e-05
-2.3111993e-06
-1.4863038e-11
-1.0654097e-05
-2.39164e-06
-1.5564797e-11
-8.2758142e-06
-2.3782687e-06
-1.5665818e-11
-6.0075676e-06
-2.2682328e-06
-1.4979589e-11
-3.9435323e-06
-2.0640208e-06
-1.3343656e-11
-2.1697832e-06
-1.7737353e-06
-1.0834826e-11
-7.5853551e-07
-1.4112381e-06
-7.7895852e-12
2.3821316e-07
-9.9674589e-07
-4.675799e-12
7.965431e-07
-5.5833232e-07
-2.0316679e-12
9.2926945e-07
-1.3272761e-07
1.1466504e-12
7.0557091e-07
2.2369744e-07
5.3901036e-12
2.9045555e-07
4.1511281e-07
9.9991895e-12
2.9045709e-07
3.6807238e-12
1.3280997e-07
-4.1518651e-07
-2.3567779e-11
-3.0175971e-07
3.0636493e-07
-1.4938376e-11
-1.6154576e-06
1.5844553e-06
-1.2965155e-11
-3.874748e-06
2.9541559e-06
-1.3637821e-11
-7.00737e-06
4.2096261e-06
-1.4726183e-11
-1.087977e-05
5.2607161e-06
-1.6209959e-11
-1.5335177e-05
6.0802557e-06
-1.7608794e-11
-2.0216009e-05
6.6734719e-06
-1.8626794e-11
-2.5374063e-05
7.0583876e-06
-1.9198241e-11
-3.0673272e-05
7.2552349e-06
-1.9318894e-11
-3.5988536e-05
7.2812292e-06
-1.9010165e-11
-4.120282e-05
7.1484695e-06
-1.8309339e-11
-4.6203961e-05
6.8638025e-06
-1.7244766e-11
-5.0882087e-05
6.4299175e-06
-1.5820181e-11
-5.5128217e-05
5.8471594e-06
-1.4022888e-11
-5.8834302e-05
5.115691e-06
-1.1846157e-11
-6.1894784e-05
4.2377321e-06
-9.3063885e-12
-6.4209589e-05
3.2196658e-06
-6.456319e-12
-6.5688338e-05
2.0738452e-06
-3.3459153e-12
-6.6255448e-05
8.1993888e-07
-3.5725404e-14
-6.5855963e-05
-5.1405013e-07
3.4303187e-12
-6.4460788e-05
-1.8923094e-06
7.0392007e-12
-6.2072458e-05
-3.2707681e-06
1.0628202e-11
-5.872907e-05
-4.5993487e-06
1.4010814e-11
-5.4507059e-05
-5.8237713e-06
1.699525e-11
-4.9521891e-05
-6.8884836e-06
1.9464223e-11
-4.3926386e-05
-7.7400998e-06
2.1401256e-11
-3.7906441e-05
-8.3311668e-06
2.280632e-11
-3.1674135e-05
-8.6239682e-06
2.3564289e-11
-2.5458392e-05
-8.5940321e-06
2.3437529e-11
-1.9493606e-05
-8.2330409e-06
2.2264903e-11
-1.4006718e-05
-7.5509307e-06
2.0196601e-11
-9.2032908e-06
-6.5771827e-06
1.7653373e-11
-5.2529043e-06
-5.361639e-06
1.4959318e-11
-2.273982e-06
-3.9756761e-06
1.2032771e-11
-3.1727315e-07
-2.5150458e-06
8.4988629e-12
6.5705407e-07
-1.1070622e-06
4.0618331e-12
8.0366665e-07
7.7074977e-08
1.9195414e-12
4.178381e-07
8.0092891e-07
3.28134e-12
7.083001e-07
-2.5575479e-12
-2.7361766e-07
-1.4155581e-07
-1.3038537e-11
-1.6275306e-06
1.660286e-06
-7.8287982e-12
-4.2894498e-06
4.2463838e-06
-9.0960404e-12
-8.2747149e-06
6.9394289e-06
-7.6239016e-12
-1.3474446e-05
9.4093628e-06
-5.6012306e-12
-1.970874e-05
1.1495015e-05
-4.4833258e-12
-2.6765761e-05
1.3137281e-05
-3.7540825e-12
-3.442662e-05
1.4334334e-05
-3.1572495e-12
-4.2478628e-05
1.5110399e-05
-2.667758e-12
-5.0720442e-05
1.5497051e-05
-2.2372098e-12
-5.8962281e-05
1.5523071e-05
-1.8149193e-12
-6.7023672e-05
1.5209862e-05
-1.3827747e-12
-7.4730509e-05
1.4570642e-05
-9.4890695e-13
-8.1912693e-05
1.3612103e-05
-5.2544903e-13
-8.8403119e-05
1.2337586e-05
-1.1370382e-13
-9.4038444e-05
1.0751017e-05
2.9671977e-13
-9.8661762e-05
8.8610494e-06
7.1414611e-13
-0.00010212706
6.6849627e-06
1.1291479e-12
-0.00010430519
4.2519743e-06
1.5090804e-12
-0.00010509097
1.6057148e-06
1.8120434e-12
-0.00010441061
-1.1944136e-06
2.0330681e-12
-0.00010222942
-4.0734942e-06
2.2001843e-12
-9.8558487e-05
-6.9417054e-06
2.3576883e-12
-9.3459973e-05
-9.6978648e-06
2.5191548e-12
-8.7050366e-05
-1.223338e-05
2.6280159e-12
-7.9500975e-05
-1.4437877e-05
2.5994443e-12
-7.1035264e-05
-1.6205813e-05
2.42829e-12
-6.192271e-05
-1.7443722e-05
2.2491609e-12
-5.2469134e-05
-1.8077546e-05
2.2394684e-12
-4.3003668e-05
-1.8059501e-05
2.420269e-12
-3.3862816e-05
-1.7373895e-05
2.5801599e-12
-2.5372227e-05
-1.6041522e-05
2.4925448e-12
-1.7826887e-05
-1.4122525e-05
2.2479584e-12
-1.1470408e-05
-1.171812e-05
2.2594097e-12
-6.4738636e-06
-8.9722234e-06
2.7953245e-12
-2.9140437e-06
-6.0748682e-06
3.4788907e-12
-7.5123227e-07
-3.2698747e-06
3.472523e-12
1.9435105e-07
-8.6850694e-07
3.4725218e-12
2.654955e-07
7.2977659e-07
4.7367251e-12
9.7379725e-07
6.6717063e-13
-7.4586483e-07
6.043223e-07
-1.318963e-11
-3.179668e-06
4.0940912e-06
-1.7832812e-12
-7.3461423e-06
8.4128656e-06
-7.206205e-12
-1.3163094e-05
1.2756387e-05
-6.5292769e-12
-2.0455852e-05
1.6702125e-05
-3.8862529e-12
-2.8992662e-05
2.0031829e-05
-2.5322574e-12
-3.8513897e-05
2.2658518e-05
-1.6262873e-12
-4.8752688e-05
2.4573127e-05
-8.0976767e-13
-5.9446987e-05
2.5804698e-05
-1.4399492e-13
-7.0344831e-05
2.6394896e-05
3.8082814e-13
-8.1205118e-05
2.6383358e-05
8.1521811e-13
-9.1795965e-05
2.5800708e-05
1.195554e-12
-0.00010189239
2.4667065e-05
1.5333773e-12
-0.0001112746
2.2994314e-05
1.8185177e-12
-0.00011972775
2.0790731e-05
2.0320659e-12
-0.00012704357
1.8066838e-05
2.1636121e-12
-0.00013302412
1.4841595e-05
2.219605e-12
-0.00013748737
1.1148215e-05
2.2178694e-12
-0.00014027447
7.039069e-06
2.1635805e-12
-0.00014125801
2.5892512e-06
2.0376085e-12
-0.00014035073
-2.1016941e-06
1.8152687e-12
-0.00013751434
-6.9098826e-06
1.4516784e-12
-0.00013276698
-1.1689066e-05
1.0000674e-12
-0.00012618927
-1.6275579e-05
5.5995727e-13
-0.00011792785
-2.0494799e-05
2.0344282e-13
-0.00010819588
-2.4169847e-05
-9.7622098e-14
-9.7269847e-05
-2.7131845e-05
-4.4438852e-13
-8.5482391e-05
-2.9231177e-05
-8.6641004e-13
-7.3210933e-05
-3.0349003e-05
-1.202508e-12
-6.0862254e-05
-3.0408178e-05
-1.1926389e-12
-4.8853443e-05
-2.9382705e-05
-7.5853411e-13
-3.7589897e-05
-2.7305066e-05
-1.594452e-13
-2.7441312e-05
-2.427111e-05
2.5755024e-13
-1.8716691e-05
-2.0442741e-05
5.0579802e-13
-1.1639458e-05
-1.6049458e-05
1.0078258e-12
-6.3235742e-06
-1.1390755e-05
2.0721167e-12
-2.7515408e-06
-6.8419119e-06
3.4067359e-12
-7.5715485e-07
-2.862896e-06
4.213506e-12
-9.5289286e-09
-1.7857718e-08
4.3122281e-12
9.6426703e-07
3.5189208e-12
-1.2279772e-06
1.8323143e-06
-1.4632862e-11
-4.7881314e-06
7.6542415e-06
4.2611142e-12
-1.052157e-05
1.4146311e-05
-6.2955898e-12
-1.8214361e-05
2.0449186e-05
-7.3773479e-12
-2.7603961e-05
2.609173e-05
-4.9820115e-12
-3.8396313e-05
3.0824186e-05
-4.2521798e-12
-5.0283062e-05
3.4545271e-05
-3.9063878e-12
-6.2954781e-05
3.724485e-05
-3.4251087e-12
-7.6109027e-05
3.8958947e-05
-2.9450361e-12
-8.9453754e-05
3.9739626e-05
-2.5093859e-12
-0.00010270744
3.9637051e-05
-2.0986906e-12
-0.0001155975
3.8690761e-05
-1.6921675e-12
-0.0001278583
3.6927873e-05
-1.2711864e-12
-0.00013923015
3.4366164e-05
-8.2762712e-13
-0.00014945969
3.1020276e-05
-3.725037e-13
-0.00015830242
2.6909561e-05
6.8917596e-14
-0.00016552718
2.2066355e-05
4.7533045e-13
-0.00017092268
1.654372e-05
8.486916e-13
-0.00017430553
1.0421913e-05
1.2116909e-12
-0.00017552929
3.8130117e-06
1.5815819e-12
-0.00017449406
-3.1369211e-06
1.9384006e-12
-0.00017115582
-1.0248125e-05
2.2102802e-12
-0.00016553474
-1.7310146e-05
2.3445486e-12
-0.00015772185
-2.4088475e-05
2.3630103e-12
-0.00014788315
-3.0333503e-05
2.3700738e-12
-0.00013626055
-3.5792443e-05
2.4602087e-12
-0.00012316892
-4.0223478e-05
2.5979382e-12
-0.00010898869
-4.3411415e-05
2.6206851e-12
-9.4153777e-05
-4.5183915e-05
2.4244437e-12
-7.9134835e-05
-4.5427122e-05
2.1566079e-12
-6.4418049e-05
-4.4099493e-05
2.1359514e-12
-5.0480356e-05
-4.1242761e-05
2.496251e-12
-3.7762133e-05
-3.6989335e-05
2.9508349e-12
-2.6638819e-05
-3.1566056e-05
3.0549404e-12
-1.7393171e-05
-2.5295109e-05
2.7649826e-12
-1.0189917e-05
-1.8594012e-05
2.7328567e-12
-5.0547388e-06
-1.1977094e-05
3.6657886e-12
-1.8598378e-06
-6.0578007e-06
3.7359419e-12
-3.222343e-07
-1.5554598e-06
5.7098074e-13
6.4202588e-07
5.8022766e-12
-1.6931739e-06
3.5255055e-06
-1.7093673e-11
-6.3714229e-06
1.2332481e-05
9.7123324e-12
-1.367147e-05
2.1446363e-05
-5.3131009e-12
-2.3234076e-05
3.00118e-05
-7.472591e-12
-3.4695255e-05
3.7552915e-05
-4.7368132e-12
-4.7689827e-05
4.3818762e-05
-4.1655603e-12
-6.185752e-05
4.8712969e-05
-4.0481649e-12
-7.6848054e-05
5.2235389e-05
-3.6882493e-12
-9.2323848e-05
5.4434744e-05
-3.2749058e-12
-0.00010796024
5.5376023e-05
-2.8685808e-12
-0.00012344393
5.5120741e-05
-2.4618824e-12
-0.00013847065
5.3717483e-05
-2.0570029e-12
-0.00015274317
5.12004e-05
-1.6484076e-12
-0.00016597048
4.7593472e-05
-1.220002e-12
-0.00017786867
4.2918472e-05
-7.5900761e-13
-0.00018816398
3.7204869e-05
-2.7350676e-13
-0.00019659782
3.0500192e-05
2.0583394e-13
-0.00020293376
2.2879664e-05
6.4585233e-13
-0.00020696606
1.4454215e-05
1.0392971e-12
-0.00020852922
5.3761647e-06
1.4136597e-12
-0.00020750804
-4.1580979e-06
1.8012998e-12
-0.0002038476
-1.3908564e-05
2.194766e-12
-0.0001975624
-2.3595355e-05
2.5154676e-12
-0.0001887439
-3.2906973e-05
2.6766924e-12
-0.00017756583
-4.1511577e-05
2.6811041e-12
-0.0001642862
-4.9072071e-05
2.6567868e-12
-0.00014924546
-5.5264221e-05
2.7497038e-12
-0.00013285986
-5.9797019e-05
2.9482932e-12
-0.00011560964
-6.2434139e-05
3.0486134e-12
-9.8021733e-05
-6.3015031e-05
2.8769236e-12
-8.0647205e-05
-6.1474023e-05
2.5656628e-12
-6.4034162e-05
-5.7855807e-05
2.4967271e-12
-4.8697436e-05
-5.2326064e-05
2.8609643e-12
-3.5086895e-05
-4.51766e-05
3.3166938e-12
-2.355667e-05
-3.6825336e-05
3.3014742e-12
-1.4337865e-05
-2.781282e-05
3.1161837e-12
-7.5174845e-06
-1.8797479e-05
4.0044003e-12
-3.0267248e-06
-1.0548563e-05
3.4946808e-12
-6.4249404e-07
-3.9396872e-06
-1.9326794e-12
-4.7676504e-10
8.3487455e-12
-2.13294e-06
5.6584657e-06
-1.9851958e-11
-7.8910831e-06
1.809061e-05
1.4537373e-11
-1.6717414e-05
3.02727e-05
-4.5451262e-12
-2.8105749e-05
4.1400143e-05
-7.5187265e-12
-4.1585094e-05
5.1032264e-05
-4.289754e-12
-5.6714134e-05
5.8947807e-05
-3.7463818e-12
-7.307827e-05
6.5077109e-05
-3.7491781e-12
-9.0287071e-05
6.9444194e-05
-3.4448622e-12
-0.0001079713
7.2118973e-05
-3.07709e-12
-0.00012577923
7.3183961e-05
-2.7086348e-12
-0.00014337269
7.2714207e-05
-2.3184162e-12
-0.00016042336
7.0768151e-05
-1.9160589e-12
-0.00017661012
6.7387164e-05
-1.5173808e-12
-0.00019161806
6.2601415e-05
-1.1230767e-12
-0.00020513943
5.6439841e-05
-7.1649297e-13
-0.00021687675
4.8942191e-05
-2.7943573e-13
-0.00022654806
4.0171495e-05
1.8595902e-13
-0.00023389398
3.0225582e-05
6.462476e-13
-0.00023868641
1.9246648e-05
1.0544482e-12
-0.00024073833
7.4280828e-06
1.3890049e-12
-0.00023991427
-4.9821521e-06
1.678267e-12
-0.00023614093
-1.7681907e-05
1.9863426e-12
-0.00022941739
-3.0318904e-05
2.3186627e-12
-0.00021982408
-4.2500284e-05
2.5959302e-12
-0.00020752985
-5.380581e-05
2.7000741e-12
-0.00019279603
-6.3805889e-05
2.6087844e-12
-0.00017597664
-7.2083613e-05
2.4724528e-12
-0.00015751359
-7.8260077e-05
2.4976031e-12
-0.00013792608
-8.2021644e-05
2.7103674e-12
-0.00011779369
-8.3147425e-05
2.8744353e-12
-9.7732927e-05
-8.1534789e-05
2.7491464e-12
-7.8368105e-05
-7.7220631e-05
2.4539078e-12
-6.0297849e-05
-7.0396323e-05
2.4186121e-12
-4.4059511e-05
-6.1414939e-05
2.7993467e-12
-3.0094421e-05
-5.0790429e-05
3.1178086e-12
-1.8717258e-05
-3.9189985e-05
3.3245755e-12
-1.0093048e-05
-2.7421693e-05
4.6003409e-12
-4.2253088e-06
-1.6416306e-05
3.4400239e-12
-9.5848444e-07
-7.2065061e-06
-4.7956137e-12
-9.589717e-07
1.0366829e-11
-2.5450555e-06
8.203544e-06
-2.2635008e-11
-9.3288485e-06
2.4874385e-05
1.8832683e-11
-1.9615365e-05
4.0559221e-05
-4.0363174e-12
-3.2756849e-05
5.4541635e-05
-7.7607365e-12
-4.8175882e-05
6.6451301e-05
-4.0815467e-12
-6.5354079e-05
7.6126009e-05
-3.5901667e-12
-8.382212e-05
8.3545154e-05
-3.7218975e-12
-0.00010315059
8.8772672e-05
-3.472435e-12
-0.00012294158
9.1909965e-05
-3.1522018e-12
-0.00014282091
9.3063289e-05
-2.8389643e-12
-0.00016243129
9.2324588e-05
-2.4922308e-12
-0.00018142681
8.9763678e-05
-2.1068283e-12
-0.00019946917
8.5429527e-05
-1.7007187e-12
-0.00021622596
7.9358205e-05
-1.2940781e-12
-0.00023137121
7.1585095e-05
-8.9433134e-13
-0.00024458823
6.2159206e-05
-4.8725667e-13
-0.0002555745
5.1157764e-05
-4.7731224e-14
-0.00026404857
3.8699661e-05
4.3193417e-13
-0.00026975857
2.4956647e-05
9.1810797e-13
-0.00027249199
1.0161502e-05
1.3462342e-12
-0.00027208658
-5.387567e-06
1.6710017e-12
-0.00026844163
-2.1326864e-05
1.9334258e-12
-0.00026152965
-3.7230877e-05
2.2018707e-12
-0.0002514073
-5.2622638e-05
2.519137e-12
-0.0002382249
-6.6988218e-05
2.8090353e-12
-0.00022223356
-7.9797226e-05
2.9180286e-12
-0.00020378857
-9.052861e-05
2.788205e-12
-0.00018334756
-9.8701083e-05
2.581189e-12
-0.00016146236
-0.00010390685
2.5585905e-12
-0.00013876323
-0.00010584656
2.7842577e-12
-0.00011593531
-0.0001043627
2.9982967e-12
-9.3687522e-05
-9.9468424e-05
2.9209136e-12
-7.2715415e-05
-9.1368431e-05
2.6794484e-12
-5.3660731e-05
-8.0469626e-05
2.6469462e-12
-3.7071074e-05
-6.7380088e-05
2.8012295e-12
-2.3363941e-05
-5.2897121e-05
3.3047352e-12
-1.2799313e-05
-3.7986326e-05
5.2327415e-12
-5.464877e-06
-2.3750745e-05
3.4917e-12
-1.2772547e-06
-1.1394121e-05
-7.7680847e-12
-2.2362384e-06
1.2769396e-11
-2.9284817e-06
1.1132051e-05
-2.5343786e-11
-1.0673671e-05
3.2619552e-05
2.2671356e-11
-2.2336171e-05
5.2221725e-05
-3.7050123e-12
-3.7135968e-05
6.9341441e-05
-8.0943134e-12
-5.4394097e-05
8.3709434e-05
-3.9766936e-12
-7.3517607e-05
9.5249523e-05
-3.5311675e-12
-9.398427e-05
0.00010401182
-3.7901006e-12
-0.00011532792
0.00011011633
-3.5885855e-12
-0.00013712513
0.00011370717
-3.2967044e-12
-0.00015898347
0.00011492164
-3.0225834e-12
-0.00018053171
0.00011387283
-2.7239544e-12
-0.00020141207
0.00011064404
-2.3804125e-12
-0.00022127494
0.0001052924
-1.9912187e-12
-0.00023977609
9.7859351e-05
-1.5698398e-12
-0.00025657628
8.8385286e-05
-1.1411307e-12
-0.00027134336
7.6926287e-05
-7.2190658e-13
-0.00028375648
6.3570887e-05
-3.0275136e-13
-0.00029351232
4.8455504e-05
1.4914221e-13
-0.00030033311
3.1777434e-05
6.5468993e-13
-0.00030397625
1.3804639e-05
1.1792671e-12
-0.00030424546
-5.1183525e-06
1.635767e-12
-0.00030100287
-2.4569462e-05
1.9844128e-12
-0.00029418242
-4.405133e-05
2.2204809e-12
-0.00028380315
-6.3001901e-05
2.448462e-12
-0.00026998212
-8.0809257e-05
2.7480038e-12
-0.00025294541
-9.6833941e-05
3.0523357e-12
-0.00023303592
-0.0001104381
3.1780275e-12
-0.00021071594
-0.00012102107
3.0289554e-12
-0.00018656262
-0.00012806018
2.7689573e-12
-0.00016125478
-0.00013115439
2.7003151e-12
-0.00013554994
-0.00013006755
2.9115203e-12
-0.00011025145
-0.00012476692
3.1373148e-12
-8.6167363e-05
-0.00011545252
3.1071332e-12
-6.4063718e-05
-0.00010257327
2.8832132e-12
-4.4616658e-05
-8.682715e-05
2.6388325e-12
-2.8368523e-05
-6.9145258e-05
3.1096258e-12
-1.569315e-05
-5.0661704e-05
5.712147e-12
-6.7752201e-06
-3.2668678e-05
3.5852994e-12
-1.6070335e-06
-1.6562297e-05
-1.0726722e-11
-3.8432868e-06
1.5301568e-11
-3.2816989e-06
1.4413779e-05
-2.7915065e-11
-1.1915867e-05
4.1253695e-05
2.6097658e-11
-2.4855504e-05
6.5161367e-05
-3.5086997e-12
-4.1199906e-05
8.5685851e-05
-8.4857814e-12
-6.017629e-05
0.00010268582
-3.9295597e-12
-8.1122221e-05
0.00011619546
-3.5056515e-12
-0.00010346627
0.00012635587
-3.8821071e-12
-0.00012670883
0.0001333589
-3.7337675e-12
-0.00015040459
0.00013740293
-3.465454e-12
-0.00017414707
0.00013866412
-3.2096689e-12
-0.00019755587
0.00013728163
-2.937962e-12
-0.0002202666
0.00013335477
-2.6355874e-12
-0.00024192379
0.0001269496
-2.2904022e-12
-0.00026217658
0.00011811214
-1.8915771e-12
-0.00028067706
0.00010688577
-1.447304e-12
-0.00029708119
9.3330416e-05
-9.8721918e-13
-0.00031105184
7.7541538e-05
-5.4000345e-13
-0.00032226403
5.9667689e-05
-1.0304324e-13
-0.00033041208
3.9925492e-05
3.6215332e-13
-0.00033521885
1.8611409e-05
8.8011789e-13
-0.00033644701
-3.8901957e-06
1.4119917e-12
-0.00033391162
-2.7104858e-05
1.9447712e-12
-0.00032749586
-5.0467094e-05
2.3108507e-12
-0.00031716677
-7.3330984e-05
2.5201047e-12
-0.0003029922
-9.4983832e-05
2.6987002e-12
-0.00028515673
-0.00011466941
2.9607889e-12
-0.00026397509
-0.00013161974
3.2586906e-12
-0.00023990054
-0.00014509562
3.3896676e-12
-0.00021352577
-0.00015443496
3.2268886e-12
-0.00018557373
-0.00015910643
2.9325491e-12
-0.00015687653
-0.00015876475
2.8279753e-12
-0.0001283416
-0.00015330186
3.0139734e-12
-0.00010090604
-0.00014288808
3.2422043e-12
-7.5482455e-05
-0.00012799686
3.177831e-12
-5.2901134e-05
-0.00010940847
2.7128625e-12
-3.3855106e-05
-8.8191289e-05
2.9868419e-12
-1.885478e-05
-6.5662036e-05
6.105965e-12
-8.1982622e-06
-4.3325199e-05
3.5925811e-12
-1.961163e-06
-2.2799382e-05
-1.3882102e-11
-5.8044679e-06
1.8013528e-11
-3.6023015e-06
1.8016111e-05
-3.0308936e-11
-1.3044867e-05
5.0696232e-05
2.913333e-11
-2.7149279e-05
7.9265783e-05
-3.4162328e-12
-4.4907153e-05
0.00010344373
-8.9300573e-12
-6.546148e-05
0.00012324016
-3.961818e-12
-8.8087199e-05
0.00013882118
-3.5329319e-12
-0.00011216876
0.00015043744
-4.0038033e-12
-0.00013717737
0.00015836751
-3.9132342e-12
-0.00016264982
0.00016287539
-3.6835114e-12
-0.00018816986
0.00016418417
-3.4492929e-12
-0.00021335256
0.00016246433
-3.1877976e-12
-0.00023783194
0.00015783416
-2.9015774e-12
-0.00026125181
0.00015036948
-2.5916408e-12
-0.00028325972
0.00014012006
-2.2401588e-12
-0.00030350371
0.00012712976
-1.8264302e-12
-0.00032163154
0.00011145825
-1.3523897e-12
-0.00033729232
9.3202318e-05
-8.5073283e-13
-0.00035014025
7.2515624e-05
-3.631201e-13
-0.00035984066
4.96259e-05
1.0008162e-13
-0.0003660783
2.4849045e-05
5.6137358e-13
-0.00036856884
-1.3996566e-06
1.0347284e-12
-0.00036707122
-2.860248e-05
1.6945879e-12
-0.00036140625
-5.6132067e-05
2.2639894e-12
-0.00035147446
-8.326277e-05
2.6475755e-12
-0.00033727772
-0.00010918058
2.8390365e-12
-0.00031894081
-0.00013300632
2.9668867e-12
-0.00029673165
-0.00015382889
3.1774864e-12
-0.00027107718
-0.0001707501
3.4444758e-12
-0.00024257156
-0.00018294059
3.5575376e-12
-0.00021197321
-0.00018970478
3.3757833e-12
-0.00018018754
-0.00019055042
3.06225e-12
-0.00014823327
-0.00018525613
2.946512e-12
-0.00011719273
-0.00017392863
3.1298053e-12
-8.8148928e-05
-0.00015704066
3.2535189e-12
-6.2115367e-05
-0.00013544204
2.8261631e-12
-3.996648e-05
-0.00011034018
3.0280745e-12
-2.2377605e-05
-8.3250917e-05
6.6123117e-12
-9.7826879e-06
-5.5920119e-05
3.5526661e-12
-2.3546956e-06
-3.0227356e-05
-1.7416166e-11
-8.1591845e-06
2.1037484e-11
-3.8870486e-06
2.1903192e-05
-3.2496583e-11
-1.4048654e-05
6.0857806e-05
3.1771584e-11
-2.9192042e-05
9.4409175e-05
-3.395562e-12
-4.8215245e-05
0.00012246695
-9.3997689e-12
-7.0187814e-05
0.00014521273
-4.075064e-12
-9.4330023e-05
0.00016296339
-3.6310786e-12
-0.00011998816
0.00017609558
-4.1651048e-12
-0.00014660902
0.00018498837
-4.1174573e-12
-0.00017371581
0.00018998218
-3.9343765e-12
-0.00020088677
0.00019135513
-3.7412806e-12
-0.00022773699
0.00018931455
-3.5008735e-12
-0.00025390371
0.00018400087
-3.2185014e-12
-0.00027903509
0.00017550086
-2.9140157e-12
-0.0003027822
0.00016386717
-2.5904853e-12
-0.00032479384
0.00014914141
-2.2270355e-12
-0.00034471391
0.00013137832
-1.7939777e-12
-0.00036218113
0.00011066953
-1.2840554e-12
-0.000376831
8.7165501e-05
-7.3190953e-13
-0.00038830028
6.1095181e-05
-1.9413595e-13
-0.00039623414
3.2782901e-05
3.1436913e-13
-0.00040029625
2.6624536e-06
8.5080054e-13
-0.00040018375
-2.8714983e-05
1.3662753e-12
-0.00039564393
-6.067189e-05
1.9845105e-12
-0.00038649724
-9.2409463e-05
2.5789844e-12
-0.00037266251
-0.00012301531
2.9889647e-12
-0.00035418486
-0.00015148397
3.1694929e-12
-0.0003312637
-0.00017675006
3.2506284e-12
-0.00030427774
-0.00019773605
3.4007236e-12
-0.00027380291
-0.00021341542
3.6096282e-12
-0.00024061823
-0.00022288946
3.6715277e-12
-0.00020569513
-0.00022547352
3.4554388e-12
-0.00017016633
-0.00022078493
3.1477511e-12
-0.00013527314
-0.00020882183
3.074888e-12
-0.00010229329
-0.0001900205
3.1450101e-12
-7.2455913e-05
-0.00016527942
2.7697305e-12
-4.685328e-05
-0.00013594281
3.0915107e-12
-2.6361356e-05
-0.00010374285
7.3038755e-12
-1.1580438e-05
-7.070104e-05
3.5708497e-12
-2.8033136e-06
-3.9004459e-05
-2.142994e-11
-1.0962522e-05
2.4475013e-11
-4.1321149e-06
2.6035342e-05
-3.4440978e-11
-1.491409e-05
7.1639749e-05
3.3981719e-11
-3.0957118e-05
0.00011045221
-3.4308454e-12
-5.1080634e-05
0.00014259047
-9.8595602e-12
-7.4292244e-05
0.00016842434
-4.2453152e-12
-9.9766086e-05
0.00018843724
-3.799369e-12
-0.00012681664
0.00020314614
-4.3791871e-12
-0.00015487125
0.00021304298
-4.3503662e-12
-0.00018344387
0.00021855481
-4.1990318e-12
-0.00021211142
0.00022002269
-4.0529957e-12
-0.00024049335
0.00021769649
-3.8563608e-12
-0.00026823483
0.00021174236
-3.5972991e-12
-0.00029499341
0.00020225945
-3.292234e-12
-0.00032042894
0.0001893027
-2.9629209e-12
-0.00034419628
0.00017290876
-2.6178128e-12
-0.00036594062
0.00015312266
-2.2364467e-12
-0.00038529492
0.00013002384
-1.7807699e-12
-0.00040187988
0.00010375046
-1.233087e-12
-0.00041530631
7.4521608e-05
-6.2617354e-13
-0.00042518064
4.2657232e-05
-1.1853399e-14
-0.00043111383
8.595649e-06
5.899006e-13
-0.00043273609
-2.7092728e-05
1.0598774e-12
-0.00042971403
-6.3693947e-05
1.6197605e-12
-0.00042177606
-0.00010034744
2.2711214e-12
-0.0004087416
-0.00013604977
2.8962418e-12
-0.00039055527
-0.00016967031
3.3253885e-12
-0.0003673234
-0.00019998194
3.4948733e-12
-0.00033934971
-0.00022570975
3.5311111e-12
-0.00030716528
-0.00024559985
3.6100257e-12
-0.00027154676
-0.00025850799
3.7288976e-12
-0.00023351594
-0.00026350434
3.7021373e-12
-0.00019431493
-0.00025998595
3.4572159e-12
-0.00015535287
-0.00024778389
3.2209304e-12
-0.00011812523
-0.00022724814
3.0742678e-12
-8.4111807e-05
-0.00019929285
2.5666516e-12
-5.4665466e-05
-0.00016538916
3.0391903e-12
-3.0907332e-05
-0.00012750099
8.1142351e-12
-1.3644693e-05
-8.7963682e-05
3.6756617e-12
-3.3229908e-06
-4.9326135e-05
-2.6004236e-11
-1.4285541e-05
2.8452953e-11
-4.3334523e-06
3.0368831e-05
-3.6091309e-11
-1.5627788e-05
8.2934049e-05
3.5731585e-11
-3.2417898e-05
0.00012724232
-3.5246375e-12
-5.3460287e-05
0.00016363287
-1.0290616e-11
-7.771243e-05
0.00019267649
-4.4434303e-12
-0.00010431096
0.00021503578
-4.0152064e-12
-0.00013254486
0.00023138005
-4.6456111e-12
-0.00016182687
0.00024232499
-4.6272513e-12
-0.00019166581
0.00024839375
-4.4857378e-12
-0.00022164116
0.00024999805
-4.3676395e-12
-0.00025138088
0.00024743621
-4.2158483e-12
-0.00028054255
0.00024090403
-4.0043796e-12
-0.00030879811
0.00023051501
-3.7273936e-12
-0.00033582167
0.00021632626
-3.3949916e-12
-0.00036128006
0.00019836715
-3.0325895e-12
-0.00038482583
0.00017666843
-2.6569531e-12
-0.00040609243
0.00015129044
-2.2511239e-12
-0.00042469166
0.00012234969
-1.7706484e-12
-0.00044021372
9.0043674e-05
-1.1836e-12
-0.00045223052
5.4674033e-05
-5.0888732e-13
-0.00046030291
1.6668034e-05
1.8170787e-13
-0.00046399345
-2.3402188e-05
7.703257e-13
-0.00046288436
-6.4803034e-05
1.3230087e-12
-0.00045660329
-0.00010662852
1.9174419e-12
-0.00044485597
-0.00014779709
2.5847292e-12
-0.00042746602
-0.00018706026
3.2225895e-12
-0.00040442012
-0.00022302784
3.6519242e-12
-0.00037591551
-0.00025421436
3.797918e-12
-0.00034240449
-0.00027911087
3.7804896e-12
-0.00030462854
-0.00029628394
3.7667892e-12
-0.00026363331
-0.00030449957
3.757216e-12
-0.00022075507
-0.00030286419
3.6356614e-12
-0.00017757159
-0.00029096738
3.4300793e-12
-0.00013581497
-0.00026900476
3.1311466e-12
-9.7251907e-05
-0.00023785592
2.3618963e-12
-6.3544822e-05
-0.00019909624
2.8882629e-12
-3.6114681e-05
-0.00015493114
8.9845635e-12
-1.6028554e-05
-0.00010804981
3.8158268e-12
-3.9298345e-06
-6.1424823e-05
-3.1267214e-11
-1.8215409e-05
3.3113217e-11
-4.4872219e-06
3.485609e-05
-3.739815e-11
-1.6177318e-05
9.4624109e-05
3.7007214e-11
-3.3549888e-05
0.00014461489
-3.6783008e-12
-5.5314536e-05
0.00018539753
-1.0693441e-11
-8.039034e-05
0.0002177523
-4.6581355e-12
-0.00010788477
0.00024253021
-4.2514575e-12
-0.00013706721
0.00026056249
-4.9410152e-12
-0.00016734022
0.00027259801
-4.9461018e-12
-0.00019821113
0.00027926467
-4.810978e-12
-0.00022926554
0.00028105246
-4.6988737e-12
-0.00026014359
0.00027831427
-4.5664401e-12
-0.00029051957
0.00027128002
-4.3954591e-12
-0.00032008473
0.00026008017
-4.1695096e-12
-0.00034853307
0.00024477461
-3.8712037e-12
-0.00037554983
0.00022538391
-3.5053396e-12
-0.00040080207
0.00020192068
-3.1013655e-12
-0.00042393148
0.00017441986
-2.6856223e-12
-0.00044454918
0.00014296739
-2.2474614e-12
-0.0004622331
0.00010772759
-1.7356299e-12
-0.00047652851
6.8969443e-05
-1.1017268e-12
-0.00048695276
2.7092289e-05
-3.6349266e-13
-0.00049300552
-1.7349424e-05
3.7612494e-13
-0.00049418552
-6.3623037e-05
1.0444454e-12
-0.00049001571
-0.00011079833
1.6479694e-12
-0.00048007764
-0.00015773516
2.2667992e-12
-0.00046405556
-0.00020308234
2.9389849e-12
-0.00044178965
-0.00024529375
3.5627561e-12
-0.00041333566
-0.00028266836
3.9591453e-12
-0.00037902587
-0.00031342066
4.0538292e-12
-0.00033952326
-0.00033578656
3.9552187e-12
-0.00029585745
-0.00034816539
3.8110498e-12
-0.00024942974
-0.0003492919
3.6665251e-12
-0.00020197492
-0.0003384222
3.5258357e-12
-0.0001554728
-0.00031550688
3.2023733e-12
-0.00011201156
-0.00028131716
2.1953832e-12
-7.3617477e-05
-0.00023749033
2.723627e-12
-4.2076992e-05
-0.00018647163
9.9531515e-12
-1.8783998e-05
-0.00013134281
3.954496e-12
-4.6400091e-06
-7.5568773e-05
-3.7383446e-11
-2.2855456e-05
3.8579153e-11
-4.5902817e-06
3.9446411e-05
-3.8333839e-11
-1.6552684e-05
0.00010658647
3.7809332e-11
-3.4333339e-05
0.00016239555
-3.8757035e-12
-5.661087e-05
0.00020767508
-1.1068657e-11
-8.2277161e-05
0.0002434186
-4.898341e-12
-0.00011041815
0.00027067121
-4.5008723e-12
-0.00014028888
0.00029043322
-5.2400178e-12
-0.00017128546
0.0003035946
-5.2816605e-12
-0.00020291683
0.00031089604
-5.1685816e-12
-0.00023477762
0.00031291326
-5.0626665e-12
-0.00026652351
0.00031006016
-4.9275837e-12
-0.00029784937
0.00030260589
-4.763462e-12
-0.00032847052
0.00029070132
-4.5697192e-12
-0.00035810663
0.00027441072
-4.3228242e-12
-0.00038646815
0.00025374544
-3.996638e-12
-0.00041324475
0.00022869729
-3.5906088e-12
-0.00043809557
0.00019927068
-3.1366421e-12
-0.00046064142
0.00016551324
-2.670631e-12
-0.00048045921
0.00012754538
-2.1887412e-12
-0.00049707935
8.5589585e-05
-1.6347693e-12
-0.00050998709
4.0000026e-05
-9.5218667e-13
-0.00051862928
-8.7072325e-06
-1.5687325e-13
-0.00052242823
-5.9824079e-05
6.5262954e-13
-0.00052080452
-0.00011242204
1.3887555e-12
-0.0005132108
-0.00016532889
2.0429237e-12
-0.00049917812
-0.00021711502
2.6836434e-12
-0.0004783754
-0.00026609648
3.3399699e-12
-0.00045068051
-0.00031036326
3.9095153e-12
-0.00041625883
-0.00034784234
4.2245896e-12
-0.00037564078
-0.0003764046
4.2186062e-12
-0.00032978525
-0.00039402092
3.9871656e-12
-0.00028011184
-0.00039896532
3.7031171e-12
-0.00022848368
-0.00039005037
3.5096831e-12
-0.00017712612
-0.00036686443
3.163862e-12
-0.00012847763
-0.00032996566
1.9705587e-12
-8.4985564e-05
-0.00028098239
2.5498886e-12
-4.8878628e-05
-0.00022257858
1.1087927e-11
-2.1960819e-05
-0.00015826062
4.110485e-12
-5.4696763e-06
-9.2059871e-05
-4.4498201e-11
-2.8325177e-05
4.496098e-11
-4.6407181e-06
4.4087168e-05
-3.8896402e-11
-1.6747983e-05
0.0001186937
3.8135812e-11
-3.4756304e-05
0.00018040388
-4.0909057e-12
-5.7328449e-05
0.00023024723
-1.1400681e-11
-8.3339245e-05
0.0002694294
-5.1723439e-12
-0.00011185969
0.00029919166
-4.7776584e-12
-0.00014213472
0.00032070825
-5.5411249e-12
-0.00017355698
0.00033501688
-5.6123353e-12
-0.00020563939
0.00034297845
-5.5310634e-12
-0.00023798805
0.00034526192
-5.4468532e-12
-0.00027027695
0.00034234907
-5.3131442e-12
-0.00030222513
0.00033455408
-5.1339962e-12
-0.00033357645
0.00032205265
-4.9299886e-12
-0.00036408199
0.00030491626
-4.7010071e-12
-0.00039348451
0.00028314797
-4.4210535e-12
-0.00042150492
0.0002567177
-4.0574297e-12
-0.00044783023
0.00022559599
-3.6030458e-12
-0.00047210314
0.00018978615
-3.0904388e-12
-0.00049391344
0.00014935569
-2.563382e-12
-0.00051279199
0.00010446813
-2.0240767e-12
-0.00052820798
5.5416027e-05
-1.4159952e-12
-0.0005395713
2.6560873e-06
-6.7554358e-13
-0.00054624174
-5.3153641e-05
1.6776253e-13
-0.00054754732
-0.00011111646
1.0396705e-12
-0.00054281491
-0.0001700613
1.8370681e-12
-0.00053141572
-0.00022851421
2.5347918e-12
-0.00051282796
-0.00028468424
3.1795195e-12
-0.00048671729
-0.00033647393
3.78178e-12
-0.00045303239
-0.00038152725
4.2387533e-12
-0.00041210817
-0.00041732883
4.4007044e-12
-0.00036476268
-0.00044136641
4.2174267e-12
-0.00031236676
-0.00045136124
3.830563e-12
-0.00025686076
-0.00044555637
3.4971076e-12
-0.00020069377
-0.00042303143
3.0246706e-12
-0.0001466711
-0.00038398832
1.5970416e-12
-9.7717387e-05
-0.00032993611
2.2868561e-12
-5.659032e-05
-0.00026370566
1.2398005e-11
-2.5605321e-05