/*--------------------------------*- C++ -*----------------------------------*\
  =========                 |
  \\      /  F ield         | OpenFOAM: The Open Source CFD Toolbox
   \\    /   O peration     | Website:  https://openfoam.org
    \\  /    A nd           | Version:  7
     \\/     M anipulation  |
\*---------------------------------------------------------------------------*/
FoamFile
{
    version     2.0;
    format      ascii;
    class       volVectorField;
    location    "32";
    object      U;
}
// * * * * * * * * * * * * * * * * * * * * * * * * * * * * * * * * * * * * * //

dimensions      [0 1 -1 0 0 0 0];

internalField   nonuniform List<vector> 
16000
(
(6.6019103e-05 -6.7357992e-05 -4.2217563e-07)
(0.00016271731 -5.63691e-05 5.6775869e-06)
(0.00014190739 4.5764191e-07 1.9177312e-05)
(-5.0624324e-05 6.1888596e-05 3.6599823e-05)
(-0.00040997446 0.00011563015 5.4708404e-05)
(-0.00090902685 0.00015774342 7.1536825e-05)
(-0.0015177119 0.00018850456 8.5748982e-05)
(-0.0022068865 0.000209609 9.6529694e-05)
(-0.0029506016 0.0002228768 0.00010341862)
(-0.0037264647 0.00022981118 0.00010616885)
(-0.00451505 0.00023147712 0.00010465318)
(-0.0052990123 0.00022850387 9.8808571e-05)
(-0.0060621919 0.00022114731 8.8610324e-05)
(-0.0067888627 0.00020938308 7.4068969e-05)
(-0.0074632144 0.00019301387 5.5243277e-05)
(-0.0080691151 0.00017178076 3.2263519e-05)
(-0.0085901674 0.00014547167 5.3596285e-06)
(-0.0090100474 0.00011402173 -2.5110523e-05)
(-0.0093131001 7.7601276e-05 -5.8637101e-05)
(-0.0094851463 3.6687639e-05 -9.4542436e-05)
(-0.009514446 -7.8857411e-06 -0.00013197683)
(-0.0093927271 -5.4923347e-05 -0.000169929)
(-0.0091162209 -0.00010284329 -0.00020725247)
(-0.0086865993 -0.00014974994 -0.00024270949)
(-0.00811169 -0.00019351272 -0.00027503046)
(-0.0074058951 -0.00023188586 -0.00030298667)
(-0.0065902206 -0.0002626591 -0.00032547168)
(-0.0056918531 -0.00028382522 -0.00034158523)
(-0.004743258 -0.00029374814 -0.00035071273)
(-0.0037808156 -0.00029131402 -0.00035259271)
(-0.0028430641 -0.00027604884 -0.00034736536)
(-0.0019686563 -0.00024818776 -0.00033559784)
(-0.001194148 -0.00020869354 -0.00031828548)
(-0.00055166529 -0.00015925866 -0.00029683242)
(-6.6500751e-05 -0.00010240927 -0.0002730076)
(0.00024492488 -4.1760487e-05 -0.00024886903)
(0.00037893643 1.7847573e-05 -0.00022679953)
(0.00034977339 6.7079222e-05 -0.00020923557)
(0.00020617777 8.9866547e-05 -0.00019884799)
(5.7462891e-05 5.7415618e-05 -0.00018440252)
(5.7989399e-05 -0.00016706567 -6.6534776e-06)
(4.0859761e-05 -3.9980477e-05 -4.0027395e-07)
(-0.0002949906 0.00024855499 1.1233204e-05)
(-0.0010110358 0.0005621189 2.5599222e-05)
(-0.0020992376 0.0008474945 4.0584208e-05)
(-0.0035140956 0.00108312 5.4592371e-05)
(-0.0051946922 0.0012643012 6.649643e-05)
(-0.0070766345 0.0013940679 7.5544076e-05)
(-0.0090981542 0.001477961 8.1253472e-05)
(-0.011202309 0.0015215275 8.3324947e-05)
(-0.013337036 0.0015292113 8.15752e-05)
(-0.015454178 0.0015039758 7.5894297e-05)
(-0.017508149 0.0014473575 6.6223903e-05)
(-0.019454714 0.0013597783 5.2553229e-05)
(-0.021250153 0.0012410026 3.4928353e-05)
(-0.022850972 0.0010906594 1.3470445e-05)
(-0.024214222 0.00090877578 -1.1601464e-05)
(-0.025298427 0.00069627616 -3.9947359e-05)
(-0.026065049 0.00045541464 -7.108658e-05)
(-0.02648039 0.00019010731 -0.000104385)
(-0.026517807 -9.3864098e-05 -0.00013905194)
(-0.02615998 -0.00038877384 -0.00017415591)
(-0.025401162 -0.00068508907 -0.00020864098)
(-0.024249162 -0.00097175845 -0.00024137452)
(-0.022726743 -0.0012366942 -0.00027120074)
(-0.020872342 -0.0014674283 -0.00029700817)
(-0.018739908 -0.001651904 -0.00031780498)
(-0.016397716 -0.0017793473 -0.00033279583)
(-0.013926126 -0.0018411432 -0.0003414536)
(-0.011414314 -0.001831636 -0.00034357918)
(-0.0089560924 -0.0017487798 -0.00033934315)
(-0.0066450008 -0.0015945886 -0.00032930448)
(-0.0045688989 -0.001375386 -0.00031440379)
(-0.0028042306 -0.0011019603 -0.00029593235)
(-0.0014100237 -0.00078992073 -0.00027548056)
(-0.00042162863 -0.00046059442 -0.0002548618)
(0.00015578034 -0.00014256415 -0.00023599065)
(0.00035673213 0.00012231971 -0.00022088579)
(0.00027525349 0.00027114424 -0.0002116492)
(9.011395e-05 0.0002051052 -0.00019546297)
(1.912731e-06 -0.00014897464 -2.0439732e-05)
(-0.00025606042 0.00029700659 -1.182179e-05)
(-0.0010504641 0.0010236139 7.6532368e-08)
(-0.0023878382 0.0017975318 1.305664e-05)
(-0.0042394533 0.0025098984 2.6092893e-05)
(-0.0065455702 0.0031100538 3.8044399e-05)
(-0.00922513 0.0035809233 4.8084176e-05)
(-0.012190003 0.0039234315 5.5651598e-05)
(-0.015352991 0.0041461841 6.0365019e-05)
(-0.018631056 0.0042595902 6.1967717e-05)
(-0.021946077 0.0042728146 6.0286736e-05)
(-0.025224253 0.0041924752 5.5204297e-05)
(-0.028394917 0.0040224695 4.6644125e-05)
(-0.031389384 0.0037645236 3.4571124e-05)
(-0.034140212 0.0034191701 1.9001407e-05)
(-0.036581133 0.0029869397 1.9455404e-08)
(-0.038647741 0.0024696063 -2.2200932e-05)
(-0.040278934 0.0018713597 -4.7375303e-05)
(-0.041419044 0.0011998089 -7.5090084e-05)
(-0.042020492 0.00046673039 -0.00010479032)
(-0.042046757 -0.00031149951 -0.00013577816)
(-0.041475462 -0.0011138106 -0.00016721849)
(-0.040301309 -0.0019148743 -0.00019816431)
(-0.038538549 -0.0026858595 -0.00022759251)
(-0.036222747 -0.0033956761 -0.00025445479)
(-0.033411575 -0.0040126071 -0.00027774035)
(-0.030184422 -0.004506249 -0.00029654641)
(-0.026640641 -0.0048496357 -0.00031015042)
(-0.022896381 -0.0050213843 -0.00031807699)
(-0.019080021 -0.0050076826 -0.00032015249)
(-0.015326328 -0.0048039515 -0.00031654111)
(-0.011769568 -0.0044160705 -0.00030775812)
(-0.0085358337 -0.0038611636 -0.00029465749)
(-0.0057348849 -0.0031680999 -0.00027839385)
(-0.0034517121 -0.0023781072 -0.00026036228)
(-0.0017379848 -0.0015461839 -0.00024211792)
(-0.00060368059 -0.00074419263 -0.00022526912)
(-8.0279569e-06 -6.6369626e-05 -0.00021140769)
(0.0001554073 0.00036039327 -0.00020222388)
(7.3548523e-05 0.00035438127 -0.00018530867)
(-6.4686997e-05 5.041854e-05 -3.8691667e-05)
(-0.00060838831 0.0010457501 -2.6153732e-05)
(-0.0019305488 0.0023817262 -1.2172416e-05)
(-0.0039464493 0.0037565095 1.120421e-06)
(-0.0065890264 0.005015306 1.3708711e-05)
(-0.0097792112 0.0060800566 2.4833044e-05)
(-0.013417138 0.006920516 3.3956171e-05)
(-0.01739554 0.0075341083 4.0742814e-05)
(-0.021607748 0.0079313917 4.4957057e-05)
(-0.025950707 0.008127036 4.642706e-05)
(-0.030325861 0.0081347647 4.5022006e-05)
(-0.03463881 0.0079649986 4.0635534e-05)
(-0.038798375 0.0076243722 3.3180586e-05)
(-0.042715694 0.0071165056 2.2594921e-05)
(-0.04630376 0.0064435514 8.8549065e-06)
(-0.049477677 0.0056081424 -8.004944e-06)
(-0.052155732 0.0046154478 -2.7869332e-05)
(-0.054261295 0.0034751113 -5.0519241e-05)
(-0.055725422 0.0022028898 -7.5611655e-05)
(-0.056490024 0.00082185282 -0.00010266528)
(-0.056511323 -0.00063696822 -0.00013105544)
(-0.055763426 -0.0021345951 -0.00016001709)
(-0.054241651 -0.0036248128 -0.00018866822)
(-0.051965302 -0.0050556172 -0.00021604194)
(-0.04897965 -0.0063713887 -0.00024113538)
(-0.045356798 -0.0075157146 -0.00026297098)
(-0.04119518 -0.0084347255 -0.0002806663)
(-0.036617524 -0.0090807489 -0.00029350663)
(-0.031767135 -0.0094160245 -0.00030101287)
(-0.026802515 -0.0094161959 -0.00030299644)
(-0.021890417 -0.0090732984 -0.00029959398)
(-0.017197567 -0.0083980381 -0.00029127711)
(-0.012881379 -0.0074212984 -0.00027883521)
(-0.0090800484 -0.0061950262 -0.00026333185)
(-0.0059024824 -0.0047929306 -0.00024603693)
(-0.0034185042 -0.0033118114 -0.00022834145)
(-0.0016495367 -0.0018745283 -0.00021167133)
(-0.00055979755 -0.00063471002 -0.00019741731)
(-5.0110973e-05 0.00021499667 -0.00018681424)
(3.8094902e-05 0.0004138333 -0.00016800585)
(-0.00013086676 0.00044555854 -5.820796e-05)
(-0.00097095456 0.0022426785 -4.1143773e-05)
(-0.0028462195 0.0043591714 -2.4261348e-05)
(-0.0055648212 0.0064572 -9.8290094e-06)
(-0.0090094487 0.0083534627 3.0895767e-06)
(-0.013075465 0.0099514403 1.4069656e-05)
(-0.017642281 0.011211738 2.2848247e-05)
(-0.022584679 0.012129575 2.9320509e-05)
(-0.027779628 0.012717517 3.3409265e-05)
(-0.033108105 0.01299414 3.5041704e-05)
(-0.038455483 0.01297736 3.4140542e-05)
(-0.043711113 0.012681209 3.0617342e-05)
(-0.048767502 0.012115125 2.4375197e-05)
(-0.053519612 0.011284984 1.5320595e-05)
(-0.057864677 0.010195257 3.3822305e-06)
(-0.061702769 0.008851739 -1.1465358e-05)
(-0.064938203 0.0072644382 -2.9175516e-05)
(-0.067481767 0.0054502909 -4.9603027e-05)
(-0.069253675 0.0034354357 -7.2480171e-05)
(-0.070187048 0.0012568449 -9.7398314e-05)
(-0.070231699 -0.0010368492 -0.00012379819)
(-0.069357991 -0.0033854731 -0.00015097139)
(-0.067560438 -0.0057183933 -0.0001780771)
(-0.064860776 -0.0079566829 -0.00020417369)
(-0.061310181 -0.010016298 -0.0002282666)
(-0.056990348 -0.011812184 -0.00024936986)
(-0.052013138 -0.013263134 -0.0002665776)
(-0.046518546 -0.01429714 -0.00027913963)
(-0.040670837 -0.014856887 -0.00028653318)
(-0.034652756 -0.014904994 -0.00028852203)
(-0.028657893 -0.014428602 -0.00028519381)
(-0.022881405 -0.013442959 -0.00027696936)
(-0.01750948 -0.01199382 -0.00026458186)
(-0.012708052 -0.010158717 -0.00024902741)
(-0.0086114609 -0.0080475031 -0.00023148988)
(-0.0053117541 -0.0058029598 -0.00021325132)
(-0.0028485246 -0.0036024713 -0.00019562701)
(-0.0012000375 -0.0016605419 -0.000179881)
(-0.00028880778 -0.00023378193 -0.00016673538)
(-2.4695757e-06 0.00035046396 -0.00014550138)
(-0.00019286553 0.0010313013 -7.6688209e-05)
(-0.0013239889 0.0038925215 -5.4785365e-05)
(-0.0037518615 0.006967984 -3.458056e-05)
(-0.0071733051 0.0099108029 -1.8487049e-05)
(-0.011414812 0.012527382 -4.6913113e-06)
(-0.016341486 0.014714489 6.6714917e-06)
(-0.02180962 0.016430489 1.5588421e-05)
(-0.027675875 0.017672006 2.217407e-05)
(-0.033802391 0.018455237 2.6506867e-05)
(-0.040056838 0.018803203 2.8613529e-05)
(-0.046311824 0.018738069 2.8471335e-05)
(-0.052444043 0.018277399 2.6009361e-05)
(-0.058333335 0.017433428 2.1118028e-05)
(-0.063862039 0.016214488 1.3667138e-05)
(-0.068914967 0.014627818 3.5301654e-06)
(-0.073380175 0.012683105 -9.3870378e-06)
(-0.077150584 0.010396207 -2.5115063e-05)
(-0.080126423 0.0077926351 -4.3589553e-05)
(-0.082218362 0.0049104443 -6.4622201e-05)
(-0.083351189 0.0018022823 -8.7877101e-05)
(-0.083467793 -0.0014636062 -0.0001128557)
(-0.082533234 -0.0048035754 -0.00013889413)
(-0.080538625 -0.0081200431 -0.00016517478)
(-0.077504559 -0.011304331 -0.00019075631)
(-0.073483737 -0.014240826 -0.00021462073)
(-0.068562511 -0.016812383 -0.00023573676)
(-0.062860986 -0.018906772 -0.00025313507)
(-0.056531384 -0.02042385 -0.00026598907)
(-0.0497544 -0.021283042 -0.00027369297)
(-0.042733386 -0.021430606 -0.0002759278)
(-0.035686344 -0.020846117 -0.00027270527)
(-0.028835907 -0.019547666 -0.00026438123)
(-0.022397704 -0.017595382 -0.00025163471)
(-0.016567759 -0.015093161 -0.00023541403)
(-0.011509861 -0.012188858 -0.00021685342)
(-0.0073438942 -0.0090736741 -0.0001971785)
(-0.0041345362 -0.0059816732 -0.00017766513)
(-0.0018816013 -0.0031890361 -0.00015954888)
(-0.00053619292 -0.0010143219 -0.00014315555)
(-4.1244818e-05 0.00015894751 -0.00011906277)
(-0.00025011691 0.0017985664 -9.2174955e-05)
(-0.0016597739 0.0059841302 -6.5285871e-05)
(-0.0046244583 0.010198602 -4.1599449e-05)
(-0.0087321719 0.014107004 -2.3544578e-05)
(-0.013751606 0.017522319 -8.506171e-06)
(-0.019515079 0.0203471 3.632812e-06)
(-0.025854141 0.022545907 1.308418e-05)
(-0.032607002 0.024121987 2.0164014e-05)
(-0.039621871 0.025098094 2.5094532e-05)
(-0.046754996 0.025503164 2.7993979e-05)
(-0.053868781 0.025364216 2.8887977e-05)
(-0.060830225 0.024702526 2.7717297e-05)
(-0.067509615 0.023533163 2.4353414e-05)
(-0.073779739 0.021866969 1.8622272e-05)
(-0.079515847 0.019714116 1.0334036e-05)
(-0.084596469 0.017088485 -6.8282086e-07)
(-0.088905095 0.014012229 -1.4544768e-05)
(-0.092332669 0.010520006 -3.1275967e-05)
(-0.094780787 0.0066624799 -5.0773133e-05)
(-0.096165432 0.0025088064 -7.2775601e-05)
(-0.096421087 -0.0018521431 -9.6844071e-05)
(-0.095504997 -0.0063119895 -0.00012235255)
(-0.093401402 -0.010744583 -0.00014849449)
(-0.09012545 -0.015009416 -0.00017431004)
(-0.085726475 -0.018956661 -0.0001987319)
(-0.080290314 -0.022433816 -0.00022065074)
(-0.073940259 -0.025293738 -0.00023899554)
(-0.066836223 -0.027403758 -0.00025282201)
(-0.059171739 -0.028655363 -0.00026139975)
(-0.051168491 -0.028973811 -0.00026428798)
(-0.043068231 -0.02832692 -0.00026138927)
(-0.035122183 -0.026732278 -0.00025297149)
(-0.027578332 -0.024262237 -0.00023965226)
(-0.020667345 -0.021046296 -0.00022234451)
(-0.014588348 -0.017270893 -0.00020216564)
(-0.0094958149 -0.013177224 -0.00018033582)
(-0.0054864861 -0.0090579312 -0.00015815963)
(-0.0025879529 -0.0052522177 -0.00013692807)
(-0.00078447039 -0.0021405342 -0.00011664503)
(-7.6873998e-05 -0.00016053892 -8.9439272e-05)
(-0.00030295634 0.0027365256 -0.00010299856)
(-0.0019754993 0.0084980945 -7.102877e-05)
(-0.0054521421 0.014028566 -4.38809e-05)
(-0.010217973 0.019021377 -2.3736182e-05)
(-0.01598518 0.023311082 -7.2408438e-06)
(-0.022552796 0.026818184 5.948176e-06)
(-0.02972718 0.029522418 1.6245455e-05)
(-0.037328199 0.031439765 2.4148873e-05)
(-0.045190973 0.032603392 3.0008523e-05)
(-0.053161876 0.033050363 3.4021313e-05)
(-0.061095228 0.032813683 3.6250357e-05)
(-0.068850836 0.031918816 3.6638503e-05)
(-0.076292114 0.030383776 3.5029237e-05)
(-0.08328496 0.028221852 3.1195687e-05)
(-0.089697518 0.025446012 2.4875516e-05)
(-0.095400856 0.022074165 1.5810287e-05)
(-0.10027054 0.018134565 3.7878643e-06)
(-0.104189 0.013670799 -1.131409e-05)
(-0.10704868 0.0087459276 -2.9486166e-05)
(-0.10875569 0.0034454469 -5.054998e-05)
(-0.10923401 -0.0021211621 -7.4129563e-05)
(-0.10842995 -0.0078205154 -9.9637031e-05)
(-0.1063168 -0.013497142 -0.00012627168)
(-0.10289941 -0.018977276 -0.00015304368)
(-0.098218394 -0.024074595 -0.00017881735)
(-0.092353528 -0.028597952 -0.00020237756)
(-0.085426007 -0.032360972 -0.00022251539)
(-0.077598876 -0.035193182 -0.0002381257)
(-0.069075148 -0.036952146 -0.00024830686)
(-0.060093106 -0.037535836 -0.0002524503)
(-0.050918461 -0.036894247 -0.00025030806)
(-0.041833346 -0.03503921 -0.00024202768)
(-0.033122474 -0.032051377 -0.00022814704)
(-0.025057295 -0.02808364 -0.00020954545)
(-0.017879649 -0.023360671 -0.0001873485)
(-0.011786479 -0.018174993 -0.00016281839)
(-0.0069140653 -0.012880397 -0.00013735439)
(-0.003323836 -0.0078822637 -0.00011238272)
(-0.001036863 -0.0036261497 -8.7675138e-05)
(-0.00011093559 -0.0006070201 -5.7234831e-05)
(-0.00035169322 0.0038338181 -0.00010769544)
(-0.0022696857 0.011410352 -7.0539955e-05)
(-0.0062274782 0.018427288 -4.0062003e-05)
(-0.011614746 0.024619941 -1.7811508e-05)
(-0.018090313 0.029857542 2.5250531e-07)
(-0.025421015 0.034089859 1.4681901e-05)
(-0.033388706 0.037320693 2.6076164e-05)
(-0.041795659 0.039585227 3.5096113e-05)
(-0.050464951 0.040931421 4.2202799e-05)
(-0.059234569 0.041407217 4.765702e-05)
(-0.067952649 0.041053164 5.1546425e-05)
(-0.07647401 0.039899647 5.380438e-05)
(-0.084657564 0.037967823 5.423572e-05)
(-0.092364677 0.035273255 5.2550445e-05)
(-0.099458551 0.031831276 4.8403257e-05)
(-0.10580458 0.027663172 4.1437822e-05)
(-0.11127164 0.022802455 3.133459e-05)
(-0.11573419 0.017300624 1.7860467e-05)
(-0.11907512 0.011231984 9.1787601e-07)
(-0.12118937 0.004697195 -1.9409902e-05)
(-0.12198804 -0.0021747076 -4.282141e-05)
(-0.12140308 -0.0092260628 -6.8775248e-05)
(-0.11939243 -0.016272186 -9.6479345e-05)
(-0.11594545 -0.023105277 -0.00012491019)
(-0.11108819 -0.029500566 -0.00015285121)
(-0.10488837 -0.035224924 -0.00017895877)
(-0.09745928 -0.040047896 -0.00020185174)
(-0.088962 -0.043754906 -0.00022021885)
(-0.07960523 -0.0461621 -0.0002329335)
(-0.06964187 -0.047131942 -0.00023916247)
(-0.059361851 -0.046588341 -0.00023845353)
(-0.04908094 -0.044529858 -0.00023078914)
(-0.03912574 -0.041039487 -0.00021659733)
(-0.029815733 -0.036289752 -0.00019671357)
(-0.021444137 -0.030542373 -0.00017228644)
(-0.014259507 -0.024142631 -0.00014466107)
(-0.0084461206 -0.017509194 -0.00011539529)
(-0.0041057536 -0.011119103 -8.6129386e-05)
(-0.0013000787 -0.0054896948 -5.6469866e-05)
(-0.00014466067 -0.0011817415 -2.2517144e-05)
(-0.00039639234 0.0050786718 -0.0001049464)
(-0.0025408044 0.014693479 -6.2466854e-05)
(-0.0069442121 0.023357966 -2.8860664e-05)
(-0.012909244 0.030860794 -4.559096e-06)
(-0.020045652 0.037117331 1.5120664e-05)
(-0.028090303 0.042116886 3.0927924e-05)
(-0.036802144 0.045895765 4.3632823e-05)
(-0.045967191 0.048514795 5.4042173e-05)
(-0.055397826 0.05004134 6.2711855e-05)
(-0.064925191 0.050537283 6.9951894e-05)
(-0.074393047 0.050052574 7.5861279e-05)
(-0.083653265 0.048623466 8.0351973e-05)
(-0.092562422 0.046274516 8.3179059e-05)
(-0.10097952 0.0430233 8.3978465e-05)
(-0.10876483 0.03888681 8.2310454e-05)
(-0.11577974 0.033888612 7.7708148e-05)
(-0.12188759 0.028066003 6.9730295e-05)
(-0.12695535 0.021476593 5.8016839e-05)
(-0.13085608 0.014203876 4.2345124e-05)
(-0.13347222 0.0063614898 2.2684002e-05)
(-0.13469972 -0.0019040809 -7.5880027e-07)
(-0.13445278 -0.010412647 -2.7507723e-05)
(-0.13266956 -0.018951368 -5.6790779e-05)
(-0.12931851 -0.027278391 -8.7556568e-05)
(-0.12440505 -0.035129019 -0.00011850296)
(-0.11797823 -0.042224869 -0.00014814031)
(-0.11013682 -0.048286143 -0.0001748834)
(-0.10103392 -0.053046878 -0.00019716764)
(-0.090879052 -0.056272729 -0.00021358061)
(-0.079936742 -0.057780316 -0.00022299453)
(-0.068520616 -0.057456673 -0.00022468214)
(-0.056982419 -0.055276902 -0.00021839823)
(-0.045695945 -0.051317886 -0.00020441459)
(-0.035036648 -0.045766086 -0.00018349882)
(-0.025358967 -0.038918046 -0.00015682534)
(-0.016973699 -0.031173312 -0.00012585425)
(-0.010123128 -0.023020486 -9.2362483e-05)
(-0.0049573024 -0.015016286 -5.828376e-05)
(-0.0015839103 -0.0077601713 -2.3111731e-05)
(-0.00018000418 -0.0018919998 1.4753824e-05)
(-0.00043687304 0.0064585661 -9.3548968e-05)
(-0.0027868512 0.018316894 -4.5570653e-05)
(-0.0075958976 0.028778311 -9.0862626e-06)
(-0.014088636 0.037694893 1.7167633e-05)
(-0.0218308 0.045038194 3.8471419e-05)
(-0.030532258 0.050846255 5.5763731e-05)
(-0.039931304 0.055195673 6.9973748e-05)
(-0.049799492 0.058179099 8.203945e-05)
(-0.059940113 0.059887903 9.25972e-05)
(-0.070179092 0.060401129 0.000101993)
(-0.080357591 0.059780176 0.00011032509)
(-0.090326474 0.058068261 0.00011747297)
(-0.099942044 0.055293671 0.00012313148)
(-0.10906301 0.051475656 0.00012685172)
(-0.11754868 0.046631939 0.00012808761)
(-0.12525813 0.040786878 0.00012624771)
(-0.13205046 0.033979536 0.00012075215)
(-0.13778585 0.026271119 0.00011109368)
(-0.14232749 0.017751394 9.6900965e-05)
(-0.14554447 0.0085438151 7.8001821e-05)
(-0.14731567 -0.0011908522 5.4482159e-05)
(-0.14753457 -0.011252625 2.6719684e-05)
(-0.14611539 -0.021402741 -4.555184e-06)
(-0.14300047 -0.031366217 -3.8281536e-05)
(-0.13816821 -0.040837671 -7.3077636e-05)
(-0.13164193 -0.049490578 -0.00010729794)
(-0.12349837 -0.056990409 -0.00013912476)
(-0.11387528 -0.063011783 -0.00016669192)
(-0.10297652 -0.067259321 -0.00018823351)
(-0.091073494 -0.069491262 -0.000202244)
(-0.078501366 -0.069544167 -0.00020763024)
(-0.065648968 -0.067356318 -0.00020383276)
(-0.052941999 -0.062986897 -0.00019089712)
(-0.040820047 -0.056628 -0.00016947939)
(-0.029709656 -0.048607152 -0.00014076772)
(-0.019996214 -0.039379398 -0.00010635873)
(-0.011992168 -0.029509497 -6.8304658e-05)
(-0.0059060241 -0.019644347 -2.8913372e-05)
(-0.0018995938 -0.010479295 1.2395314e-05)
(-0.00021911033 -0.0027504909 5.4734205e-05)
(-0.00047276054 0.0079598494 -7.2412347e-05)
(-0.0030053057 0.022246654 -1.8729603e-05)
(-0.008175479 0.034640693 2.0347354e-05)
(-0.015139633 0.045066366 4.8427958e-05)
(-0.023425065 0.053560138 7.1343038e-05)
(-0.032718077 0.060216874 9.0213638e-05)
(-0.042738964 0.065160484 0.00010611797)
(-0.053246904 0.068521195 0.00012011227)
(-0.064037857 0.070418846 0.00013290128)
(-0.074934213 0.070952885 0.000144856)
(-0.08577628 0.070198326 0.00015606397)
(-0.096415791 0.068206582 0.00016636307)
(-0.10671077 0.065010059 0.00017537888)
(-0.11652169 0.060629325 0.00018256802)
(-0.1257089 0.055081761 0.00018726647)
(-0.13413105 0.048390735 0.00018874353)
(-0.14164457 0.040594615 0.00018626174)
(-0.14810397 0.0317551 0.00017914264)
(-0.15336314 0.021964574 0.00016683677)
(-0.15727761 0.011352261 0.00014899505)
(-0.15970797 8.9018591e-05 0.00012553793)
(-0.16052487 -0.011609431 9.6726209e-05)
(-0.15961524 -0.023481678 6.3188931e-05)
(-0.15689037 -0.035221768 2.5968662e-05)
(-0.15229552 -0.046484001 -1.3492409e-05)
(-0.14582078 -0.056891669 -5.3394891e-05)
(-0.13751245 -0.06605051 -9.1667465e-05)
(-0.127484 -0.073567399 -0.0001260952)
(-0.1159251 -0.079074228 -0.0001544852)
(-0.10310684 -0.082256211 -0.00017485741)
(-0.089381203 -0.082882813 -0.00018564021)
(-0.075173026 -0.080838425 -0.00018584442)
(-0.060963161 -0.076148986 -0.00017518751)
(-0.047263079 -0.069000341 -0.00015414125)
(-0.034583082 -0.059744595 -0.00012387348)
(-0.023397391 -0.048892493 -8.6125282e-05)
(-0.014103442 -0.037091888 -4.3275704e-05)
(-0.0069814319 -0.025092616 1.9096836e-06)
(-0.002259006 -0.013702945 5.0057166e-05)
(-0.00026414604 -0.0037760394 9.7614415e-05)
(-0.0005035509 0.0095674374 -4.0566841e-05)
(-0.0031932748 0.026445176 1.904868e-05)
(-0.0086754018 0.04089208 6.0404484e-05)
(-0.016048489 0.052912561 9.0170079e-05)
(-0.024807356 0.062615388 0.00011467401)
(-0.034618407 0.07015919 0.00013521259)
(-0.045186778 0.07572137 0.00015300383)
(-0.056261482 0.07947497 0.000169211)
(-0.067632947 0.081572511 0.00018459745)
(-0.079121685 0.082137057 0.00019955106)
(-0.09056884 0.081259482 0.00021414167)
(-0.10182882 0.07900074 0.00022815916)
(-0.11276332 0.075397861 0.00024115333)
(-0.12323665 0.070472421 0.00025247852)
(-0.13311235 0.064240335 0.00026134245)
(-0.14225073 0.056722052 0.00026686075)
(-0.15050756 0.047952497 0.00026811841)
(-0.15773342 0.037990328 0.00026423885)
(-0.16377424 0.026926302 0.00025445999)
(-0.16847273 0.014890607 0.00023821463)
(-0.17167128 0.0020590386 0.00021521253)
(-0.17321656 -0.011342245 0.0001855298)
(-0.17296589 -0.025033748 0.00014965445)
(-0.17079567 -0.038682224 0.00010855739)
(-0.16661239 -0.051903592 6.3701405e-05)
(-0.16036546 -0.06427035 1.701987e-05)
(-0.15206153 -0.075324576 -2.9154941e-05)
(-0.14177935 -0.084597488 -7.2218841e-05)
(-0.12968345 -0.091636007 -0.00010947593)
(-0.11603433 -0.09603591 -0.00013836201)
(-0.10119272 -0.097479862 -0.00015669135)
(-0.085615059 -0.095777075 -0.00016289659)
(-0.06983803 -0.090899807 -0.00015622545)
(-0.054451409 -0.083010902 -0.00013685249)
(-0.040061175 -0.072476722 -0.00010585815)
(-0.027246479 -0.059861695 -6.5114926e-05)
(-0.016507701 -0.045903604 -1.7373576e-05)
(-0.0082137691 -0.031469859 3.4054048e-05)
(-0.0026743198 -0.017501839 8.9819856e-05)
(-0.00031729589 -0.0049938546 0.00014353793)
(-0.00052868055 0.011264642 2.8177416e-06)
(-0.0033477376 0.030871089 6.8608706e-05)
(-0.0090880493 0.047474028 0.0001119067)
(-0.016801579 0.061164115 0.00014320571)
(-0.025956879 0.072128362 0.00016927204)
(-0.036204168 0.080594871 0.00019156902)
(-0.047236277 0.086799821 0.00021144567)
(-0.058794223 0.090963725 0.00023016244)
(-0.070664631 0.093275724 0.00024853411)
(-0.082667693 0.093885628 0.00026696049)
(-0.094646965 0.092902486 0.00028549025)
(-0.10646124 0.090398285 0.00030386247)
(-0.11797778 0.086415345 0.00032154801)
(-0.12906685 0.080976075 0.00033779407)
(-0.13959744 0.074093889 0.00035167206)
(-0.14943397 0.065784393 0.00036213099)
(-0.15843399 0.056076229 0.00036805863)
(-0.16644665 0.045021265 0.00036835222)
(-0.17331219 0.032704003 0.00036199905)
(-0.17886248 0.019250186 0.00034816597)
(-0.18292313 0.0048345423 0.00032629545)
(-0.18531733 -0.010312559 0.00029620718)
(-0.18587194 -0.025899789 0.00025818286)
(-0.18442614 -0.041572051 0.0002130508)
(-0.18084311 -0.056910825 0.00016223269)
(-0.17502462 -0.071439319 0.00010775246)
(-0.16692823 -0.084633954 5.2188797e-05)
(-0.15658623 -0.095943754 -1.4401492e-06)
(-0.14412457 -0.10481879 -4.9864609e-05)
(-0.12977945 -0.11074792 -8.9818329e-05)
(-0.11390797 -0.11330449 -0.00011834264)
(-0.096989344 -0.11219668 -0.00013310681)
(-0.079612806 -0.10731671 -0.00013269971)
(-0.062450268 -0.098781299 -0.00011683358)
(-0.04621467 -0.086954969 -8.6387125e-05)
(-0.031607739 -0.072449888 -4.3318079e-05)
(-0.019254148 -0.056099247 9.2189243e-06)
(-0.0096331361 -0.038903917 6.7271525e-05)
(-0.0031578287 -0.021961648 0.00013149921)
(-0.00038078504 -0.0064355914 0.00019252647)
(-0.00054759895 0.013033161 5.8408838e-05)
(-0.0034658566 0.035479355 0.00013062558)
(-0.0094063939 0.054322943 0.00017551066)
(-0.01738639 0.069745254 0.00020818454)
(-0.026854425 0.082015853 0.0002357835)
(-0.03744814 0.091436711 0.00025992812)
(-0.048850758 0.098307103 0.00028208988)
(-0.060797304 0.10289908 0.00030361818)
(-0.073072155 0.10544203 0.00032537476)
(-0.085496565 0.10611557 0.00034776993)
(-0.097917918 0.10504931 0.00037083166)
(-0.11020097 0.10232795 0.00039424966)
(-0.12222038 0.097999995 0.00041741685)
(-0.13385447 0.092088756 0.00043947239)
(-0.14498011 0.084604344 0.00045934682)
(-0.15546853 0.075555786 0.00047581243)
(-0.1651821 0.064962738 0.00048754209)
(-0.17397171 0.052866559 0.0004931795)
(-0.18167526 0.039340755 0.00049142248)
(-0.18811712 0.024500893 0.00048111991)
(-0.19310907 0.0085140157 0.00046138102)
(-0.19645323 -0.0083925541 0.00043169451)
(-0.19794725 -0.025923349 0.00039204582)
(-0.19739261 -0.043708845 0.00034303029)
(-0.19460645 -0.061302494 0.00028594161)
(-0.18943727 -0.078182536 0.00022282158)
(-0.1817845 -0.093760644 0.00015645043)
(-0.17162145 -0.10739968 9.0257973e-05)
(-0.15902005 -0.11844263 2.8141191e-05)
(-0.14417479 -0.12625401 -2.5815435e-05)
(-0.12742188 -0.13027324 -6.7703634e-05)
(-0.10924878 -0.13007706 -9.420599e-05)
(-0.090288529 -0.12544454 -0.00010300815)
(-0.071294699 -0.11641493 -9.3129893e-05)
(-0.053096427 -0.10332681 -6.5069592e-05)
(-0.036536429 -0.086827848 -2.077408e-05)
(-0.022388436 -0.0678489 3.6190441e-05)
(-0.01126876 -0.047540418 0.00010113441)
(-0.0037218426 -0.027182715 0.00017470524)
(-0.00045691145 -0.0081393799 0.00024440247)
(-0.0005598443 0.014853255 0.00012668671)
(-0.0035453365 0.040221756 0.00020558369)
(-0.0096248056 0.061370749 0.00025168723)
(-0.017792798 0.078574491 0.00028557075)
(-0.027484119 0.0921876 0.00031466523)
(-0.038327147 0.10258891 0.00034073715)
(-0.049997914 0.11014413 0.00036537235)
(-0.062227184 0.11518031 0.00039000296)
(-0.074798387 0.11797043 0.00041553636)
(-0.087534997 0.1187269 0.00044239578)
(-0.10028944 0.11760242 0.00047059342)
(-0.11293386 0.11469628 0.00049977555)
(-0.12535202 0.11006438 0.00052926299)
(-0.1374324 0.10373135 0.00055809078)
(-0.14906223 0.09570357 0.00058504875)
(-0.16012258 0.085982143 0.00060872672)
(-0.17048403 0.074575398 0.00062756888)
(-0.1800032 0.061510776 0.00063994113)
(-0.18852 0.046846247 0.00064421485)
(-0.19585592 0.03068147 0.00063886884)
(-0.20181369 0.013168873 0.00062261024)
(-0.20617871 -0.005475333 0.00059451222)
(-0.20872305 -0.024960504 0.00055416231)
(-0.20921258 -0.044912135 0.00050181141)
(-0.20741812 -0.064864825 0.00043851033)
(-0.20313135 -0.084259618 0.00036621192)
(-0.19618602 -0.10244826 0.00028781445)
(-0.18648425 -0.1187074 0.0002071179)
(-0.17402708 -0.13226598 0.00012866666)
(-0.15894665 -0.14234848 5.7461373e-05)
(-0.14153582 -0.14823505 -1.4583833e-06)
(-0.1222691 -0.14933662 -4.3532151e-05)
(-0.10180727 -0.14527865 -6.5238323e-05)
(-0.080978709 -0.13598178 -6.4595297e-05)
(-0.060733894 -0.12172369 -4.145836e-05)
(-0.042074307 -0.10316587 2.4049065e-06)
(-0.025950474 -0.081333221 6.3051573e-05)
(-0.013148239 -0.057540524 0.00013496458)
(-0.0043785966 -0.033279396 0.00021875678)
(-0.00054808321 -0.01014984 0.00029870231)
(-0.00056512241 0.016704128 0.00020792224)
(-0.0035848207 0.045047793 0.00029375879)
(-0.0097399797 0.06854607 0.00034070485)
(-0.018014591 0.087565863 0.00037562413)
(-0.027835508 0.10254738 0.00040616102)
(-0.038824717 0.11394785 0.00043421513)
(-0.050653052 0.12220182 0.00046147963)
(-0.063048401 0.12769425 0.00048946584)
(-0.075794255 0.13074474 0.0005191292)
(-0.088717219 0.1316015 0.00055091284)
(-0.10167577 0.13044297 0.00058482275)
(-0.11455068 0.12738522 0.0006204728)
(-0.12723643 0.12249308 0.00065712254)
(-0.13963363 0.11579338 0.00069371216)
(-0.15164249 0.10728885 0.00072889649)
(-0.16315697 0.096971874 0.00076108298)
(-0.17405973 0.084837713 0.00078847912)
(-0.1842176 0.070897072 0.00080915445)
(-0.19347774 0.055188368 0.00082112191)
(-0.20166467 0.037789982 0.00082244215)
(-0.20857838 0.018832881 0.00081135305)
(-0.2139941 -0.0014862749 0.00078642468)
(-0.21766442 -0.022891642 0.00074673736)
(-0.21932457 -0.045015008 0.00069206908)
(-0.21870191 -0.067384123 0.00062308644)
(-0.21553092 -0.089414474 0.00054150994)
(-0.20957468 -0.11040749 0.00045022667)
(-0.20065355 -0.12955891 0.00035331383)
(-0.18868077 -0.14598184 0.00025593268)
(-0.17370323 -0.15874894 0.00016405807)
(-0.1559431 -0.16695707 8.40261e-05)
(-0.13583338 -0.16981455 2.1914319e-05)
(-0.11403766 -0.16674574 -1.7188142e-05)
(-0.091443291 -0.1575001 -2.9900137e-05)
(-0.069120468 -0.14224561 -1.5064575e-05)
(-0.04824433 -0.12162257 2.5999016e-05)
(-0.029971798 -0.096736551 8.9074559e-05)
(-0.015296618 -0.069077554 0.00016774999)
(-0.0051401264 -0.04037898 0.0002625813)
(-0.00065685494 -0.012518067 0.00035457454)
(-0.00056338806 0.018564527 0.00030216021)
(-0.0035843172 0.049906077 0.00039520689)
(-0.0097519565 0.075776017 0.00044262031)
(-0.018051159 0.09663079 0.00047838898)
(-0.027905932 0.11299469 0.0005102857)
(-0.038934089 0.12540352 0.00054032984)
(-0.050802741 0.13436215 0.00057031688)
(-0.06323788 0.14031581 0.00060183754)
(-0.076023775 0.14363368 0.00063590258)
(-0.088990854 0.14460275 0.00067298709)
(-0.10200449 0.14343004 0.00071310572)
(-0.11495516 0.14025086 0.00075585608)
(-0.12774953 0.13514098 0.00080045259)
(-0.1403023 0.12813078 0.0008457552)
(-0.15252911 0.11922001 0.00089029535)
(-0.16434005 0.10839229 0.00093230475)
(-0.17563379 0.095628811 0.00096975356)