/*--------------------------------*- C++ -*----------------------------------*\
  =========                 |
  \\      /  F ield         | OpenFOAM: The Open Source CFD Toolbox
   \\    /   O peration     | Website:  https://openfoam.org
    \\  /    A nd           | Version:  7
     \\/     M anipulation  |
\*---------------------------------------------------------------------------*/
FoamFile
{
    version     2.0;
    format      ascii;
    class       volScalarField;
    location    "7.9";
    object      T;
}
// * * * * * * * * * * * * * * * * * * * * * * * * * * * * * * * * * * * * * //

dimensions      [0 0 0 1 0 0 0];

internalField   nonuniform List<scalar> 
19968
(
1
1
1
1
1
1
1
1
1
1
1
1
1
1
1
1
1
1
1
1
1
1
1
1
1
1
1
1
1
1
1
1
1
1
1
1
1
1
1
1
1
1
1
1
1
1
1
1
1.28496
2.46398
2.69354
2.69341
2.69562
2.69855
2.70277
2.70828
2.71439
2.7199
2.72401
2.7269
2.72933
2.73194
2.7351
2.73878
2.7428
2.74699
2.75106
2.7547
2.75777
2.76034
2.76259
2.76477
2.76707
2.76958
2.77223
2.77485
2.7773
2.77958
2.78177
2.78396
2.7862
2.78842
2.79054
2.79244
2.79406
2.79543
2.79665
2.79777
2.79882
2.79977
2.80066
2.80147
2.80217
2.8027
2.80302
2.80336
1
1
1
1
1
1
1
1
1
1
1
1
1
1
1
1
1
1
1
1
1
1
1
1
1
1
1
1
1
1
1
1
1
1
1
1
1
1
1
1
1
1
1
1
1
1
1
1
1.27146
2.45721
2.69273
2.69282
2.69527
2.69842
2.70287
2.70846
2.71447
2.71983
2.7238
2.72667
2.72911
2.73172
2.73488
2.73852
2.74252
2.74669
2.75073
2.75435
2.75741
2.75999
2.76228
2.7645
2.76685
2.7694
2.77206
2.77468
2.77712
2.77939
2.78154
2.78368
2.78585
2.78803
2.79013
2.79203
2.79368
2.79508
2.79631
2.79742
2.79845
2.79939
2.80026
2.80105
2.80172
2.80222
2.80251
2.80281
1
1
1
1
1
1
1
1
1
1
1
1
1
1
1
1
1
1
1
1
1
1
1
1
1
1
1
1
1
1
1
1
1
1
1
1
1
1
1
1
1
1
1
1
1
1
1
1
1.23898
2.4395
2.69125
2.69149
2.69456
2.69817
2.70298
2.70858
2.71427
2.71926
2.72303
2.72592
2.72853
2.73126
2.73448
2.73805
2.74197
2.74604
2.75004
2.75363
2.7567
2.75932
2.76166
2.76395
2.76637
2.76897
2.77166
2.77429
2.77674
2.77899
2.78111
2.78317
2.78525
2.78734
2.78939
2.79129
2.79299
2.79445
2.79572
2.79686
2.79787
2.7988
2.79965
2.80041
2.80105
2.8015
2.80176
2.80203
1
1
1
1
1
1
1
1
1
1
1
1
1
1
1
1
1
1
1
1
1
1
1
1
1
1
1
1
1
1
1
1
1
1
1
1
1
1
1
1
1
1
1
1
1
1
1
1
1.19225
2.41147
2.68855
2.69019
2.6943
2.69852
2.70349
2.70878
2.71382
2.71827
2.72184
2.72485
2.72775
2.73073
2.73407
2.73755
2.74132
2.74522
2.7491
2.75265
2.75575
2.75844
2.76088
2.76327
2.76575
2.76839
2.77109
2.77372
2.77617
2.77841
2.78047
2.78243
2.78437
2.78633
2.7883
2.79019
2.79191
2.79341
2.79471
2.79585
2.79685
2.79776
2.79859
2.79934
2.79995
2.80037
2.80059
2.80084
1
1
1
1
1
1
1
1
1
1
1
1
1
1
1
1
1
1
1
1
1
1
1
1
1
1
1
1
1
1
1
1
1
1
1
1
1
1
1
1
1
1
1
1
1
1
1
1
1.12956
2.3712
2.68577
2.6893
2.69445
2.69919
2.704
2.70866
2.71296
2.71688
2.72036
2.72362
2.72695
2.73029
2.7338
2.73721
2.74079
2.74443
2.74811
2.75155
2.75467
2.75747
2.76004
2.76253
2.76506
2.76768
2.77037
2.773
2.77545
2.77769
2.7797
2.78157
2.78338
2.78522
2.78711
2.78897
2.79072
2.79226
2.79358
2.79468
2.79563
2.79646
2.7972
2.79783
2.79832
2.79863
2.79876
2.79893
1
1
1
1
1
1
1
1
1
1
1
1
1
1
1
1
1
1
1
1
1
1
1
1
1
1
1
1
1
1
1
1
1
1
1
1
1
1
1
1
1
1
1
1
1
1
1
1
1.01263
2.30236
2.685
2.69019
2.69527
2.70022
2.70459
2.70854
2.71206
2.71549
2.71902
2.72271
2.72659
2.73034
2.73398
2.73731
2.74061
2.74383
2.74711
2.75029
2.75336
2.75622
2.75891
2.76146
2.76394
2.76645
2.769
2.77155
2.77398
2.7762
2.77817
2.77995
2.78165
2.78337
2.78516
2.78699
2.78875
2.79035
2.79173
2.79288
2.79386
2.79469
2.79541
2.79599
2.7964
2.79661
2.79666
2.79678
1
1
1
1
1
1
1
1
1
1
1
1
1
1
1
1
1
1
1
1
1
1
1
1
1
1
1
1
1
1
1
1
1
1
1
1
1
1
1
1
1
1
1
1
1
1
1
1
1.00007
2.21243
2.68005
2.68716
2.69162
2.69681
2.70126
2.70517
2.70855
2.71193
2.71563
2.71968
2.72401
2.72818
2.73205
2.73545
2.73863
2.74157
2.74456
2.74755
2.75061
2.75363
2.7565
2.75916
2.76164
2.76407
2.76652
2.76901
2.77144
2.77369
2.7757
2.77748
2.77915
2.7808
2.78253
2.7843
2.78606
2.78769
2.78912
2.79032
2.79132
2.79215
2.79283
2.79333
2.79364
2.79376
2.79372
2.79378
1
1
1
1
1
1
1
1
1
1
1
1
1
1
1
1
1
1
1
1
1
1
1
1
1
1
1
1
1
1
1
1
1
1
1
1
1
1
1
1
1
1
1
1
1
1
1
1
1
2.08528
2.6704
2.68444
2.68815
2.693
2.69745
2.70166
2.7055
2.70921
2.71303
2.71707
2.7213
2.72547
2.72941
2.73291
2.73613
2.73903
2.74191
2.74478
2.7478
2.75088
2.75386
2.75661
2.75909
2.76143
2.76378
2.76618
2.76856
2.77081
2.77283
2.77462
2.77626
2.77787
2.77952
2.78122
2.78292
2.78453
2.78597
2.78719
2.78818
2.78898
2.78959
2.79002
2.79023
2.79026
2.79015
2.79016
1
1
1
1
1
1
1
1
1
1
1
1
1
1
1
1
1
1
1
1
1
1
1
1
1
1
1
1
1
1
1
1
1
1
1
1
1
1
1
1
1
1
1
1
1
1
1
1
1
1.91183
2.64253
2.67769
2.68181
2.68687
2.69165
2.69638
2.70092
2.70521
2.70925
2.71325
2.71724
2.72124
2.72515
2.72882
2.73226
2.73531
2.73822
2.741
2.74389
2.74691
2.74988
2.75265
2.75515
2.75746
2.75976
2.7621
2.76445
2.7667
2.76874
2.77055
2.77219
2.77378
2.77538
2.77702
2.77867
2.78024
2.78167
2.78289
2.78388
2.78465
2.78522
2.7856
2.78575
2.78575
2.7856
2.7856
1
1
1
1
1
1
1
1
1
1
1
1
1
1
1
1
1
1
1
1
1
1
1
1
1
1
1
1
1
1
1
1
1
1
1
1
1
1
1
1
1
1
1
1
1
1
1
1
1
1.68353
2.58637
2.67105
2.67607
2.68164
2.68635
2.69103
2.69584
2.70053
2.70475
2.70869
2.71244
2.71621
2.72001
2.72383
2.72755
2.73084
2.73386
2.73663
2.73938
2.74222
2.74507
2.74781
2.7503
2.75259
2.75483
2.7571
2.75935
2.76151
2.76349
2.76526
2.76689
2.76847
2.77007
2.77172
2.77336
2.77491
2.7763
2.77745
2.77835
2.77901
2.77947
2.77975
2.77984
2.77981
2.77965
2.77966
1
1
1
1
1
1
1
1
1
1
1
1
1
1
1
1
1
1
1
1
1
1
1
1
1
1
1
1
1
1
1
1
1
1
1
1
1
1
1
1
1
1
1
1
1
1
1
1
1
1.38007
2.48059
2.67029
2.67221
2.67821
2.68173
2.68577
2.69034
2.69519
2.69953
2.70341
2.70696
2.71049
2.71415
2.71804
2.72197
2.72552
2.72867
2.73148
2.73412
2.73681
2.73954
2.74223
2.74475
2.7471
2.74935
2.75157
2.75372
2.75573
2.75753
2.75911
2.76055
2.76196
2.76341
2.7649
2.76638
2.76777
2.76898
2.76998
2.77076
2.77135
2.77177
2.77205
2.77217
2.77222
2.7721
2.77217
1
1
1
1
1
1
1
1
1
1
1
1
1
1
1
1
1
1
1
1
1
1
1
1
1
1
1
1
1
1
1
1
1
1
1
1
1
1
1
1
1
1
1
1
1
1
1
1
1
1.01594
2.29837
2.67709
2.67709
2.67957
2.68217
2.68538
2.68889
2.6926
2.69601
2.69916
2.70219
2.7052
2.70839
2.71191
2.71562
2.71909
2.72215
2.72486
2.72728
2.72967
2.73216
2.73469
2.73719
2.73956
2.74183
2.74403
2.74612
2.74803
2.7497
2.75116
2.75249
2.75382
2.75521
2.75666
2.75809
2.75939
2.76046
2.76127
2.76179
2.76205
2.76209
2.76194
2.7617
2.76148
2.7612
2.76119
1
1
1
1
1
1
1
1
1
1
1
1
1
1
1
1
1
1
1
1
1
1
1
1
1
1
1
1
1
1
1
1
1
1
1
1
1
1
1
1
1
1
1
1
1
1
1
1
1
1.00003
2.01773
2.64513
2.66205
2.66611
2.67073
2.67532
2.67956
2.68359
2.68722
2.69042
2.69339
2.69625
2.69921
2.70247
2.70601
2.70947
2.71258
2.71529
2.71767
2.71992
2.72227
2.72473
2.72721
2.72962
2.73192
2.73408
2.7361
2.73792
2.7395
2.74086
2.74208
2.74323
2.74438
2.74549
2.74651
2.74732
2.74786
2.74814
2.74818
2.74807
2.74789
2.74768
2.74741
2.74712
2.74665
2.74653
1
1
1
1
1
1
1
1
1
1
1
1
1
1
1
1
1
1
1
1
1
1
1
1
1
1
1
1
1
1
1
1
1
1
1
1
1
1
1
1
1
1
1
1
1
1
1
1
1
1
1.54395
2.5146
2.64791
2.65474
2.66204
2.66716
2.67163
2.67592
2.68001
2.6836
2.68672
2.6895
2.69223
2.69517
2.69837
2.7016
2.70453
2.70703
2.70917
2.71111
2.71309
2.71521
2.71737
2.71946
2.72141
2.72319
2.72481
2.72628
2.72759
2.72875
2.72976
2.73065
2.73142
2.73206
2.73257
2.7329
2.73303
2.73294
2.7327
2.73224
2.73145
2.73026
2.72828
2.72549
2.7223
2.71983
1
1
1
1
1
1
1
1
1
1
1
1
1
1
1
1
1
1
1
1
1
1
1
1
1
1
1
1
1
1
1
1
1
1
1
1
1
1
1
1
1
1
1
1
1
1
1
1
1
1
1.02759
2.25115
2.65663
2.65647
2.65871
2.66081
2.66341
2.66668
2.67045
2.67421
2.6775
2.68029
2.68277
2.68534
2.68817
2.69115
2.69396
2.69637
2.69836
2.70005
2.70163
2.7033
2.70506
2.70677
2.70831
2.70958
2.71056
2.71145
2.71235
2.7132
2.71392
2.7144
2.71461
2.71448
2.71397
2.71305
2.71173
2.70998
2.70773
2.70491
2.70151
2.69764
2.69381
2.68969
2.68665
2.68496
1
1
1
1
1
1
1
1
1
1
1
1
1
1
1
1
1
1
1
1
1
1
1
1
1
1
1
1
1
1
1
1
1
1
1
1
1
1
1
1
1
1
1
1
1
1
1
1
1
1
1.00005
1.75812
2.56284
2.63742
2.64237
2.64529
2.6481
2.6518
2.65635
2.66109
2.6652
2.66837
2.67082
2.67311
2.67566
2.67851
2.68142
2.68404
2.68615
2.68775
2.68906
2.69027
2.69157
2.69293
2.69407
2.69456
2.69474
2.69469
2.69459
2.69458
2.6946
2.69447
2.69394
2.69276
2.6908
2.68812
2.68484
2.68109
2.67691
2.67229
2.66706
2.66133
2.65542
2.6526
2.64931
2.66339
1
1
1
1
1
1
1
1
1
1
1
1
1
1
1
1
1
1
1
1
1
1
1
1
1
1
1
1
1
1
1
1
1
1
1
1
1
1
1
1
1
1
1
1
1
1
1
1
1
1
1
1.12224
2.34829
2.63174
2.63244
2.63406
2.6365
2.63996
2.6445
2.64951
2.65403
2.65745
2.65988
2.66188
2.66402
2.66657
2.66938
2.67206
2.67426
2.67587
2.67703
2.67791
2.67876
2.67968
2.68027
2.68024
2.67979
2.67881
2.67757
2.67645
2.67548
2.67441
2.6729
2.67055
2.66709
2.6624
2.65646
2.64935
2.64076
2.63023
2.61587
2.59599
2.56608
2.52335
2.45899
2.3307
1
1
1
1
1
1
1
1
1
1
1
1
1
1
1
1
1
1
1
1
1
1
1
1
1
1
1
1
1
1
1
1
1
1
1
1
1
1
1
1
1
1
1
1
1
1
1
1
1
1
1
1.0012
2.02141
2.60546
2.61277
2.61639
2.62047
2.62463
2.62977
2.63576
2.64138
2.64552
2.64812
2.6499
2.65175
2.65414
2.65698
2.65982
2.66227
2.66413
2.66532
2.66607
2.66671
2.66728
2.66757
2.66728
2.66637
2.66476
2.6627
2.66058
2.65849
2.65624
2.6535
2.64992
2.64503
2.63851
2.62991
2.61938
2.60609
2.58997
2.5681
2.53898
2.4953
2.43623
2.3264
2.16428
1
1
1
1
1
1
1
1
1
1
1
1
1
1
1
1
1
1
1
1
1
1
1
1
1
1
1
1
1
1
1
1
1
1
1
1
1
1
1
1
1
1
1
1
1
1
1
1
1
1
1
0.999999
1.40316
2.43911
2.59565
2.60288
2.60866
2.61225
2.61714
2.62336
2.62937
2.63391
2.63666
2.63833
2.63992
2.64206
2.64472
2.64757
2.6501
2.65196
2.65315
2.6539
2.65437
2.65461
2.65451
2.6539
2.6525
2.65028
2.64751
2.64447
2.6412
2.63761
2.63338
2.62831
2.62179
2.6135
2.60259
2.58905
2.5719
2.55089
2.52401
2.48822
2.4404
2.36839
2.26331
2.13352
1
1
1
1
1
1
1
1
1
1
1
1
1
1
1
1
1
1
1
1
1
1
1
1
1
1
1
1
1
1
1
1
1
1
1
1
1
1
1
1
1
1
1
1
1
1
1
1
1
1
1
1
1.01605
2.12337
2.59388
2.59706
2.59936
2.60184
2.60554
2.61073
2.61589
2.62029
2.6232
2.62492
2.62653
2.62857
2.63107
2.6339
2.63639
2.6382
2.63937
2.64008
2.64044
2.6405
2.64026
2.63941
2.63762
2.63493
2.63155
2.62775
2.62347
2.6187
2.61308
2.60651
2.5984
2.58844
2.57579
2.56007
2.54049
2.51628
2.48638
2.44795
2.39846
2.33264
2.24833
2.14771
1
1
1
1
1
1
1
1
1
1
1
1
1
1
1
1
1
1
1
1
1
1
1
1
1
1
1
1
1
1
1
1
1
1
1
1
1
1
1
1
1
1
1
1
1
1
1
1
1
1
1
1
1.00001
1.46746
2.4438
2.5888
2.58805
2.59149
2.59565
2.60051
2.60463
2.608
2.61042
2.61176
2.61314
2.61486
2.61713
2.61976
2.62212
2.62374
2.62468
2.62518
2.62538
2.62531
2.62495
2.62398
2.62205
2.61911
2.61525
2.6108
2.6057
2.59999
2.59325
2.58536
2.57582
2.56439
2.55048
2.53355
2.51298
2.48766
2.45738
2.41856
2.37236
2.31623
2.24994
2.17151
1
1
1
1
1
1
1
1
1
1
1
1
1
1
1
1
1
1
1
1
1
1
1
1
1
1
1
1
1
1
1
1
1
1
1
1
1
1
1
1
1
1
1
1
1
1
1
1
1
1
1
1
1
1.0216
2.12318
2.58511
2.58445
2.58513
2.58743
2.59086
2.59407
2.59658
2.5984
2.59931
2.60024
2.60137
2.60318
2.60546
2.6077
2.6092
2.60975
2.60973
2.60947
2.60899
2.60831
2.60728
2.60544
2.60256
2.59852
2.59364
2.58796
2.58153
2.574
2.56513
2.55453
2.54201
2.52719
2.50966
2.48902
2.46406
2.43492
2.39863
2.35785
2.30888
2.25528
2.19458
1
1
1
1
1
1
1
1
1
1
1
1
1
1
1
1
1
1
1
1
1
1
1
1
1
1
1
1
1
1
1
1
1
1
1
1
1
1
1
1
1
1
1
1
1
1
1
1
1
1
1
1
1
1.00003
1.40947
2.40618
2.57575
2.57615
2.5793
2.58254
2.58486
2.58616
2.58687
2.58725
2.58766
2.58815
2.58935
2.59105
2.59284
2.59416
2.59431
2.594
2.59312
2.592
2.59084
2.58956
2.58776
2.58502
2.58103
2.57605
2.57016
2.56342
2.55547
2.54604
2.53481
2.52165
2.50635
2.48864
2.46842
2.44434
2.41719
2.38503
2.34888
2.30766
2.26244
2.2131
1
1
1
1
1
1
1
1
1
1
1
1
1
1
1
1
1
1
1
1
1
1
1
1
1
1
1
1
1
1
1
1
1
1
1
1
1
1
1
1
1
1
1
1
1
1
1
1
1
1
1
1
1
1
1.01518
2.02815
2.55511
2.568
2.57019
2.57309
2.57597
2.57731
2.57754
2.57752
2.57751
2.57747
2.57801
2.57886
2.57967
2.58031
2.5801
2.57936
2.57774
2.57576
2.57375
2.57184
2.56971
2.56692
2.56301
2.55811
2.55228
2.54549
2.53743
2.52782
2.51645
2.50319
2.48797
2.47042
2.451
2.42786
2.40293
2.37405
2.34281
2.30804
2.26876
2.22777
1
1
1
1
1
1
1
1
1
1
1
1
1
1
1
1
1
1
1
1
1
1
1
1
1
1
1
1
1
1
1
1
1
1
1
1
1
1
1
1
1
1
1
1
1
1
1
1
1
1
1
1
1
1
1.00002
1.23217
2.3412
2.56171
2.56042
2.56264
2.56465
2.56605
2.56617
2.566
2.56587
2.56576
2.56606
2.56636
2.56634
2.56619
2.56573
2.56467
2.56254
2.55994
2.55716
2.55451
2.55182
2.54868
2.54467
2.53988
2.53419
2.5275
2.51957
2.51012
2.499
2.48605
2.4715
2.45446
2.43602
2.41426
2.39128
2.36523
2.33807
2.3076
2.27306
2.23849
1
1
1
1
1
1
1
1
1
1
1
1
1
1
1
1
1
1
1
1
1
1
1
1
1
1
1
1
1
1
1
1
1
1
1
1
1
1
1
1
1
1
1
1
1
1
1
1
1
1
1
1
1
1
1
1.0039
1.84608
2.49906
2.54038
2.54694
2.55081
2.55227
2.55275
2.55252
2.55237
2.55252
2.55333
2.55399
2.55379
2.55317
2.55225
2.55077
2.54815
2.54511
2.5417
2.53832
2.53492
2.53121
2.52687
2.52199
2.51628
2.50954
2.50168
2.49249
2.4819
2.46964
2.45619
2.44001
2.42281
2.4029
2.38191
2.35848
2.33382
2.30632
2.27612
2.24651
1
1
1
1
1
1
1
1
1
1
1
1
1
1
1
1
1
1
1
1
1
1
1
1
1
1
1
1
1
1
1
1
1
1
1
1
1
1
1
1
1
1
1
1
1
1
1
1
1
1
1
1
1
1
1
1
1.09831
2.20261
2.53614
2.53914
2.53829
2.53859
2.53919
2.53911
2.53916
2.53956
2.54068
2.54185
2.54167
2.54089
2.53957
2.53763
2.53458
2.53114
2.52733
2.5236
2.51963
2.51537
2.51054
2.50537
2.49939
2.49237
2.4844
2.47527
2.4651
2.45356
2.44129
2.42629
2.41058
2.39265
2.37384
2.35256
2.32964
2.30513
2.27871
2.2522
1
1
1
1
1
1
1
1
1
1
1
1
1
1
1
1
1
1
1
1
1
1
1
1
1
1
1
1
1
1
1
1
1
1
1
1
1
1
1
1
1
1
1
1
1
1
1
1
1
1
1
1
1
1
1
1
1.00064
1.45222
2.36668
2.51566
2.51563
2.51852
2.52142
2.52314
2.52432
2.52525
2.52659
2.52831
2.52852
2.52798
2.52668
2.52448
2.52121
2.5175
2.5135
2.50973
2.50553
2.50081
2.49582
2.49
2.48385
2.47641
2.46814
2.45895
2.44906
2.43793
2.42652
2.41294
2.39874
2.38274
2.36586
2.34636
2.32573
2.30422
2.28042
2.25613
1
1
1
1
1
1
1
1
1
1
1
1
1
1
1
1
1
1
1
1
1
1
1
1
1
1
1
1
1
1
1
1
1
1
1
1
1
1
1
1
1
1
1
1
1
1
1
1
1
1
1
1
1
1
1
1
1
1.01836
1.89503
2.47062
2.49941
2.50394
2.50655
2.50859
2.51023
2.51132
2.51261
2.51436
2.51463
2.5142
2.51312
2.51113
2.50808
2.50449
2.50045
2.49662
2.49236
2.48755
2.48231
2.47652
2.46996
2.46239
2.45387
2.44458
2.43468
2.42353
2.41255
2.40021
2.38716
2.37273
2.35743
2.33967
2.32136
2.30203
2.28022
2.25835
1
1
1
1
1
1
1
1
1
1
1
1
1
1
1
1
1
1
1
1
1
1
1
1
1
1
1
1
1
1
1
1
1
1
1
1
1
1
1
1
1
1
1
1
1
1
1
1
1
1
1
1
1
1
1
1
1
1.00003
1.11841
2.12381
2.47991
2.4966
2.49505
2.49644
2.49798
2.49878
2.49983
2.50098
2.5009
2.50018
2.49892
2.4971
2.4945
2.4913
2.48746
2.4836
2.47954
2.47479
2.46969
2.46383
2.45721
2.44962
2.4411
2.43178
2.42166
2.41081
2.39989
2.38828
2.37614
2.36275
2.34853
2.33271
2.31611
2.2982
2.27872
2.25884
1
1
1
1
1
1
1
1
1
1
1
1
1
1
1
1
1
1
1
1
1
1
1
1
1
1
1
1
1
1
1
1
1
1
1
1
1
1
1
1
1
1
1
1
1
1
1
1
1
1
1
1
1
1
1
1
1
1
1.00094
1.26808
2.26872
2.47982
2.47966
2.4806
2.48173
2.48287
2.48414
2.48522
2.4852
2.48461
2.4834
2.48186
2.47985
2.47721
2.47384
2.47008
2.46632
2.46182
2.45702
2.45154
2.44521
2.43792
2.42959
2.42044
2.41055
2.40009
2.38922
2.37788
2.36629
2.35354
2.34
2.32568
2.31027
2.29359
2.27617
2.25811
1
1
1
1
1
1
1
1
1
1
1
1
1
1
1
1
1
1
1
1
1
1
1
1
1
1
1
1
1
1
1
1
1
1
1
1
1
1
1
1
1
1
1
1
1
1
1
1
1
1
1
1
1
1
1
1
1
1
1
1.00518
1.65809
2.37651
2.45667
2.45447
2.45666
2.45965
2.46288
2.46539
2.46688
2.46718
2.46676
2.46567
2.46409
2.46207
2.4592
2.45582
2.45251
2.44862
2.44434
2.43941
2.43359
2.42674
2.41877
2.41001
2.40043
2.39025
2.37956
2.36847
2.35727
2.34517
2.33227
2.31903
2.30456
2.28896
2.27314
2.25639
1
1
1
1
1
1
1
1
1
1
1
1
1
1
1
1
1
1
1
1
1
1
1
1
1
1
1
1
1
1
1
1
1
1
1
1
1
1
1
1
1
1
1
1
1
1
1
1
1
1
1
1
1
1
1
1
1
1
1
1.00001
1.04919
1.90833
2.41647
2.44456
2.4441
2.44611
2.44771
2.44931
2.45036
2.45069
2.45039
2.44959
2.44822
2.44667
2.44432
2.44132
2.43848
2.43517
2.43143
2.4271
2.42187
2.41564
2.40827
2.40003
2.39094
2.38113
2.37077
2.36005
2.34926
2.33779
2.32569
2.31329
2.29961
2.285
2.27028
2.25437
1
1
1
1
1
1
1
1
1
1
1
1
1
1
1
1
1
1
1
1
1
1
1
1
1
1
1
1
1
1
1
1
1
1
1
1
1
1
1
1
1
1
1
1
1
1
1
1
1
1
1
1
1
1
1
1
1
1
1
1
1.00021
1.13246
2.02355
2.41219
2.43563
2.43771
2.43836
2.43797
2.43742
2.4367
2.43567
2.43432
2.43262
2.4309
2.42874
2.42621
2.42371
2.42087
2.41765
2.41385
2.40921
2.40359
2.39688
2.3893
2.38085
2.37166
2.36187
2.35171
2.34144
2.33072
2.31953
2.30787
2.29508
2.28148
2.26755
2.25236
1
1
1
1
1
1
1
1
1
1
1
1
1
1
1
1
1
1
1
1
1
1
1
1
1
1
1
1
1
1
1
1
1
1
1
1
1
1
1
1
1
1
1
1
1
1
1
1
1
1
1
1
1
1
1
1
1
1
1
1
1
1.00123
1.2112
2.10233
2.3982
2.42915
2.42858
2.4278
2.4267
2.42513
2.42333
2.42135
2.41919
2.417
2.41467
2.41221
2.40966
2.40687
2.40375
2.40015
2.39586
2.39071
2.38458
2.37766
2.36995
2.36147
2.35242
2.343
2.33341
2.32342
2.31308
2.30218
2.29036
2.27783
2.26462
2.25022
1
1
1
1
1
1
1
1
1
1
1
1
1
1
1
1
1
1
1
1
1
1
1
1
1
1
1
1
1
1
1
1
1
1
1
1
1
1
1
1
1
1
1
1
1
1
1
1
1
1
1
1
1
1
1
1
1
1
1
1
1
1
1.00314
1.29434
2.15512
2.38951
2.41059
2.41349
2.41333
2.41261
2.41118
2.40923
2.40687
2.40447
2.40196
2.39925
2.39637
2.3933
2.38998
2.38625
2.38199
2.37707
2.37131
2.36487
2.3578
2.35005
2.34173
2.33308
2.32426
2.31506
2.30563
2.29561
2.28487
2.27345
2.26104
2.2477
1
1
1
1
1
1
1
1
1
1
1
1
1
1
1
1
1
1
1
1
1
1
1
1
1
1
1
1
1
1
1
1
1
1
1
1
1
1
1
1
1
1
1
1
1
1
1
1
1
1
1
1
1
1
1
1
1
1
1
1
1
1
1
1.00642
1.37774
2.19516
2.37635
2.3911
2.39528
2.39616
2.39596
2.39494
2.39325
2.39138
2.38921
2.38666
2.38377
2.38058
2.37707
2.37316
2.36878
2.36386
2.35821
2.35193
2.34514
2.33794
2.3303
2.32231
2.3142
2.30586
2.29734
2.28814
2.27843
2.2683
2.25709
2.24557
1
1
1
1
1
1
1
1
1
1
1
1
1
1
1
1
1
1
1
1
1
1
1
1
1
1
1
1
1
1
1
1
1
1
1
1
1
1
1
1
1
1
1
1
1
1
1
1
1
1
1
1
1
1
1
1
1
1
1
1
1
1
1
1.00001
1.01164
1.4521
2.2269
2.36697
2.37109
2.37413
2.37506
2.37557
2.37527
2.37456
2.3734
2.37183
2.36975
2.36711
2.36392
2.36018
2.35587
2.35097
2.3454
2.33928
2.33272
2.32587
2.3187
2.3112
2.30359
2.29578
2.28799
2.27973
2.27158
2.26359
2.2554
2.24824
1
1
1
1
1
1
1
1
1
1
1
1
1
1
1
1
1
1
1
1
1
1
1
1
1
1
1
1
1
1
1
1
1
1
1
1
1
1
1
1
1
1
1
1
1
1
1
1
1
1
1
1
1
1
1
1
1
1
1
1
1
1
1
1
1.00003
1.01846
1.55306
2.2532
2.35444
2.35329
2.35424
2.35426
2.35435
2.35454
2.35452
2.35423
2.35338
2.35181
2.3495
2.34642
2.34258
2.33804
2.3328
2.32706
2.32083
2.31431
2.30739
2.30017
2.2929
2.28572
2.27917
2.2728
2.26878
2.26632
2.26434
2.26559
1
1
1
1
1
1
1
1
1
1
1
1
1
1
1
1
1
1
1
1
1
1
1
1
1
1
1
1
1
1
1
1
1
1
1
1
1
1
1
1
1
1
1
1
1
1
1
1
1
1
1
1
1
1
1
1
1
1
1
1
1
1
1
1
1
1.00005
1.03196
1.61715
2.26327
2.34118
2.33854
2.33675
2.33593
2.33559
2.33556
2.33547
2.33513
2.33437
2.33302
2.33093
2.32804
2.32433
2.31985
2.3147
2.30894
2.30272
2.29614
2.28955
2.28352
2.27872
2.27685
2.27771
2.28052
2.28585
2.29362
2.30135
1
1
1
1
1
1
1
1
1
1
1
1
1
1
1
1
1
1
1
1
1
1
1
1
1
1
1
1
1
1
1
1
1
1
1
1
1
1
1
1
1
1
1
1
1
1
1
1
1
1
1
1
1
1
1
1
1
1
1
1
1
1
1
1
1
1
1.00013
1.04437
1.63621
2.25559
2.32847
2.32558
2.32348
2.32184
2.32057
2.3194
2.31825
2.31696
2.31546
2.3136
2.31125
2.30823
2.30448
2.3001
2.29509
2.2899
2.28476
2.28078
2.28155
2.28438
2.29092
2.30133
2.31395
2.32301
2.33097
2.33417
1
1
1
1
1
1
1
1
1
1
1
1
1
1
1
1
1
1
1
1
1
1
1
1
1
1
1
1
1
1
1
1
1
1
1
1
1
1
1
1
1
1
1
1
1
1
1
1
1
1
1
1
1
1
1
1
1
1
1
1
1
1
1
1
1
1
1
1.00022
1.04953
1.62157
2.23764
2.31708
2.31486
2.3126
2.31011
2.30757
2.30506
2.30249
2.29994
2.29727
2.29422
2.29108
2.28744
2.28409
2.28053
2.27921
2.28193
2.28687
2.29753
2.31296
2.32843
2.34181
2.35038
2.35427
2.35387
2.34938
1
1
1
1
1
1
1
1
1
1
1
1
1
1
1
1
1
1
1
1
1
1
1
1
1
1
1
1
1
1
1
1
1
1
1
1
1
1
1
1
1
1
1
1
1
1
1
1
1
1
1
1
1
1
1
1
1
1
1
1
1
1
1
1
1
1
1
1
1.00027
1.04717
1.60273
2.21564
2.30476
2.30346
2.30067
2.29781
2.29445
2.29113
2.28764
2.28382
2.27955
2.27563
2.27159
2.27174
2.27518
2.28365
2.29847
2.31713
2.33727
2.35345
2.36138
2.36914
2.36739
2.36318
2.35808
2.35146
1
1
1
1
1
1
1
1
1
1
1
1
1
1
1
1
1
1
1
1
1
1
1
1
1
1
1
1
1
1
1
1
1
1
1
1
1
1
1
1
1
1
1
1
1
1
1
1
1
1
1
1
1
1
1
1
1
1
1
1
1
1
1
1
1
1
1
1
1
1.00025
1.04345
1.57168
2.18692
2.29163
2.29125
2.2883
2.28518
2.28141
2.27727
2.27256
2.26793
2.26591
2.26853
2.27754
2.29489
2.31675
2.3398
2.35959
2.37047
2.37646
2.37497
2.37292
2.36763
2.36121
2.35537
2.35005
1
1
1
1
1
1
1
1
1
1
1
1
1
1
1
1
1
1
1
1
1
1
1
1
1
1
1
1
1
1
1
1
1
1
1
1
1
1
1
1
1
1
1
1
1
1
1
1
1
1
1
1
1
1
1
1
1
1
1
1
1
1
1
1
1
1
1
1
1
1
1.00022
1.03745
1.52637
2.15083
2.27368
2.27914
2.27544
2.27188
2.26763
2.26415
2.26601
2.27461
2.29285
2.31883
2.34552
2.36531
2.37648
2.38327
2.38041
2.37677
2.37307
2.36941
2.36357
2.35728
2.35302
2.3495
1
1
1
1
1
1
1
1
1
1
1
1
1
1
1
1
1
1
1
1
1
1
1
1
1
1
1
1
1
1
1
1
1
1
1
1
1
1
1
1
1
1
1
1
1
1
1
1
1
1
1
1
1
1
1
1
1
1
1
1
1
1
1
1
1
1
1
1
1
1
1
1.00018
1.02971
1.46904
2.09889
2.25228
2.26508
2.26123
2.26195
2.27032
2.29128
2.32209
2.35365
2.37672
2.38739
2.39436
2.39183
2.38703
2.38074
2.37587
2.37135
2.36622
2.3597
2.3555
2.35316
2.34972
1
1
1
1
1
1
1
1
1
1
1
1
1
1
1
1
1
1
1
1
1
1
1
1
1
1
1
1
1
1
1
1
1
1
1
1
1
1
1
1
1
1
1
1
1
1
1
1
1
1
1
1
1
1
1
1
1
1
1
1
1
1
1
1
1
1
1
1
1
1
1
1
1.00013
1.02165
1.39917
2.02063
2.23024
2.25461
2.27882
2.31584
2.35583
2.38435
2.39698
2.40372
2.40013
2.39533
2.38931
2.38349
2.37863
2.37486
2.37052
2.36511
2.35989
2.35736
2.35502
2.35057
1
1
1
1
1
1
1
1
1
1
1
1
1
1
1
1
1
1
1
1
1
1
1
1
1
1
1
1
1
1
1
1
1
1
1
1
1
1
1
1
1
1
1
1
1
1
1
1
1
1
1
1
1
1
1
1
1
1
1
1
1
1
1
1
1
1
1
1
1
1
1
1
1
1.00008
1.01432
1.31267
1.92575
2.26055
2.34598
2.38082
2.3974
2.4063
2.40298
2.3999
2.3957
2.39106
2.38519
2.38004
2.37671
2.37376
2.36929
2.36388
2.36079
2.35959
2.35635
2.35088
1
1
1
1
1
1
1
1
1
1
1
1
1
1
1
1
1
1
1
1
1
1
1
1
1
1
1
1
1
1
1
1
1
1
1
1
1
1
1
1
1
1
1
1
1
1
1
1
1
1
1
1
1
1
1
1
1
1
1
1
1
1
1
1
1
1
1
1
1
1
1
1
1
1
1.00004
1.00837
1.2179
2.19049
2.47019
2.45125
2.43804
2.42664
2.41478
2.40439
2.39641
2.38987
2.3836
2.37884
2.37642
2.37426
2.37012
2.36556
2.36354
2.36188
2.35688
2.35106
1
1
1
1
1
1
1
1
1
1
1
1
1
1
1
1
1
1
1
1
1
1
1
1
1
1
1
1
1
1
1
1
1
1
1
1
1
1
1
1
1
1
1
1
1
1
1
1
1
1
1
1
1
1
1
1
1
1
1
1
1
1
1
1
1
1
1
1
1
1
1
1
1
1
1
1.00002
1.00371
2.00633
2.55924
2.53225
2.50042
2.47244
2.44994
2.43184
2.41875
2.40838
2.398
2.38996
2.38486
2.38011
2.37403
2.36886
2.36595
2.36258
2.35706
2.35277
1
1
1
1
1
1
1
1
1
1
1
1
1
1
1
1
1
1
1
1
1
1
1
1
1
1
1
1
1
1
1
1
1
1
1
1
1
1
1
1
1
1
1
1
1
1
1
1
1
1
1
1
1
1
1
1
1
1
1
1
1
1
1
1
1
1
1
1
1
1
1
1
1
1
1
1
1
1.50107
2.48518
2.58659
2.56938
2.54897
2.52473
2.50101
2.47853
2.45894
2.44136
2.42747
2.41589
2.40425
2.39308
2.38368
2.37701
2.37062
2.3634
2.35796
1
1
1
1
1
1
1
1
1
1
1
1
1
1
1
1
1
1
1
1
1
1
1
1
1
1
1
1
1
1
1
1
1
1
1
1
1
1
1
1
1
1
1
1
1
1
1
1
1
1
1
1
1
1
1
1
1
1
1
1
1
1
1
1
1
1
1
1
1
1
1
1
1
1
1
1
1
1.0249
2.26458
2.63276
2.62431
2.60998
2.59098
2.57083
2.54914
2.52727
2.50593
2.48565
2.46703
2.44915
2.43329
2.41961
2.40851
2.39807
2.38738
2.37773
1
1
1
1
1
1
1
1
1
1
1
1
1
1
1
1
1
1
1
1
1
1
1
1
1
1
1
1
1
1
1
1
1
1
1
1
1
1
1
1
1
1
1
1
1
1
1
1
1
1
1
1
1
1
1
1
1
1
1
1
1
1
1
1
1
1
1
1
1
1
1
1
1
1
1
1
1
1.00004
1.80752
2.56928
2.624
2.61996
2.61566
2.60785
2.59744
2.58473
2.56954
2.55232
2.53408
2.5154
2.49722
2.47995
2.46352
2.44714
2.43207
2.41833
1
1
1
1
1
1
1
1
1
1
1
1
1
1
1
1
1
1
1
1
1
1
1
1
1
1
1
1
1
1
1
1
1
1
1
1
1
1
1
1
1
1
1
1
1
1
1
1
1
1
1
1
1
1
1
1
1
1
1
1
1
1
1
1
1
1
1
1
1
1
1
1
1
1
1
1
1
1
1.2119
2.39204
2.63053
2.62582
2.62251
2.61999
2.61617
2.61044
2.60289
2.59327
2.58181
2.56885
2.5548
2.54008
2.52443
2.50804
2.49191
2.47659
1
1
1
1
1
1
1
1
1
1
1
1
1
1
1
1
1
1
1
1
1
1
1
1
1
1
1
1
1
1
1
1
1
1
1
1
1
1
1
1
1
1
1
1
1
1
1
1
1
1
1
1
1
1
1
1
1
1
1
1
1
1
1
1
1
1
1
1
1
1
1
1
1
1
1
1
1
1
1.00347
2.12895
2.62172
2.62663
2.62517
2.62352
2.6206
2.61699
2.61287
2.60809
2.60248
2.59589
2.58813
2.57919
2.56902
2.55785
2.54599
2.53347
1
1
1
1
1
1
1
1
1
1
1
1
1
1
1
1
1
1
1
1
1
1
1
1
1
1
1
1
1
1
1
1
1
1
1
1
1
1
1
1
1
1
1
1
1
1
1
1
1
1
1
1
1
1
1
1
1
1
1
1
1
1
1
1
1
1
1
1
1
1
1
1
1
1
1
1
1
1
1
1.6703
2.53478
2.63258
2.6284
2.62617
2.62337
2.62086
2.61823
2.61527
2.61196
2.60814
2.60362
2.59814
2.59178
2.58493
2.57741
2.56922
1
1
1
1
1
1
1
1
1
1
1
1
1
1
1
1
1
1
1
1
1
1
1
1
1
1
1
1
1
1
1
1
1
1
1
1
1
1
1
1
1
1
1
1
1
1
1
1
1
1
1
1
1
1
1
1
1
1
1
1
1
1
1
1
1
1
1
1
1
1
1
1
1
1
1
1
1
1
1
1.12621
2.3596
2.63837
2.63175
2.62747
2.62455
2.62229
2.61981
2.61706
2.61412
2.61099
2.60763
2.6041
2.60025
2.59603
2.59115
2.58573
1
1
1
1
1
1
1
1
1
1
1
1
1
1
1
1
1
1
1
1
1
1
1
1
1
1
1
1
1
1
1
1
1
1
1
1
1
1
1
1
1
1
1
1
1
1
1
1
1
1
1
1
1
1
1
1
1
1
1
1
1
1
1
1
1
1
1
1
1
1
1
1
1
1
1
1
1
1
1
1.00117
2.1283
2.63611
2.63507
2.63181
2.62912
2.62602
2.62291
2.61982
2.61677
2.61371
2.61061
2.60745
2.6041
2.60058
2.59687
2.59305
1
1
1
1
1
1
1
1
1
1
1
1
1
1
1
1
1
1
1
1
1
1
1
1
1
1
1
1
1
1
1
1
1
1
1
1
1
1
1
1
1
1
1
1
1
1
1
1
1
1
1
1
1
1
1
1
1
1
1
1
1
1
1
1
1
1
1
1
1
1
1
1
1
1
1
1
1
1
1
1
1.75098
2.57424
2.64215
2.63721
2.63373
2.63001
2.6266
2.62328
2.62011
2.61693
2.61376
2.6105
2.60713
2.6037
2.60023
2.59677
1
1
1
1
1
1
1
1
1
1
1
1
1
1
1
1
1
1
1
1
1
1
1
1
1
1
1
1
1
1
1
1
1
1
1
1
1
1
1
1
1
1
1
1
1
1
1
1
1
1
1
1
1
1
1
1
1
1
1
1
1
1
1
1
1
1
1
1
1
1
1
1
1
1
1
1
1
1
1
1
1.29521
2.43276
2.64769
2.64187
2.63887
2.63544
2.63184
2.62828
2.6249
2.62149
2.61811
2.61465
2.61112
2.60758
2.60399
2.60045
1
1
1
1
1
1
1
1
1
1
1
1
1
1
1
1
1
1
1
1
1
1
1
1
1
1
1
1
1
1
1
1
1
1
1
1
1
1
1
1
1
1
1
1
1
1
1
1
1
1
1
1
1
1
1
1
1
1
1
1
1
1
1
1
1
1
1
1
1
1
1
1
1
1
1
1
1
1
1
1
1.00863
2.27021
2.65927
2.65619
2.64855
2.64352
2.63886
2.63467
2.6308
2.62698
2.62325
2.61953
2.61581
2.61215
2.60845
2.60477
1
1
1
1
1
1
1
1
1
1
1
1
1
1
1
1
1
1
1
1
1
1
1
1
1
1
1
1
1
1
1
1
1
1
1
1
1
1
1
1
1
1
1
1
1
1
1
1
1
1
1
1
1
1
1
1
1
1
1
1
1
1
1
1
1
1
1
1
1
1
1
1
1
1
1
1
1
1
1
1
1
2.02817
2.64395
2.65728
2.65294
2.6495
2.64534
2.64122
2.63712
2.63307
2.62912
2.62524
2.6214
2.61764
2.61386
2.61008
1
1
1
1
1
1
1
1
1
1
1
1
1
1
1
1
1
1
1
1
1
1
1
1
1
1
1
1
1
1
1
1
1
1
1
1
1
1
1
1
1
1
1
1
1
1
1
1
1
1
1
1
1
1
1
1
1
1
1
1
1
1
1
1
1
1
1
1
1
1
1
1
1
1
1
1
1
1
1
1
1
1.72775
2.58012
2.6609
2.65522
2.65216
2.64852
2.64488
2.6411
2.63733
2.63354
2.62975
2.62599
2.62229
2.61858
2.61488
1
1
1
1
1
1
1
1
1
1
1
1
1
1
1
1
1
1
1
1
1
1
1
1
1
1
1
1
1
1
1
1
1
1
1
1
1
1
1
1
1
1
1
1
1
1
1
1
1
1
1
1
1
1
1
1
1
1
1
1
1
1
1
1
1
1
1
1
1
1
1
1
1
1
1
1
1
1
1
1
1
1.3795
2.47219
2.66367
2.65817
2.65559
2.65239
2.64904
2.64558
2.6421
2.63856
2.63498
2.63137
2.62776
2.62411
2.62043
1
1
1
1
1
1
1
1
1
1
1
1
1
1
1
1
1
1
1
1
1
1
1
1
1
1
1
1
1
1
1
1
1
1
1
1
1
1
1
1
1
1
1
1
1
1
1
1
1
1
1
1
1
1
1
1
1
1
1
1
1
1
1
1
1
1
1
1
1
1
1
1
1
1
1
1
1
1
1
1
1
1.06616
2.3413
2.67042
2.66396
2.65898
2.65503
2.65149
2.64811
2.64484
2.64161
2.63834
2.635
2.6316
2.62811
2.62457
1
1
1
1
1
1
1
1
1
1
1
1
1
1
1
1
1
1
1
1
1
1
1
1
1
1
1
1
1
1
1
1
1
1
1
1
1
1
1
1
1
1
1
1
1
1
1
1
1
1
1
1
1
1
1
1
1
1
1
1
1
1
1
1
1
1
1
1
1
1
1
1
1
1
1
1
1
1
1
1
1
1.00048
2.19326
2.66783
2.66714
2.66272
2.65938
2.65586
2.65239
2.64902
2.64573
2.64243
2.63908
2.63566
2.63216
2.62861
1
1
1
1
1
1
1
1
1
1
1
1
1
1
1
1
1
1
1
1
1
1
1
1
1
1
1
1
1
1
1
1
1
1
1
1
1
1
1
1
1
1
1
1
1
1
1
1
1
1
1
1
1
1
1
1
1
1
1
1
1
1
1
1
1
1
1
1
1
1
1
1
1
1
1
1
1
1
1
1
1
1
2.01069
2.64812
2.67078
2.6666
2.66374
2.66027
2.65688
2.65338
2.64992
2.64647
2.643
2.63947
2.6359
2.63229
1
1
1
1
1
1
1
1
1
1
1
1
1
1
1
1
1
1
1
1
1
1
1
1
1
1
1
1
1
1
1
1
1
1
1
1
1
1
1
1
1
1
1
1
1
1
1
1
1
1
1
1
1
1
1
1
1
1
1
1
1
1
1
1
1
1
1
1
1
1
1
1
1
1
1
1
1
1
1
1
1
1
1.80508
2.60713
2.67406
2.66915
2.66658
2.66326
2.65981
2.65604
2.6523
2.64867
2.64508
2.6415
2.63792
2.63433
1
1
1
1
1
1
1
1
1
1
1
1
1
1
1
1
1
1
1
1
1
1
1
1
1
1
1
1
1
1
1
1
1
1
1
1
1
1
1
1
1
1
1
1
1
1
1
1
1
1
1
1
1
1
1
1
1
1
1
1
1
1
1
1
1
1
1
1
1
1
1
1
1
1
1
1
1
1
1
1
1
1
1.58261
2.55489
2.67283
2.66745
2.66532
2.66263
2.65984
2.65688
2.65379
2.65057
2.64724
2.64382
2.64038
2.63687
1
1
1
1
1
1
1
1
1
1
1
1
1
1
1
1
1
1
1
1
1
1
1
1
1
1
1
1
1
1
1
1
1
1
1
1
1
1
1
1
1
1
1
1
1
1
1
1
1
1
1
1
1
1
1
1
1
1
1
1
1
1
1
1
1
1
1
1
1
1
1
1
1
1
1
1
1
1
1
1
1
1
1.36593
2.48558
2.67404
2.66821
2.66567
2.66292
2.66016
2.6573
2.65434
2.65131
2.64817
2.6449
2.64158
2.63819
1
1
1
1
1
1
1
1
1
1
1
1
1
1
1
1
1
1
1
1
1
1
1
1
1
1
1
1
1
1
1
1
1
1
1
1
1
1
1
1
1
1
1
1
1
1
1
1
1
1
1
1
1
1
1
1
1
1
1
1
1
1
1
1
1
1
1
1
1
1
1
1
1
1
1
1
1
1
1
1
1
1
1.20069
2.41207
2.67797
2.67261
2.6692
2.66592
2.66276
2.65963
2.65649
2.65333
2.65011
2.64677
2.64342
2.64003
1
1
1
1
1
1
1
1
1
1
1
1
1
1
1
1
1
1
1
1
1
1
1
1
1
1
1
1
1
1
1
1
1
1
1
1
1
1
1
1
1
1
1
1
1
1
1
1
1
1
1
1
1
1
1
1
1
1
1
1
1
1
1
1
1
1
1
1
1
1
1
1
1
1
1
1
1
1
1
1
1
1
1.05749
2.33063
2.6793
2.67683
2.67262
2.66926
2.66591
2.66265
2.65938
2.6561
2.65278
2.64937
2.646
2.64261
1
1
1
1
1
1
1
1
1
1
1
1
1
1
1
1
1
1
1
1
1
1
1
1
1
1
1
1
1
1
1
1
1
1
1
1
1
1
1
1
1
1
1
1
1
1
1
1
1
1
1
1
1
1
1
1
1
1
1
1
1
1
1
1
1
1
1
1
1
1
1
1
1
1
1
1
1
1
1
1
1
1
1.00071
2.25032
2.67723
2.67824
2.67394
2.67122
2.66805
2.66489
2.66162
2.65833
2.65503
2.65165
2.64833
2.64501
1
1
1
1
1
1
1
1
1
1
1
1
1
1
1
1
1
1
1
1
1
1
1
1
1
1
1
1
1
1
1
1
1
1
1
1
1
1
1
1
1
1
1
1
1
1
1
1
1
1
1
1
1
1
1
1
1
1
1
1
1
1
1
1
1
1
1
1
1
1
1
1
1
1
1
1
1
1
1
1
1
1
1
2.15958
2.67044
2.67905
2.67472
2.67232
2.66939
2.6665
2.66349
2.66046
2.65739
2.65424
2.6511
2.6479
1
1
1
1
1
1
1
1
1
1
1
1
1
1
1
1
1
1
1
1
1
1
1
1
1
1
1
1
1
1
1
1
1
1
1
1
1
1
1
1
1
1
1
1
1
1
1
1
1
1
1
1
1
1
1
1
1
1
1
1
1
1
1
1
1
1
1
1
1
1
1
1
1
1
1
1
1
1
1
1
1
1
1
2.07467
2.66089
2.68025
2.67564
2.67322
2.67032
2.66751
2.66459
2.66169
2.65872
2.65568
2.6526
2.64942
1
1
1
1
1
1
1
1
1
1
1
1
1
1
1
1
1
1
1
1
1
1
1
1
1
1
1
1
1
1
1
1
1
1
1
1
1
1
1
1
1
1
1
1
1
1
1
1
1
1
1
1
1
1
1
1
1
1
1
1
1
1
1
1
1
1
1
1
1
1
1
1
1
1
1
1
1
1
1
1
1
1
1
2.00184
2.65122
2.68167
2.6768
2.67434
2.67145
2.66865
2.66577
2.66291
2.65997
2.65697
2.65391
2.65072
1
1
1
1
1
1
1
1
1
1
1
1
1
1
1
1
1
1
1
1
1
1
1
1
1
1
1
1
1
1
1
1
1
1
1
1
1
1
1
1
1
1
1
1
1
1
1
1
1
1
1
1
1
1
1
1
1
1
1
1
1
1
1
1
1
1
1
1
1
1
1
1
1
1
1
1
1
1
1
1
1
1
1
1.94255
2.64264
2.68346
2.67832
2.67581
2.67286
2.67001
2.66707
2.66416
2.66116
2.65814
2.65505
2.65186
1
1
1
1
1
1
1
1
1
1
1
1
1
1
1
1
1
1
1
1
1
1
1
1
1
1
1
1
1
1
1
1
1
1
1
1
1
1
1
1
1
1
1
1
1
1
1
1
1
1
1
1
1
1
1
1
1
1
1
1
1
1
1
1
1
1
1
1
1
1
1
1
1
1
1
1
1
1
1
1
1
1
1
1.89591
2.63508
2.68515
2.67968
2.6771
2.67408
2.67115
2.66816
2.66518
2.6621
2.65904
2.65595
2.6528
1
1
1
1
1
1
1
1
1
1
1
1
1
1
1
1
1
1
1
1
1
1
1
1
1
1
1
1
1
1
1
1
1
1
1
1
1
1
1
1
1
1
1
1
1
1
1
1
1
1
1
1
1
1
1
1
1
1
1
1
1
1
1
1
1
1
1
1
1
1
1
1
1
1
1
1
1
1
1
1
1
1
1
1.86344
2.62916
2.68599
2.68026
2.67764
2.67463
2.67172
2.66876
2.66576
2.66264
2.65955
2.65647
2.65335
1
1
1
1
1
1
1
1
1
1
1
1
1
1
1
1
1
1
1
1
1
1
1
1
1
1
1
1
1
1
1