/*--------------------------------*- C++ -*----------------------------------*\
  =========                 |
  \\      /  F ield         | OpenFOAM: The Open Source CFD Toolbox
   \\    /   O peration     | Website:  https://openfoam.org
    \\  /    A nd           | Version:  7
     \\/     M anipulation  |
\*---------------------------------------------------------------------------*/
FoamFile
{
    version     2.0;
    format      ascii;
    class       volVectorField;
    location    "7.9";
    object      U;
}
// * * * * * * * * * * * * * * * * * * * * * * * * * * * * * * * * * * * * * //

dimensions      [0 1 -1 0 0 0 0];

internalField   nonuniform List<vector> 
19968
(
(3 -2.23283e-17 0)
(3 7.47546e-17 0)
(3 5.9138e-16 0)
(3 1.03724e-15 0)
(3 1.252e-15 0)
(3 1.21285e-15 0)
(3 1.16517e-15 0)
(3 1.14798e-15 0)
(3 1.31347e-15 0)
(3 8.00108e-16 0)
(3 7.42702e-16 0)
(3 6.1743e-16 0)
(3 -5.54796e-16 0)
(3 -2.51088e-16 0)
(3 4.96464e-18 0)
(3 5.86505e-16 0)
(3 2.12489e-16 0)
(3 -8.41255e-17 0)
(3 5.41424e-16 0)
(3 1.10918e-15 0)
(3 1.02345e-15 0)
(3 7.01702e-16 0)
(3 5.90839e-16 0)
(3 1.25721e-16 0)
(3 -8.64793e-17 0)
(3 -2.39594e-16 0)
(3 2.4828e-16 0)
(3 1.10504e-16 0)
(3 -8.65558e-16 0)
(3 -1.51762e-15 0)
(3 -4.85831e-16 0)
(3 1.5122e-16 0)
(3 -6.95371e-17 0)
(3 -2.85398e-16 0)
(3 -6.05144e-16 0)
(3 -9.76357e-16 0)
(3 -9.01406e-16 0)
(3 2.58938e-16 0)
(3 7.9229e-16 0)
(3 9.87254e-18 0)
(3 7.62776e-17 0)
(3 6.56858e-16 0)
(3 9.64246e-16 0)
(3 1.1504e-15 0)
(3 6.8551e-16 0)
(3 2.59618e-16 0)
(3 5.05121e-16 0)
(3 6.35865e-16 0)
(2.79005 0.00226248 0)
(0.966811 0.00637107 0)
(0.758689 0.00889287 0)
(0.742922 0.00717607 0)
(0.728098 0.00715268 0)
(0.714217 0.00783669 0)
(0.699353 0.00899541 0)
(0.683261 0.0101038 0)
(0.666513 0.0101899 0)
(0.650614 0.00912466 0)
(0.636034 0.00826694 0)
(0.621808 0.00847013 0)
(0.606823 0.00933733 0)
(0.590996 0.00982864 0)
(0.575475 0.00941255 0)
(0.560857 0.00900631 0)
(0.546328 0.00930399 0)
(0.531012 0.00979389 0)
(0.515046 0.00991247 0)
(0.499051 0.0097723 0)
(0.483305 0.00970608 0)
(0.467743 0.0098026 0)
(0.452158 0.00999798 0)
(0.436359 0.0101884 0)
(0.420277 0.0103159 0)
(0.403962 0.0104172 0)
(0.387531 0.0105457 0)
(0.371138 0.0106991 0)
(0.354899 0.0108523 0)
(0.338807 0.0109969 0)
(0.322726 0.0111294 0)
(0.306458 0.0112414 0)
(0.289819 0.0113334 0)
(0.272719 0.0114176 0)
(0.255232 0.0115076 0)
(0.237605 0.011616 0)
(0.220137 0.0117513 0)
(0.203002 0.0119134 0)
(0.186115 0.0120977 0)
(0.169145 0.0123031 0)
(0.151656 0.0125318 0)
(0.133299 0.0127868 0)
(0.11395 0.013079 0)
(0.0937512 0.0134028 0)
(0.0730324 0.0137735 0)
(0.0521163 0.0141914 0)
(0.0311744 0.0144784 0)
(0.0106958 0.014932 0)
(3 -2.36947e-16 0)
(3 -1.37579e-16 0)
(3 3.72421e-16 0)
(3 9.20829e-16 0)
(3 1.8226e-15 0)
(3 1.67749e-15 0)
(3 1.26419e-15 0)
(3 1.10587e-15 0)
(3 1.10305e-15 0)
(3 1.13139e-15 0)
(3 8.94221e-16 0)
(3 4.43178e-16 0)
(3 -1.28203e-16 0)
(3 -4.67224e-16 0)
(3 -2.22335e-16 0)
(3 -1.53031e-16 0)
(3 -5.6578e-16 0)
(3 -7.89417e-16 0)
(3 -3.09163e-16 0)
(3 1.52602e-16 0)
(3 1.71483e-16 0)
(3 1.13777e-16 0)
(3 3.55607e-16 0)
(3 2.13134e-16 0)
(3 4.96217e-17 0)
(3 3.40042e-16 0)
(3 5.12436e-16 0)
(3 -2.25857e-16 0)
(3 -1.2657e-15 0)
(3 -1.40203e-15 0)
(3 -1.0948e-15 0)
(3 -2.52586e-16 0)
(3 -3.86881e-16 0)
(3 1.65763e-16 0)
(3 2.09044e-16 0)
(3 -3.40562e-17 0)
(3 -2.09985e-16 0)
(3 3.21554e-17 0)
(3 -4.21461e-16 0)
(3 -4.12073e-16 0)
(3 1.25046e-16 0)
(3 2.98827e-16 0)
(3 6.14668e-16 0)
(3 4.01999e-16 0)
(3 3.09438e-16 0)
(3 2.41285e-16 0)
(3 -8.80113e-17 0)
(3 -4.21215e-16 0)
(2.80422 0.0127 0)
(0.971209 0.0290568 0)
(0.755019 0.0319972 0)
(0.739215 0.0228419 0)
(0.723533 0.0214442 0)
(0.709357 0.0228575 0)
(0.694652 0.0259948 0)
(0.67913 0.029159 0)
(0.663081 0.0297116 0)
(0.647704 0.0274461 0)
(0.632973 0.0253674 0)
(0.618337 0.0258063 0)
(0.603291 0.0281209 0)
(0.587551 0.0294967 0)
(0.572158 0.0285234 0)
(0.557436 0.027508 0)
(0.542764 0.0283219 0)
(0.527451 0.0296798 0)
(0.511563 0.0300307 0)
(0.495632 0.029743 0)
(0.479845 0.0296698 0)
(0.464181 0.0299651 0)
(0.44853 0.0304574 0)
(0.432739 0.0309384 0)
(0.4167 0.0312992 0)
(0.400399 0.0316255 0)
(0.38393 0.0320303 0)
(0.367459 0.032498 0)
(0.351124 0.0329659 0)
(0.334922 0.0334168 0)
(0.318718 0.0338406 0)
(0.30232 0.0342069 0)
(0.28557 0.0345077 0)
(0.26841 0.03477 0)
(0.250937 0.0350347 0)
(0.233392 0.035348 0)
(0.216044 0.0357483 0)
(0.199024 0.0362416 0)
(0.182228 0.036811 0)
(0.165337 0.0374431 0)
(0.147958 0.0381371 0)
(0.129779 0.0389009 0)
(0.110703 0.0397737 0)
(0.0908772 0.0407516 0)
(0.0706299 0.0418676 0)
(0.0502881 0.043132 0)
(0.0299949 0.0439805 0)
(0.0102677 0.0452719 0)
(3 1.19611e-16 0)
(3 -1.73136e-17 0)
(3 -3.63216e-16 0)
(3 -1.50156e-16 0)
(3 -7.48863e-17 0)
(3 -4.99392e-16 0)
(3 -8.15607e-16 0)
(3 3.34032e-17 0)
(3 3.74865e-16 0)
(3 -2.13319e-16 0)
(3 -6.83277e-16 0)
(3 -7.50605e-16 0)
(3 -5.1422e-16 0)
(3 -4.81394e-16 0)
(3 -1.24149e-15 0)
(3 -1.58044e-15 0)
(3 -1.87579e-15 0)
(3 -9.99375e-16 0)
(3 4.51497e-16 0)
(3 9.09203e-16 0)
(3 9.79392e-16 0)
(3 1.16787e-15 0)
(3 1.38726e-15 0)
(3 1.01285e-15 0)
(3 2.98374e-16 0)
(3 -3.20683e-17 0)
(3 -2.91448e-17 0)
(3 6.56438e-16 0)
(3 8.73313e-16 0)
(3 6.2065e-16 0)
(3 4.05365e-16 0)
(3 -3.1873e-16 0)
(3 4.81657e-17 0)
(3 -3.31551e-16 0)
(3 -2.45077e-16 0)
(3 -1.18465e-16 0)
(3 -7.93675e-16 0)
(3 -1.71078e-15 0)
(3 -7.32221e-16 0)
(3 2.55227e-16 0)
(3 1.32091e-15 0)
(3 2.49488e-15 0)
(3 3.55853e-15 0)
(3 2.56839e-15 0)
(3 1.42594e-15 0)
(3 1.96828e-15 0)
(3 2.5779e-15 0)
(3 2.37855e-15 0)
(2.8403 0.0204426 0)
(0.987771 0.0501819 0)
(0.759786 0.0529794 0)
(0.74473 0.041089 0)
(0.726999 0.0384965 0)
(0.711394 0.0404349 0)
(0.69603 0.0449309 0)
(0.680511 0.0491807 0)
(0.664781 0.0498216 0)
(0.649719 0.0467821 0)
(0.634741 0.0439958 0)
(0.619572 0.0447156 0)
(0.604302 0.0481317 0)
(0.588403 0.0501446 0)
(0.572906 0.0487407 0)
(0.557887 0.0473342 0)
(0.542945 0.0486483 0)
(0.527542 0.0507384 0)
(0.511626 0.0512577 0)
(0.49566 0.0508934 0)
(0.479732 0.0509537 0)
(0.463865 0.0515418 0)
(0.448036 0.0523401 0)
(0.432143 0.0530938 0)
(0.416046 0.0537017 0)
(0.399668 0.0542854 0)
(0.383068 0.054978 0)
(0.366419 0.0557426 0)
(0.349875 0.0564945 0)
(0.333445 0.0572168 0)
(0.316995 0.0578935 0)
(0.300342 0.0584769 0)
(0.283357 0.0589601 0)
(0.26603 0.0593906 0)
(0.248498 0.059831 0)
(0.231004 0.0603467 0)
(0.213771 0.0609932 0)
(0.196865 0.0617817 0)
(0.180135 0.0626933 0)
(0.163268 0.0637111 0)
(0.145911 0.0648307 0)
(0.1278 0.066052 0)
(0.108866 0.0674228 0)
(0.089253 0.0689377 0)
(0.0692799 0.070638 0)
(0.0492782 0.0725821 0)
(0.0293404 0.0738256 0)
(0.0100322 0.0757832 0)
(3 9.10369e-17 0)
(3 2.19712e-16 0)
(3 -1.03149e-16 0)
(3 -3.58442e-16 0)
(3 -1.07146e-15 0)
(3 -1.04015e-15 0)
(3 -9.00954e-16 0)
(3 -9.07312e-16 0)
(3 -4.35214e-17 0)
(3 -2.77589e-16 0)
(3 -1.21634e-16 0)
(3 3.10045e-18 0)
(3 9.31765e-17 0)
(3 -3.25683e-16 0)
(3 -5.58033e-16 0)
(3 -1.27431e-16 0)
(3 8.92125e-16 0)
(3 1.76998e-15 0)
(3 2.53466e-15 0)
(3 2.88708e-15 0)
(3 2.51356e-15 0)
(3 1.92183e-15 0)
(3 1.71985e-15 0)
(3 1.82637e-15 0)
(3 1.826e-15 0)
(3 2.20294e-16 0)
(3 -2.14122e-16 0)
(3 -1.43009e-16 0)
(3 4.28917e-16 0)
(3 3.88921e-16 0)
(3 2.39064e-17 0)
(3 -3.47867e-17 0)
(3 -4.09326e-17 0)
(3 -1.13986e-16 0)
(3 -1.91507e-16 0)
(3 -3.27106e-16 0)
(3 7.64606e-17 0)
(3 1.31789e-15 0)
(3 1.82244e-15 0)
(3 2.51476e-15 0)
(3 3.24581e-15 0)
(3 4.21409e-15 0)
(3 3.57941e-15 0)
(3 2.0131e-15 0)
(3 1.55897e-15 0)
(3 2.43831e-15 0)
(3 3.5363e-15 0)
(3 4.18076e-15 0)
(2.88621 0.0238292 0)
(1.01037 0.0704447 0)
(0.760375 0.0719895 0)
(0.746037 0.060397 0)
(0.728684 0.0577426 0)
(0.71276 0.0595355 0)
(0.697395 0.0645085 0)
(0.682221 0.0690845 0)
(0.667042 0.0697702 0)
(0.652386 0.0666762 0)
(0.637449 0.0637616 0)
(0.622159 0.0647631 0)
(0.607041 0.0689447 0)
(0.591293 0.0714674 0)
(0.575854 0.0699173 0)
(0.560653 0.0683628 0)
(0.545541 0.0701129 0)
(0.530117 0.0727821 0)
(0.514207 0.0734455 0)
(0.498203 0.073125 0)
(0.482127 0.0734962 0)
(0.466039 0.074505 0)
(0.449978 0.0756359 0)
(0.433902 0.0766533 0)
(0.417644 0.0775398 0)
(0.401063 0.0784393 0)
(0.384186 0.0794563 0)
(0.367189 0.0805244 0)
(0.35024 0.0815531 0)
(0.333356 0.0825313 0)
(0.316406 0.0834332 0)
(0.299224 0.0841941 0)
(0.281728 0.0848124 0)
(0.26397 0.0853613 0)
(0.246138 0.0859247 0)
(0.228484 0.0865845 0)
(0.211195 0.0874128 0)
(0.19428 0.0884319 0)
(0.177562 0.0896316 0)
(0.160748 0.0910031 0)
(0.143533 0.0925433 0)
(0.125685 0.09424 0)
(0.107125 0.0961312 0)
(0.0879388 0.0982086 0)
(0.0683752 0.100487 0)
(0.048742 0.103109 0)
(0.029044 0.104721 0)
(0.00995609 0.107289 0)
(3 -1.88083e-16 0)
(3 -3.21751e-16 0)
(3 -8.29807e-17 0)
(3 -1.02175e-16 0)
(3 -1.20084e-16 0)
(3 3.6915e-16 0)
(3 4.29186e-16 0)
(3 -3.08653e-16 0)
(3 -4.26579e-16 0)
(3 -9.38925e-17 0)
(3 -5.61918e-17 0)
(3 7.85293e-17 0)
(3 2.74742e-16 0)
(3 3.87351e-16 0)
(3 1.11695e-15 0)
(3 1.96395e-15 0)
(3 2.59118e-15 0)
(3 2.96154e-15 0)
(3 2.88267e-15 0)
(3 2.91493e-15 0)
(3 2.67207e-15 0)
(3 1.18802e-15 0)
(3 3.38741e-16 0)
(3 8.38211e-16 0)
(3 1.55007e-15 0)
(3 8.63506e-16 0)
(3 -1.3418e-15 0)
(3 -2.44112e-15 0)
(3 -2.37377e-15 0)
(3 -1.95426e-15 0)
(3 -1.16286e-15 0)
(3 -1.23811e-15 0)
(3 -1.42526e-15 0)
(3 -1.08635e-15 0)
(3 -4.64373e-16 0)
(3 -3.06733e-16 0)
(3 9.31379e-16 0)
(3 1.18699e-15 0)
(3 1.10862e-15 0)
(3 7.27697e-16 0)
(3 6.17194e-16 0)
(3 4.50533e-16 0)
(3 -3.67532e-16 0)
(3 -3.24839e-16 0)
(3 8.46622e-16 0)
(3 9.08469e-17 0)
(3 -1.81708e-16 0)
(3 6.01867e-17 0)
(2.93621 0.0329641 0)
(1.038 0.0992779 0)
(0.762715 0.0898255 0)
(0.750575 0.0786135 0)
(0.734518 0.0777571 0)
(0.71838 0.0800343 0)
(0.702588 0.0850972 0)
(0.687317 0.0893086 0)
(0.672465 0.0898475 0)
(0.658014 0.0871299 0)
(0.643143 0.084487 0)
(0.627887 0.0857 0)
(0.613074 0.0902648 0)
(0.597767 0.0932225 0)
(0.582615 0.0919263 0)
(0.567408 0.090569 0)
(0.552217 0.0927942 0)
(0.536771 0.0959553 0)
(0.520859 0.0967711 0)
(0.504843 0.0966202 0)
(0.488709 0.0974969 0)
(0.472515 0.0991191 0)
(0.456305 0.100677 0)
(0.440104 0.101984 0)
(0.423748 0.103206 0)
(0.407038 0.104519 0)
(0.389954 0.105951 0)
(0.372654 0.10739 0)
(0.355306 0.108758 0)
(0.337922 0.110061 0)
(0.320367 0.111267 0)
(0.302492 0.112293 0)
(0.284249 0.113132 0)
(0.265743 0.113864 0)
(0.247205 0.114571 0)
(0.228895 0.115329 0)
(0.210973 0.116216 0)
(0.193419 0.117267 0)
(0.17606 0.118498 0)
(0.158662 0.119937 0)
(0.14101 0.121615 0)
(0.122952 0.123542 0)
(0.104438 0.125767 0)
(0.0855294 0.128308 0)
(0.0663967 0.131102 0)
(0.0473244 0.134407 0)
(0.0281631 0.136406 0)
(0.00965676 0.139572 0)
(3 7.70957e-17 0)
(3 3.56653e-16 0)
(3 8.07331e-16 0)
(3 5.93474e-16 0)
(3 4.88655e-16 0)
(3 5.90161e-16 0)
(3 7.58133e-16 0)
(3 7.97474e-16 0)
(3 3.39298e-16 0)
(3 2.1918e-16 0)
(3 4.62953e-16 0)
(3 2.56016e-16 0)
(3 -1.06302e-16 0)
(3 1.76345e-17 0)
(3 -4.72128e-17 0)
(3 4.83156e-16 0)
(3 1.29674e-15 0)
(3 1.46194e-15 0)
(3 1.87364e-15 0)
(3 2.76545e-15 0)
(3 3.30744e-15 0)
(3 1.9004e-15 0)
(3 -3.6967e-17 0)
(3 -1.15152e-16 0)
(3 -1.21961e-15 0)
(3 -1.42204e-15 0)
(3 -6.55161e-16 0)
(3 3.15275e-16 0)
(3 -3.31918e-16 0)
(3 -8.76695e-16 0)
(3 -9.1666e-16 0)
(3 -1.21245e-15 0)
(3 -1.33593e-15 0)
(3 -1.6532e-15 0)
(3 -1.33515e-15 0)
(3 -1.10543e-15 0)
(3 -5.31048e-16 0)
(3 -2.72626e-17 0)
(3 -9.65263e-17 0)
(3 3.67569e-16 0)
(3 2.13651e-16 0)
(3 -1.27223e-16 0)
(3 3.9167e-16 0)
(3 1.17479e-15 0)
(3 5.8787e-16 0)
(3 -4.63545e-16 0)
(3 -7.34238e-16 0)
(3 -3.54596e-17 0)
(2.99663 0.00288475 0)
(1.10407 0.120553 0)
(0.776159 0.100925 0)
(0.760855 0.0941885 0)
(0.74603 0.0975291 0)
(0.729574 0.101442 0)
(0.713466 0.106232 0)
(0.697916 0.109315 0)
(0.68306 0.10963 0)
(0.668406 0.107765 0)
(0.653335 0.105755 0)
(0.638013 0.106965 0)
(0.623418 0.111325 0)
(0.608711 0.114361 0)
(0.59403 0.113602 0)
(0.579022 0.11292 0)
(0.563941 0.11573 0)
(0.548578 0.119274 0)
(0.532797 0.12011 0)
(0.516955 0.120053 0)
(0.501021 0.121459 0)
(0.485012 0.123825 0)
(0.468897 0.125899 0)
(0.452764 0.127483 0)
(0.436502 0.12904 0)
(0.419882 0.130843 0)
(0.402828 0.132799 0)
(0.385466 0.134719 0)
(0.367952 0.136549 0)
(0.350291 0.13833 0)
(0.332345 0.140031 0)
(0.313968 0.14155 0)
(0.295136 0.142872 0)
(0.275982 0.144069 0)
(0.256753 0.145201 0)
(0.237704 0.146316 0)
(0.218963 0.147472 0)
(0.200481 0.148708 0)
(0.182082 0.150053 0)
(0.163579 0.151558 0)
(0.144843 0.153278 0)
(0.125813 0.155253 0)
(0.106498 0.157543 0)
(0.0869815 0.160264 0)
(0.0673827 0.163273 0)
(0.0479964 0.167036 0)
(0.0285236 0.169279 0)
(0.00976623 0.172915 0)
(3 7.38585e-17 0)
(3 4.56248e-16 0)
(3 4.14673e-16 0)
(3 5.31694e-16 0)
(3 4.73408e-16 0)
(3 -3.06801e-17 0)
(3 1.0311e-16 0)
(3 3.28849e-16 0)
(3 1.33669e-16 0)
(3 1.70614e-16 0)
(3 7.63452e-16 0)
(3 7.82829e-16 0)
(3 4.36684e-16 0)
(3 1.62019e-16 0)
(3 -3.68894e-16 0)
(3 -3.54645e-16 0)
(3 -1.51309e-16 0)
(3 3.28585e-17 0)
(3 3.71272e-16 0)
(3 9.47387e-16 0)
(3 4.89942e-16 0)
(3 -2.16726e-15 0)
(3 -2.55362e-15 0)
(3 -2.66413e-15 0)
(3 -2.27933e-15 0)
(3 -2.29277e-15 0)
(3 -1.29079e-15 0)
(3 -8.6924e-16 0)
(3 -4.71032e-16 0)
(3 -1.95819e-16 0)
(3 1.60135e-16 0)
(3 3.501e-16 0)
(3 6.89614e-17 0)
(3 -9.6773e-16 0)
(3 -1.6885e-15 0)
(3 -1.85442e-15 0)
(3 -1.124e-15 0)
(3 6.38047e-16 0)
(3 1.211e-15 0)
(3 1.56171e-15 0)
(3 1.60933e-15 0)
(3 1.01882e-15 0)
(3 9.4862e-16 0)
(3 1.2074e-15 0)
(3 1.2377e-15 0)
(3 1.03101e-15 0)
(3 8.45905e-16 0)
(3 1.51303e-15 0)
(3.00004 5.55051e-05 0)
(1.22244 0.13879 0)
(0.778668 0.120808 0)
(0.754476 0.114964 0)
(0.739965 0.120588 0)
(0.723789 0.125171 0)
(0.708722 0.129591 0)
(0.693956 0.132043 0)
(0.67946 0.132599 0)
(0.664697 0.131781 0)
(0.64951 0.130305 0)
(0.634271 0.13085 0)
(0.620033 0.134361 0)
(0.606113 0.137374 0)
(0.592013 0.13753 0)
(0.577369 0.138021 0)
(0.562598 0.141589 0)
(0.547489 0.145378 0)
(0.532071 0.146095 0)
(0.516668 0.146059 0)
(0.501248 0.148 0)
(0.48583 0.151245 0)
(0.470219 0.153989 0)
(0.454536 0.155882 0)
(0.438757 0.157755 0)
(0.422671 0.16008 0)
(0.406136 0.16264 0)
(0.389217 0.165116 0)
(0.372056 0.167461 0)
(0.354669 0.169756 0)
(0.336932 0.17198 0)
(0.318704 0.174021 0)
(0.299959 0.175856 0)
(0.280827 0.177552 0)
(0.261547 0.179148 0)
(0.242356 0.180655 0)
(0.223364 0.182105 0)
(0.204507 0.183526 0)
(0.185616 0.184955 0)
(0.166533 0.186459 0)
(0.147184 0.188112 0)
(0.127572 0.189995 0)
(0.107757 0.192165 0)
(0.0878588 0.194884 0)
(0.0679575 0.1979 0)
(0.0483972 0.201971 0)
(0.0287319 0.204368 0)
(0.00982751 0.208393 0)
(3 5.57497e-17 0)
(3 -1.64516e-16 0)
(3 -1.20948e-15 0)
(3 -8.17642e-16 0)
(3 3.75552e-18 0)
(3 4.31087e-16 0)
(3 9.48465e-17 0)
(3 3.08494e-17 0)
(3 -2.30063e-19 0)
(3 7.09004e-17 0)
(3 6.38336e-17 0)
(3 5.73511e-16 0)
(3 1.09751e-15 0)
(3 1.36066e-15 0)
(3 1.54864e-15 0)
(3 1.30404e-15 0)
(3 -7.53926e-17 0)
(3 -1.72568e-15 0)
(3 -2.1367e-15 0)
(3 -2.6756e-15 0)
(3 -2.42316e-15 0)
(3 -2.06603e-15 0)
(3 -1.79562e-15 0)
(3 -2.44434e-15 0)
(3 -2.27556e-15 0)
(3 -2.02323e-15 0)
(3 -2.45779e-15 0)
(3 -2.54925e-15 0)
(3 -2.09632e-15 0)
(3 -1.56362e-15 0)
(3 -1.05418e-15 0)
(3 -6.07481e-16 0)
(3 -7.76561e-16 0)
(3 -1.19651e-15 0)
(3 -1.66346e-15 0)
(3 -1.23374e-15 0)
(3 -3.38563e-17 0)
(3 -9.08698e-18 0)
(3 3.51298e-16 0)
(3 7.81432e-16 0)
(3 7.60132e-16 0)
(3 8.27244e-16 0)
(3 1.10013e-15 0)
(3 1.13136e-15 0)
(3 8.558e-16 0)
(3 5.54424e-16 0)
(3 1.86086e-17 0)
(3 -2.00807e-16 0)
(3 1.02744e-07 0)
(1.42543 0.166665 0)
(0.791792 0.147499 0)
(0.754175 0.139345 0)
(0.738497 0.143858 0)
(0.722472 0.147646 0)
(0.708041 0.151346 0)
(0.69381 0.153841 0)
(0.679472 0.155547 0)
(0.664528 0.156419 0)
(0.649105 0.155782 0)
(0.63383 0.155151 0)
(0.619626 0.15686 0)
(0.606276 0.159312 0)
(0.59275 0.160438 0)
(0.578652 0.162319 0)
(0.564485 0.166733 0)
(0.549946 0.170665 0)
(0.535259 0.17107 0)
(0.520668 0.17085 0)
(0.506124 0.173153 0)
(0.491662 0.177269 0)
(0.476839 0.180867 0)
(0.46177 0.183163 0)
(0.446586 0.185321 0)
(0.431139 0.188173 0)
(0.415219 0.191451 0)
(0.39879 0.194671 0)
(0.381974 0.197757 0)
(0.364821 0.200834 0)
(0.347243 0.203892 0)
(0.329109 0.206798 0)
(0.31038 0.209501 0)
(0.291157 0.212054 0)
(0.27165 0.214474 0)
(0.252074 0.216729 0)
(0.232538 0.218817 0)
(0.212989 0.220743 0)
(0.19328 0.222531 0)
(0.173281 0.224244 0)
(0.152957 0.225949 0)
(0.132362 0.227777 0)
(0.111598 0.229767 0)
(0.0908323 0.232378 0)
(0.0701353 0.235229 0)
(0.0498988 0.239479 0)
(0.0295961 0.241953 0)
(0.0101075 0.246301 0)
(3 -9.06944e-17 0)
(3 -2.80848e-17 0)
(3 2.82892e-18 0)
(3 -5.26254e-16 0)
(3 -5.50703e-16 0)
(3 -3.2801e-16 0)
(3 7.57751e-17 0)
(3 8.08065e-17 0)
(3 5.16664e-17 0)
(3 -2.50712e-16 0)
(3 -5.76783e-16 0)
(3 -5.96383e-16 0)
(3 -1.76016e-16 0)
(3 3.74471e-16 0)
(3 8.42409e-16 0)
(3 8.40035e-16 0)
(3 6.71176e-16 0)
(3 -9.4642e-16 0)
(3 -2.33322e-15 0)
(3 -2.57173e-15 0)
(3 -1.60764e-15 0)
(3 -1.25846e-15 0)
(3 -1.60402e-15 0)
(3 -2.286e-15 0)
(3 -3.13882e-15 0)
(3 -2.25924e-15 0)
(3 -1.25061e-15 0)
(3 -1.23931e-15 0)
(3 -1.24027e-15 0)
(3 -1.51989e-15 0)
(3 -7.67738e-16 0)
(3 -5.46082e-16 0)
(3 -2.72321e-16 0)
(3 1.40033e-16 0)
(3 7.38999e-16 0)
(3 2.98131e-16 0)
(3 -8.19364e-17 0)
(3 -2.08626e-16 0)
(3 -2.79903e-16 0)
(3 5.45057e-17 0)
(3 -1.66516e-17 0)
(3 1.64009e-16 0)
(3 3.96562e-16 0)
(3 2.0024e-16 0)
(3 -2.96689e-16 0)
(3 -1.55529e-15 0)
(3 -1.66433e-15 0)
(3 -1.40491e-15 0)
(3 2.11565e-10 0)
(1.73423 0.187717 0)
(0.820906 0.17718 0)
(0.761478 0.170389 0)
(0.742792 0.169212 0)
(0.725792 0.170354 0)
(0.710947 0.172972 0)
(0.696481 0.176276 0)
(0.681887 0.180058 0)
(0.666629 0.183192 0)
(0.650791 0.183675 0)
(0.63531 0.181678 0)
(0.620671 0.180846 0)
(0.607007 0.182155 0)
(0.593335 0.184065 0)
(0.579193 0.187382 0)
(0.565058 0.192694 0)
(0.550535 0.196696 0)
(0.536038 0.196704 0)
(0.521732 0.19609 0)
(0.507595 0.198546 0)
(0.493833 0.203554 0)
(0.47974 0.208304 0)
(0.465297 0.211261 0)
(0.450816 0.213728 0)
(0.436265 0.217092 0)
(0.421366 0.221184 0)
(0.405907 0.225319 0)
(0.389937 0.229322 0)
(0.373526 0.233361 0)
(0.356622 0.237456 0)
(0.339097 0.241453 0)
(0.320888 0.245262 0)
(0.302058 0.24891 0)
(0.282771 0.252393 0)
(0.263204 0.255644 0)
(0.243453 0.258622 0)
(0.223474 0.261303 0)
(0.203136 0.26369 0)
(0.18233 0.265832 0)
(0.161047 0.267769 0)
(0.139381 0.269671 0)
(0.117469 0.27153 0)
(0.0955394 0.27402 0)
(0.0736805 0.276585 0)
(0.0523724 0.280904 0)
(0.0310432 0.283396 0)
(0.0105975 0.288024 0)
(3 -9.31189e-17 0)
(3 -5.33292e-17 0)
(3 1.28999e-16 0)
(3 -1.38469e-16 0)
(3 -4.1871e-16 0)
(3 -7.33936e-16 0)
(3 -4.07528e-16 0)
(3 -5.10154e-16 0)
(3 -9.42793e-16 0)
(3 -1.20187e-15 0)
(3 -1.61508e-15 0)
(3 -1.81331e-15 0)
(3 -2.19922e-15 0)
(3 -2.25854e-15 0)
(3 -1.88275e-15 0)
(3 -1.38371e-16 0)
(3 1.17694e-16 0)
(3 -1.89034e-16 0)
(3 -5.35626e-16 0)
(3 -9.89777e-16 0)
(3 -8.40149e-16 0)
(3 -7.73411e-16 0)
(3 -8.81032e-16 0)
(3 -5.46697e-16 0)
(3 -5.23717e-16 0)
(3 1.37023e-16 0)
(3 3.88481e-16 0)
(3 1.61039e-16 0)
(3 -3.75766e-17 0)
(3 4.92295e-18 0)
(3 9.79389e-17 0)
(3 -5.80462e-17 0)
(3 1.94537e-17 0)
(3 4.40233e-17 0)
(3 3.07135e-16 0)
(3 1.26383e-16 0)
(3 -2.5473e-16 0)
(3 -1.27801e-16 0)
(3 -6.45902e-17 0)
(3 -1.96754e-16 0)
(3 -2.01996e-16 0)
(3 3.09973e-17 0)
(3 -1.77211e-16 0)
(3 -1.41139e-16 0)
(3 -6.59101e-16 0)
(3 -6.55903e-16 0)
(3 -8.29333e-16 0)
(3 -1.58155e-15 0)
(3 4.05934e-13 0)
(2.15079 0.1934 0)
(0.86184 0.212922 0)
(0.759639 0.208568 0)
(0.743086 0.199658 0)
(0.726457 0.196974 0)
(0.712137 0.197983 0)
(0.698457 0.201708 0)
(0.685004 0.207313 0)
(0.670948 0.212533 0)
(0.655932 0.214118 0)
(0.641033 0.211242 0)
(0.626402 0.208058 0)
(0.612139 0.207929 0)
(0.597986 0.210292 0)
(0.583559 0.214865 0)
(0.569211 0.220979 0)
(0.554439 0.225005 0)
(0.539717 0.224626 0)
(0.525154 0.22328 0)
(0.510717 0.225235 0)
(0.49696 0.230591 0)
(0.483087 0.236345 0)
(0.468754 0.239996 0)
(0.45441 0.242533 0)
(0.440201 0.246055 0)
(0.425911 0.250781 0)
(0.411159 0.255851 0)
(0.39589 0.260862 0)
(0.3802 0.265989 0)
(0.364074 0.271311 0)
(0.347382 0.276664 0)
(0.330015 0.2819 0)
(0.311964 0.287007 0)
(0.293306 0.291968 0)
(0.274133 0.296685 0)
(0.254489 0.301064 0)
(0.234325 0.305027 0)
(0.213548 0.30852 0)
(0.192096 0.311552 0)
(0.169991 0.314107 0)
(0.147344 0.316391 0)
(0.124291 0.318318 0)
(0.101101 0.320781 0)
(0.0779008 0.322989 0)
(0.0552994 0.327255 0)
(0.0327564 0.329694 0)
(0.0111771 0.334565 0)
(3 8.83709e-17 0)
(3 2.25655e-17 0)
(3 -7.60824e-17 0)
(3 1.79742e-16 0)
(3 2.5905e-16 0)
(3 1.9828e-16 0)
(3 -1.56357e-16 0)
(3 -3.06798e-16 0)
(3 -4.10927e-16 0)
(3 -5.67497e-16 0)
(3 -9.31575e-16 0)
(3 -8.45275e-16 0)
(3 -5.90179e-16 0)
(3 -6.38715e-16 0)
(3 -7.3379e-16 0)
(3 -9.65637e-16 0)
(3 -1.3592e-15 0)
(3 -8.2667e-16 0)
(3 -3.80692e-16 0)
(3 2.40847e-16 0)
(3 2.23728e-16 0)
(3 -7.92258e-19 0)
(3 -1.96117e-16 0)
(3 5.24909e-16 0)
(3 9.24112e-16 0)
(3 6.63849e-16 0)
(3 2.29149e-16 0)
(3 1.9307e-16 0)
(3 2.06373e-16 0)
(3 5.5731e-17 0)
(3 -4.0656e-16 0)
(3 -5.18308e-16 0)
(3 -4.809e-16 0)
(3 -6.15413e-16 0)
(3 -6.2074e-16 0)
(3 -3.98775e-16 0)
(3 -6.6753e-16 0)
(3 -9.80736e-16 0)
(3 -8.43323e-16 0)
(3 -7.40487e-16 0)
(3 1.121e-16 0)
(3 4.01829e-16 0)
(3 4.42662e-16 0)
(3 2.98601e-16 0)
(3 8.7494e-16 0)
(3 1.18602e-15 0)
(3 1.04098e-15 0)
(3 6.51802e-16 0)
(3 6.1187e-16 0)
(2.67249 0.174633 0)
(0.960725 0.25856 0)
(0.783729 0.238491 0)
(0.77465 0.224875 0)
(0.755374 0.220652 0)
(0.738844 0.219204 0)
(0.722798 0.222966 0)
(0.707944 0.230396 0)
(0.693418 0.238265 0)
(0.678122 0.242087 0)
(0.662838 0.240119 0)
(0.647684 0.236052 0)
(0.632289 0.235006 0)
(0.61708 0.237826 0)
(0.601977 0.24362 0)
(0.587137 0.25067 0)
(0.571889 0.255235 0)
(0.556445 0.255308 0)
(0.540939 0.253707 0)
(0.525338 0.255021 0)
(0.510534 0.26036 0)
(0.496059 0.267044 0)
(0.481052 0.271723 0)
(0.465859 0.274447 0)
(0.450823 0.277829 0)
(0.435952 0.282811 0)
(0.420838 0.288553 0)
(0.405275 0.294339 0)
(0.38938 0.300282 0)
(0.373225 0.306589 0)
(0.356722 0.31316 0)
(0.339753 0.319811 0)
(0.322278 0.32647 0)
(0.304312 0.333081 0)
(0.285856 0.339499 0)
(0.266853 0.345559 0)
(0.247174 0.351133 0)
(0.226658 0.356125 0)
(0.205197 0.360537 0)
(0.182736 0.364322 0)
(0.159318 0.367701 0)
(0.135021 0.370423 0)
(0.110178 0.373512 0)
(0.0849763 0.375776 0)
(0.0602922 0.380135 0)
(0.0356851 0.382572 0)
(0.0121853 0.387759 0)
(3 -1.34139e-17 0)
(3 -7.8703e-17 0)
(3 6.24455e-17 0)
(3 3.4109e-16 0)
(3 1.26146e-16 0)
(3 -1.50286e-16 0)
(3 -3.36425e-16 0)
(3 -3.50535e-16 0)
(3 -3.2628e-16 0)
(3 -3.55499e-17 0)
(3 2.56634e-16 0)
(3 4.87917e-16 0)
(3 4.4634e-16 0)
(3 3.14323e-16 0)
(3 1.41988e-17 0)
(3 -7.89852e-16 0)
(3 -9.50084e-16 0)
(3 -7.61599e-16 0)
(3 -4.94102e-16 0)
(3 -4.30433e-16 0)
(3 -5.68182e-16 0)
(3 -3.62606e-16 0)
(3 9.99689e-17 0)
(3 -5.72814e-17 0)
(3 -1.85145e-16 0)
(3 -4.67092e-16 0)
(3 -3.02944e-16 0)
(3 6.59018e-16 0)
(3 9.33877e-16 0)
(3 -7.96948e-16 0)
(3 -2.16286e-15 0)
(3 -2.16917e-15 0)
(3 -2.01561e-15 0)
(3 -1.6381e-15 0)
(3 -1.30571e-15 0)
(3 -7.96843e-16 0)
(3 -4.35022e-16 0)
(3 -4.263e-16 0)
(3 -6.54635e-16 0)
(3 -1.02161e-15 0)
(3 -1.22073e-15 0)
(3 -9.75245e-16 0)
(3 -5.49023e-16 0)
(3 3.09491e-16 0)
(3 1.39211e-15 0)
(3 1.3357e-15 0)
(3 1.04685e-15 0)
(3 1.23794e-15 0)
(3 8.12664e-16 0)
(3.02114 0.0107941 0)
(1.14603 0.281028 0)
(0.810995 0.234605 0)
(0.79892 0.247863 0)
(0.782032 0.250325 0)
(0.765353 0.250348 0)
(0.748275 0.25282 0)
(0.732615 0.25874 0)
(0.718523 0.265712 0)
(0.7045 0.269655 0)
(0.690176 0.26879 0)
(0.675558 0.265028 0)
(0.660213 0.26323 0)
(0.644857 0.265665 0)
(0.629862 0.271607 0)
(0.61525 0.27894 0)
(0.600307 0.284267 0)
(0.584836 0.285754 0)
(0.56895 0.284889 0)
(0.552651 0.285656 0)
(0.536857 0.290432 0)
(0.521785 0.297722 0)
(0.506284 0.304021 0)
(0.490221 0.307817 0)
(0.474098 0.311338 0)
(0.458172 0.316517 0)
(0.442192 0.322943 0)
(0.4258 0.329584 0)
(0.409066 0.336312 0)
(0.392153 0.343466 0)
(0.375054 0.351119 0)
(0.357651 0.359113 0)
(0.339865 0.367338 0)
(0.321649 0.375727 0)
(0.302918 0.38414 0)
(0.283516 0.392388 0)
(0.263252 0.400321 0)
(0.241938 0.407791 0)
(0.219483 0.414696 0)
(0.195869 0.420842 0)
(0.171199 0.426334 0)
(0.14543 0.43062 0)
(0.119057 0.434879 0)
(0.0919841 0.437638 0)
(0.0651727 0.442044 0)
(0.038483 0.444287 0)
(0.0130218 0.449553 0)
(3 -3.51563e-17 0)
(3 -1.2309e-17 0)
(3 1.67798e-17 0)
(3 1.85951e-16 0)
(3 3.99505e-16 0)
(3 3.08595e-16 0)
(3 3.06703e-16 0)
(3 4.60935e-16 0)
(3 6.64222e-16 0)
(3 1.18554e-15 0)
(3 1.52641e-15 0)
(3 1.65126e-15 0)
(3 1.5068e-15 0)
(3 1.34277e-15 0)
(3 1.06592e-15 0)
(3 7.07458e-16 0)
(3 8.59882e-16 0)
(3 1.02364e-15 0)
(3 8.09605e-16 0)
(3 4.75194e-16 0)
(3 4.37943e-16 0)
(3 5.74545e-16 0)
(3 8.79302e-16 0)
(3 7.98884e-16 0)
(3 1.74112e-16 0)
(3 -7.42151e-17 0)
(3 -3.32284e-17 0)
(3 -8.16249e-17 0)
(3 -3.49289e-16 0)
(3 -8.41828e-16 0)
(3 -8.96369e-16 0)
(3 -1.17559e-15 0)
(3 -1.30923e-15 0)
(3 -1.12788e-15 0)
(3 -7.80839e-16 0)
(3 -3.61934e-16 0)
(3 7.65565e-16 0)
(3 2.03273e-15 0)
(3 2.39146e-15 0)
(3 1.97287e-15 0)
(3 6.83787e-16 0)
(3 4.54509e-16 0)
(3 4.66057e-16 0)
(3 6.90248e-16 0)
(3 6.26173e-16 0)
(3 5.1565e-16 0)
(3 6.04771e-16 0)
(3 6.164e-16 0)
(3 2.94389e-16 0)
(3.00032 1.04607e-05 0)
(1.55569 0.310871 0)
(0.825369 0.274322 0)
(0.784403 0.281369 0)
(0.768742 0.286195 0)
(0.753447 0.286722 0)
(0.738599 0.287248 0)
(0.725077 0.290164 0)
(0.713351 0.295094 0)
(0.702112 0.299403 0)
(0.690164 0.300653 0)
(0.677401 0.29889 0)
(0.663532 0.297684 0)
(0.649206 0.300075 0)
(0.635221 0.305976 0)
(0.621774 0.313382 0)
(0.608395 0.319479 0)
(0.594618 0.322525 0)
(0.580317 0.323115 0)
(0.565371 0.32398 0)
(0.550371 0.327856 0)
(0.536145 0.334892 0)
(0.521954 0.342384 0)
(0.506949 0.34763 0)
(0.491468 0.351487 0)
(0.475933 0.356482 0)
(0.460396 0.363103 0)
(0.444467 0.370316 0)
(0.428068 0.377599 0)
(0.411402 0.38529 0)
(0.394555 0.3937 0)
(0.377424 0.402792 0)
(0.359904 0.412436 0)
(0.341959 0.422532 0)
(0.323564 0.432938 0)
(0.304625 0.443431 0)
(0.284972 0.453795 0)
(0.264437 0.463832 0)
(0.242823 0.473357 0)
(0.21968 0.481949 0)
(0.195127 0.489808 0)
(0.168636 0.49647 0)
(0.140333 0.503608 0)
(0.109796 0.509628 0)
(0.0782144 0.516108 0)
(0.0461414 0.519159 0)
(0.0153816 0.524292 0)
(3 1.3443e-16 0)
(3 2.98719e-16 0)
(3 3.07629e-16 0)
(3 2.09048e-16 0)
(3 6.48236e-16 0)
(3 8.49403e-16 0)
(3 8.872e-16 0)
(3 1.00775e-15 0)
(3 1.36679e-15 0)
(3 1.39422e-15 0)
(3 1.20798e-15 0)
(3 1.21282e-15 0)
(3 1.68501e-15 0)
(3 1.97683e-15 0)
(3 1.93943e-15 0)
(3 1.64479e-15 0)
(3 1.61548e-15 0)
(3 1.71519e-15 0)
(3 1.87297e-15 0)
(3 2.03018e-15 0)
(3 2.52359e-15 0)
(3 2.2977e-15 0)
(3 1.83559e-15 0)
(3 7.75046e-16 0)
(3 2.24877e-16 0)
(3 -5.11962e-16 0)
(3 -7.32899e-16 0)
(3 -1.00958e-15 0)
(3 -1.79596e-15 0)
(3 -1.27028e-15 0)
(3 -1.16486e-15 0)
(3 -1.05693e-15 0)
(3 -9.61483e-16 0)
(3 -1.17996e-15 0)
(3 -1.60403e-15 0)
(3 -1.55763e-15 0)
(3 -1.40572e-15 0)
(3 -8.9002e-17 0)
(3 5.04501e-16 0)
(3 6.46396e-16 0)
(3 5.46329e-16 0)
(3 5.76833e-16 0)
(3 1.06074e-15 0)
(3 1.03054e-15 0)
(3 8.50612e-16 0)
(3 8.70933e-16 0)
(3 1.14115e-15 0)
(3 1.45529e-15 0)
(3 8.10648e-16 0)
(3 1.91697e-08 0)
(2.38582 0.279874 0)
(0.918489 0.331814 0)
(0.794936 0.318461 0)
(0.781746 0.315722 0)
(0.766034 0.317546 0)
(0.752041 0.316973 0)
(0.738955 0.317577 0)
(0.72707 0.320598 0)
(0.71613 0.325 0)
(0.704846 0.328528 0)
(0.69258 0.329468 0)
(0.679329 0.329469 0)
(0.665471 0.331815 0)
(0.651859 0.337169 0)
(0.638818 0.343956 0)
(0.626231 0.350119 0)
(0.61367 0.354436 0)
(0.600678 0.35698 0)
(0.586951 0.358959 0)
(0.572672 0.362477 0)
(0.558708 0.368992 0)
(0.545289 0.377416 0)
(0.531353 0.384936 0)
(0.516622 0.390463 0)
(0.501525 0.396025 0)
(0.486375 0.403132 0)
(0.471004 0.411344 0)
(0.455148 0.419785 0)
(0.438958 0.428514 0)
(0.422581 0.437975 0)
(0.40593 0.448376 0)
(0.388764 0.459657 0)
(0.370948 0.471679 0)
(0.352543 0.484358 0)
(0.333441 0.497485 0)
(0.313585 0.511034 0)
(0.292565 0.524761 0)
(0.270091 0.538646 0)
(0.2454 0.552293 0)
(0.21828 0.565889 0)
(0.188368 0.578701 0)
(0.156588 0.591766 0)
(0.123499 0.603694 0)
(0.0895487 0.613403 0)
(0.0544158 0.618339 0)
(0.0173177 0.621628 0)
(3 2.55174e-17 0)
(3 -1.76028e-17 0)
(3 5.50163e-17 0)
(3 7.69939e-17 0)
(3 -9.52122e-18 0)
(3 -2.40972e-16 0)
(3 -3.04246e-16 0)
(3 -4.93266e-16 0)
(3 -4.56116e-16 0)
(3 -9.86121e-17 0)
(3 3.52388e-16 0)
(3 3.9673e-16 0)
(3 3.91e-16 0)
(3 2.27941e-16 0)
(3 1.22632e-16 0)
(3 2.18275e-16 0)
(3 1.21402e-16 0)
(3 1.04701e-17 0)
(3 1.83925e-16 0)
(3 2.26014e-16 0)
(3 5.23345e-16 0)
(3 3.12056e-16 0)
(3 3.93818e-17 0)
(3 -2.55682e-16 0)
(3 -1.96774e-16 0)
(3 -1.11369e-15 0)
(3 -2.20203e-15 0)
(3 -2.22027e-15 0)
(3 -2.13777e-15 0)
(3 -2.11507e-15 0)
(3 -2.24682e-15 0)
(3 -2.2228e-15 0)
(3 -1.91717e-15 0)
(3 -1.58417e-15 0)
(3 -2.34135e-15 0)
(3 -3.36057e-15 0)
(3 -3.43519e-15 0)
(3 -3.31475e-15 0)
(3 -3.07225e-15 0)
(3 -2.63051e-15 0)
(3 -2.25725e-15 0)
(3 -1.61201e-15 0)
(3 -8.51316e-16 0)
(3 -2.26696e-16 0)
(3 6.8174e-16 0)
(3 9.29904e-16 0)
(3 -5.67408e-16 0)
(3 -2.04989e-15 0)
(3 -2.07523e-15 0)
(3 -7.98184e-09 0)
(3.02765 0.0172776 0)
(1.25428 0.373314 0)
(0.842371 0.322952 0)
(0.822621 0.341061 0)
(0.804608 0.342939 0)
(0.78969 0.340993 0)
(0.77533 0.340412 0)
(0.761535 0.342434 0)
(0.748748 0.347141 0)
(0.736539 0.352964 0)
(0.723726 0.357412 0)
(0.710038 0.359739 0)
(0.695857 0.362518 0)
(0.681838 0.36735 0)
(0.668322 0.373358 0)
(0.655398 0.379186 0)
(0.642931 0.384325 0)
(0.630429 0.38892 0)
(0.617313 0.393134 0)
(0.603423 0.397497 0)
(0.589327 0.403618 0)
(0.575857 0.412212 0)
(0.562684 0.42162 0)
(0.548866 0.429622 0)
(0.534457 0.436552 0)
(0.519782 0.44429 0)
(0.505151 0.453476 0)
(0.490237 0.463378 0)
(0.474953 0.473669 0)
(0.459525 0.484568 0)
(0.443815 0.496483 0)
(0.427706 0.509614 0)
(0.410713 0.52393 0)
(0.392863 0.539447 0)
(0.3743 0.556048 0)
(0.355233 0.573755 0)
(0.335549 0.592438 0)
(0.314912 0.612077 0)
(0.292623 0.632261 0)
(0.26821 0.652379 0)
(0.241286 0.671053 0)
(0.211623 0.687216 0)
(0.179646 0.702961 0)
(0.142223 0.721674 0)
(0.0960378 0.744022 0)
(0.0366329 0.763596 0)
(3 -1.20816e-16 0)
(3 -2.92413e-17 0)
(3 -8.40552e-17 0)
(3 2.00034e-16 0)
(3 -1.79746e-17 0)
(3 -4.93083e-16 0)
(3 -6.58626e-16 0)
(3 -9.62704e-16 0)
(3 -1.52534e-15 0)