/*--------------------------------*- C++ -*----------------------------------*\
  =========                 |
  \\      /  F ield         | OpenFOAM: The Open Source CFD Toolbox
   \\    /   O peration     | Website:  https://openfoam.org
    \\  /    A nd           | Version:  7
     \\/     M anipulation  |
\*---------------------------------------------------------------------------*/
FoamFile
{
    version     2.0;
    format      ascii;
    class       volScalarField;
    location    "0.06";
    object      T;
}
// * * * * * * * * * * * * * * * * * * * * * * * * * * * * * * * * * * * * * //

dimensions      [0 0 0 1 0 0 0];

internalField   nonuniform List<scalar> 
1000
(
2.15693e-15
2.1743e-15
2.20916e-15
2.26179e-15
2.33262e-15
2.42222e-15
2.53128e-15
2.66069e-15
2.81146e-15
2.98481e-15
3.1821e-15
3.40491e-15
3.65501e-15
3.93438e-15
4.24525e-15
4.59008e-15
4.97161e-15
5.39287e-15
5.85719e-15
6.36826e-15
6.93013e-15
7.54725e-15
8.2245e-15
8.96725e-15
9.78136e-15
1.06733e-14
1.165e-14
1.27193e-14
1.38897e-14
1.51702e-14
1.65711e-14
1.81034e-14
1.9779e-14
2.16113e-14
2.36147e-14
2.58048e-14
2.8199e-14
3.08159e-14
3.36762e-14
3.68022e-14
4.02186e-14
4.3952e-14
4.80317e-14
5.24896e-14
5.73605e-14
6.26827e-14
6.84975e-14
7.48505e-14
8.17912e-14
8.93736e-14
9.7657e-14
1.06706e-13
1.1659e-13
1.27388e-13
1.39182e-13
1.52064e-13
1.66135e-13
1.81502e-13
1.98287e-13
2.16618e-13
2.36638e-13
2.58501e-13
2.82377e-13
3.0845e-13
3.36921e-13
3.6801e-13
4.01958e-13
4.39025e-13
4.79497e-13
5.23685e-13
5.7193e-13
6.24603e-13
6.82107e-13
7.44884e-13
8.13416e-13
8.88228e-13
9.69893e-13
1.05904e-12
1.15634e-12
1.26255e-12
1.37847e-12
1.50499e-12
1.64307e-12
1.79377e-12
1.95824e-12
2.13772e-12
2.33358e-12
2.54731e-12
2.78053e-12
3.03501e-12
3.31268e-12
3.61565e-12
3.9462e-12
4.30683e-12
4.70028e-12
5.12951e-12
5.59776e-12
6.10856e-12
6.66577e-12
7.27356e-12
7.93652e-12
8.65963e-12
9.44832e-12
1.03085e-11
1.12466e-11
1.22697e-11
1.33854e-11
1.46021e-11
1.59289e-11
1.73756e-11
1.89531e-11
2.0673e-11
2.25484e-11
2.45929e-11
2.6822e-11
2.9252e-11
3.19011e-11
3.47889e-11
3.79368e-11
4.13681e-11
4.51081e-11
4.91844e-11
5.36272e-11
5.84693e-11
6.37461e-11
6.94967e-11
7.57633e-11
8.25919e-11
9.00326e-11
9.814e-11
1.06973e-10
1.16597e-10
1.27083e-10
1.38505e-10
1.50949e-10
1.64504e-10
1.7927e-10
1.95353e-10
2.12871e-10
2.31951e-10
2.52731e-10
2.75361e-10
3.00006e-10
3.26844e-10
3.56067e-10
3.87888e-10
4.22536e-10
4.60259e-10
5.01329e-10
5.46041e-10
5.94716e-10
6.47703e-10
7.05381e-10
7.68162e-10
8.36495e-10
9.10868e-10
9.91809e-10
1.0799e-09
1.17576e-09
1.28007e-09
1.39357e-09
1.51707e-09
1.65144e-09
1.79764e-09
1.95668e-09
2.1297e-09
2.31791e-09
2.52264e-09
2.74532e-09
2.98752e-09
3.25093e-09
3.5374e-09
3.84893e-09
4.18769e-09
4.55606e-09
4.95658e-09
5.39205e-09
5.86548e-09
6.38018e-09
6.93969e-09
7.54788e-09
8.20897e-09
8.9275e-09
9.70844e-09
1.05571e-08
1.14794e-08
1.24817e-08
1.35707e-08
1.47539e-08
1.60395e-08
1.74362e-08
1.89534e-08
2.06016e-08
2.23919e-08
2.43364e-08
2.64483e-08
2.87419e-08
3.12327e-08
3.39374e-08
3.68742e-08
4.00629e-08
4.35249e-08
4.72832e-08
5.13631e-08
5.57918e-08
6.05988e-08
6.58161e-08
7.14782e-08
7.76228e-08
8.42905e-08
9.15254e-08
9.93752e-08
1.07892e-07
1.1713e-07
1.27153e-07
1.38023e-07
1.49814e-07
1.62602e-07
1.7647e-07
1.91508e-07
2.07814e-07
2.25493e-07
2.44661e-07
2.6544e-07
2.87964e-07
3.12379e-07
3.38841e-07
3.67518e-07
3.98596e-07
4.32271e-07
4.68758e-07
5.0829e-07
5.51115e-07
5.97507e-07
6.47756e-07
7.0218e-07
7.61121e-07
8.24949e-07
8.94063e-07
9.68894e-07
1.04991e-06
1.13761e-06
1.23255e-06
1.3353e-06
1.44651e-06
1.56685e-06
1.69708e-06
1.83798e-06
1.99041e-06
2.15532e-06
2.3337e-06
2.52663e-06
2.73529e-06
2.96093e-06
3.20492e-06
3.46872e-06
3.7539e-06
4.06219e-06
4.39541e-06
4.75554e-06
5.14473e-06
5.56528e-06
6.01966e-06
6.51055e-06
7.04083e-06
7.61359e-06
8.23219e-06
8.90021e-06
9.62153e-06
1.04003e-05
1.12411e-05
1.21486e-05
1.31281e-05
1.41852e-05
1.5326e-05
1.65567e-05
1.78845e-05
1.93169e-05
2.08618e-05
2.25279e-05
2.43245e-05
2.62616e-05
2.835e-05
3.06012e-05
3.30275e-05
3.56424e-05
3.846e-05
4.14957e-05
4.4766e-05
4.82886e-05
5.20824e-05
5.61678e-05
6.05666e-05
6.53022e-05
7.03996e-05
7.5886e-05
8.17899e-05
8.81425e-05
9.49767e-05
0.000102328
0.000110235
0.000118737
0.000127879
0.000137707
0.000148271
0.000159624
0.000171824
0.000184931
0.000199011
0.000214134
0.000230374
0.000247811
0.00026653
0.000286623
0.000308185
0.000331322
0.000356143
0.000382767
0.00041132
0.000441935
0.000474757
0.000509937
0.000547639
0.000588035
0.00063131
0.00067766
0.000727295
0.000780436
0.000837322
0.000898202
0.000963344
0.00103303
0.00110757
0.00118728
0.0012725
0.00136359
0.00146093
0.00156494
0.00167604
0.00179469
0.00192137
0.0020566
0.00220092
0.00235491
0.00251916
0.00269434
0.0028811
0.00308018
0.00329234
0.00351836
0.00375909
0.00401544
0.00428832
0.00457875
0.00488774
0.00521641
0.00556591
0.00593745
0.0063323
0.00675181
0.00719738
0.00767049
0.00817269
0.0087056
0.00927091
0.00987041
0.010506
0.0111795
0.0118931
0.0126488
0.0134489
0.0142956
0.0151914
0.0161388
0.0171404
0.0181988
0.0193169
0.0204976
0.0217439
0.023059
0.024446
0.0259083
0.0274494
0.0290728
0.0307822
0.0325813
0.034474
0.0364642
0.0385562
0.0407539
0.0430617
0.0454839
0.0480249
0.0506893
0.0534815
0.0564063
0.0594683
0.0626722
0.0660228
0.0695249
0.0731832
0.0770025
0.0809876
0.0851432
0.089474
0.0939846
0.0986795
0.103563
0.10864
0.113914
0.119389
0.125069
0.130957
0.137057
0.143373
0.149905
0.156658
0.163633
0.170832
0.178257
0.185907
0.193784
0.201888
0.210218
0.218772
0.22755
0.23655
0.245768
0.255201
0.264845
0.274696
0.284748
0.294995
0.305431
0.316049
0.32684
0.337796
0.348908
0.360167
0.371561
0.38308
0.394713
0.406446
0.418269
0.430168
0.44213
0.45414
0.466186
0.478253
0.490326
0.502392
0.514435
0.526441
0.538395
0.550283
0.562091
0.573805
0.58541
0.596893
0.608241
0.619441
0.63048
0.641347
0.65203
0.662518
0.6728
0.682867
0.692708
0.702316
0.711681
0.720796
0.729654
0.738247
0.746569
0.754616
0.762381
0.769859
0.777047
0.783941
0.790536
0.796831
0.802822
0.808506
0.813882
0.818948
0.823702
0.828143
0.832271
0.836082
0.839579
0.842758
0.845621
0.848166
0.850394
0.852304
0.853895
0.855169
0.856124
0.856761
0.857079
0.857079
0.856761
0.856124
0.855169
0.853895
0.852304
0.850394
0.848166
0.845621
0.842758
0.839579
0.836082
0.832271
0.828143
0.823702
0.818948
0.813882
0.808506
0.802822
0.796831
0.790536
0.783941
0.777047
0.769859
0.762381
0.754616
0.746569
0.738247
0.729654
0.720796
0.711681
0.702316
0.692708
0.682867
0.6728
0.662518
0.65203
0.641347
0.63048
0.619441
0.608241
0.596893
0.58541
0.573805
0.562091
0.550283
0.538395
0.526441
0.514435
0.502392
0.490326
0.478253
0.466186
0.45414
0.44213
0.430168
0.418269
0.406446
0.394713
0.38308
0.371561
0.360167
0.348908
0.337796
0.32684
0.316049
0.305431
0.294995
0.284748
0.274696
0.264845
0.255201
0.245768
0.23655
0.22755
0.218772
0.210218
0.201888
0.193784
0.185907
0.178257
0.170832
0.163633
0.156658
0.149905
0.143373
0.137057
0.130957
0.125069
0.119389
0.113914
0.10864
0.103563
0.0986795
0.0939846
0.089474
0.0851432
0.0809876
0.0770025
0.0731832
0.0695249
0.0660228
0.0626722
0.0594683
0.0564063
0.0534815
0.0506893
0.0480249
0.0454839
0.0430617
0.0407539
0.0385562
0.0364642
0.034474
0.0325813
0.0307822
0.0290728
0.0274494
0.0259083
0.024446
0.023059
0.0217439
0.0204976
0.0193169
0.0181988
0.0171404
0.0161388
0.0151914
0.0142956
0.0134489
0.0126488
0.0118931
0.0111795
0.010506
0.00987041
0.00927091
0.0087056
0.00817269
0.00767049
0.00719738
0.00675181
0.0063323
0.00593745
0.00556591
0.00521641
0.00488774
0.00457875
0.00428832
0.00401544
0.00375909
0.00351836
0.00329234
0.00308018
0.0028811
0.00269434
0.00251916
0.00235491
0.00220092
0.0020566
0.00192137
0.00179469
0.00167604
0.00156494
0.00146093
0.00136359
0.0012725
0.00118728
0.00110757
0.00103303
0.000963344
0.000898202
0.000837322
0.000780436
0.000727295
0.00067766
0.00063131
0.000588035
0.000547639
0.000509937
0.000474757
0.000441935
0.00041132
0.000382767
0.000356143
0.000331322
0.000308185
0.000286623
0.00026653
0.000247811
0.000230374
0.000214134
0.000199011
0.000184931
0.000171824
0.000159624
0.000148271
0.000137707
0.000127879
0.000118737
0.000110235
0.000102328
9.49767e-05
8.81425e-05
8.17899e-05
7.5886e-05
7.03996e-05
6.53022e-05
6.05666e-05
5.61678e-05
5.20824e-05
4.82886e-05
4.4766e-05
4.14957e-05
3.846e-05
3.56424e-05
3.30275e-05
3.06012e-05
2.835e-05
2.62616e-05
2.43245e-05
2.25279e-05
2.08618e-05
1.93169e-05
1.78845e-05
1.65567e-05
1.5326e-05
1.41852e-05
1.31281e-05
1.21486e-05
1.12411e-05
1.04003e-05
9.62153e-06
8.90021e-06
8.23219e-06
7.61359e-06
7.04083e-06
6.51055e-06
6.01966e-06
5.56528e-06
5.14473e-06
4.75554e-06
4.39541e-06
4.06219e-06
3.7539e-06
3.46872e-06
3.20492e-06
2.96093e-06
2.73529e-06
2.52663e-06
2.3337e-06
2.15532e-06
1.99041e-06
1.83798e-06
1.69708e-06
1.56685e-06
1.44651e-06
1.3353e-06
1.23255e-06
1.13761e-06
1.04991e-06
9.68894e-07
8.94063e-07
8.24949e-07
7.61121e-07
7.0218e-07
6.47756e-07
5.97507e-07
5.51115e-07
5.0829e-07
4.68758e-07
4.32271e-07
3.98596e-07
3.67518e-07
3.38841e-07
3.12379e-07
2.87964e-07
2.6544e-07
2.44661e-07
2.25493e-07
2.07814e-07
1.91508e-07
1.7647e-07
1.62602e-07
1.49814e-07
1.38023e-07
1.27153e-07
1.1713e-07
1.07892e-07
9.93752e-08
9.15254e-08
8.42905e-08
7.76228e-08
7.14782e-08
6.58161e-08
6.05988e-08
5.57918e-08
5.13631e-08
4.72832e-08
4.35249e-08
4.00629e-08
3.68742e-08
3.39374e-08
3.12327e-08
2.87419e-08
2.64483e-08
2.43364e-08
2.23919e-08
2.06016e-08
1.89534e-08
1.74362e-08
1.60395e-08
1.47539e-08
1.35707e-08
1.24817e-08
1.14794e-08
1.05571e-08
9.70844e-09
8.9275e-09
8.20897e-09
7.54788e-09
6.93969e-09
6.38018e-09
5.86548e-09
5.39205e-09
4.95658e-09
4.55606e-09
4.18769e-09
3.84893e-09
3.5374e-09
3.25093e-09
2.98752e-09
2.74532e-09
2.52264e-09
2.31791e-09
2.1297e-09
1.95668e-09
1.79764e-09
1.65144e-09
1.51707e-09
1.39357e-09
1.28007e-09
1.17576e-09
1.0799e-09
9.91809e-10
9.10868e-10
8.36495e-10
7.68162e-10
7.05381e-10
6.47703e-10
5.94716e-10
5.46041e-10
5.01329e-10
4.60259e-10
4.22536e-10
3.87888e-10
3.56067e-10
3.26844e-10
3.00006e-10
2.75361e-10
2.52731e-10
2.31951e-10
2.12871e-10
1.95353e-10
1.7927e-10
1.64504e-10
1.50949e-10
1.38505e-10
1.27083e-10
1.16597e-10
1.06973e-10
9.814e-11
9.00326e-11
8.25919e-11
7.57633e-11
6.94967e-11
6.37461e-11
5.84693e-11
5.36272e-11
4.91844e-11
4.51081e-11
4.13681e-11
3.79368e-11
3.47889e-11
3.19011e-11
2.9252e-11
2.6822e-11
2.45929e-11
2.25484e-11
2.0673e-11
1.89531e-11
1.73756e-11
1.59289e-11
1.46021e-11
1.33854e-11
1.22697e-11
1.12466e-11
1.03085e-11
9.44832e-12
8.65963e-12
7.93652e-12
7.27356e-12
6.66577e-12
6.10856e-12
5.59776e-12
5.12951e-12
4.70028e-12
4.30683e-12
3.9462e-12
3.61565e-12
3.31268e-12
3.03501e-12
2.78053e-12
2.54731e-12
2.33358e-12
2.13772e-12
1.95824e-12
1.79377e-12
1.64307e-12
1.50499e-12
1.37847e-12
1.26255e-12
1.15634e-12
1.05904e-12
9.69893e-13
8.88228e-13
8.13416e-13
7.44884e-13
6.82107e-13
6.24603e-13
5.7193e-13
5.23685e-13
4.79497e-13
4.39025e-13
4.01958e-13
3.6801e-13
3.36921e-13
3.0845e-13
2.82377e-13
2.58501e-13
2.36638e-13
2.16618e-13
1.98287e-13
1.81502e-13
1.66135e-13
1.52064e-13
1.39182e-13
1.27388e-13
1.1659e-13
1.06706e-13
9.7657e-14
8.93736e-14
8.17912e-14
7.48505e-14
6.84975e-14
6.26827e-14
5.73605e-14
5.24896e-14
4.80317e-14
4.3952e-14
4.02186e-14
3.68022e-14
3.36762e-14
3.08159e-14
2.8199e-14
2.58048e-14
2.36147e-14
2.16113e-14
1.9779e-14
1.81034e-14
1.65711e-14
1.51702e-14
1.38897e-14
1.27193e-14
1.165e-14
1.06733e-14
9.78136e-15
8.96725e-15
8.2245e-15
7.54725e-15
6.93013e-15
6.36826e-15
5.85719e-15
5.39287e-15
4.97161e-15
4.59008e-15
4.24525e-15
3.93438e-15
3.65501e-15
3.40491e-15
3.1821e-15
2.98481e-15
2.81146e-15
2.66069e-15
2.53128e-15
2.42222e-15
2.33262e-15
2.26179e-15
2.20916e-15
2.1743e-15
2.15693e-15
)
;

boundaryField
{
    sides
    {
        type            zeroGradient;
    }
    empty
    {
        type            empty;
    }
}


// ************************************************************************* //
