/*--------------------------------*- C++ -*----------------------------------*\
  =========                 |
  \\      /  F ield         | OpenFOAM: The Open Source CFD Toolbox
   \\    /   O peration     | Website:  https://openfoam.org
    \\  /    A nd           | Version:  7
     \\/     M anipulation  |
\*---------------------------------------------------------------------------*/
FoamFile
{
    version     2.0;
    format      ascii;
    class       volVectorField;
    location    "3";
    object      U;
}
// * * * * * * * * * * * * * * * * * * * * * * * * * * * * * * * * * * * * * //

dimensions      [0 1 -1 0 0 0 0];

internalField   nonuniform List<vector> 
8800
(
(0.974627 -0.0908739 0)
(1.00731 -0.059379 0)
(1.00151 -0.0301571 0)
(1.00104 -0.0146104 0)
(1.00077 -0.00709833 0)
(1.00043 -0.00351842 0)
(1.00003 -0.00184076 0)
(0.999748 -0.00102569 0)
(0.999557 -0.000467158 0)
(0.999432 -5.04822e-05 0)
(0.999496 0.000272886 0)
(0.999665 0.000758824 0)
(0.999886 0.00140873 0)
(1.00025 0.00248074 0)
(1.00063 0.00500603 0)
(1.00092 0.010202 0)
(1.00122 0.0210825 0)
(1.00233 0.0419389 0)
(1.01241 0.080143 0)
(0.773327 0.0485965 0)
(0.38196 -0.0117507 0)
(1.04954 -0.0595935 0)
(1.08359 -0.0547544 0)
(1.04929 -0.0468341 0)
(1.02502 -0.0370723 0)
(1.01124 -0.0269772 0)
(1.00458 -0.0182837 0)
(1.00176 -0.011722 0)
(1.00086 -0.00684533 0)
(1.00057 -0.00271255 0)
(1.00046 0.00110098 0)
(1.00066 0.00502183 0)
(1.00114 0.00931358 0)
(1.0028 0.0148522 0)
(1.00732 0.0224795 0)
(1.01707 0.0320522 0)
(1.03587 0.0422559 0)
(1.06604 0.051232 0)
(1.08894 0.056143 0)
(0.861279 0.0452823 0)
(0.284382 3.48488e-05 0)
(1.06742 -0.0214698 0)
(1.07181 -0.0282367 0)
(1.04947 -0.0290184 0)
(1.03374 -0.026783 0)
(1.02277 -0.0228999 0)
(1.0155 -0.0178996 0)
(1.01099 -0.0124666 0)
(1.00851 -0.00689081 0)
(1.00747 -0.000974826 0)
(1.00781 0.00494421 0)
(1.00942 0.010641 0)
(1.01277 0.0160502 0)
(1.01846 0.0211048 0)
(1.02741 0.025496 0)
(1.0406 0.0284664 0)
(1.05956 0.0294039 0)
(1.07934 0.026003 0)
(0.9865 0.0164405 0)
(0.284165 -2.50262e-05 0)
(0.281442 0.000312029 0)
(1.03011 -0.00529683 0)
(1.04839 -0.0126066 0)
(1.0405 -0.0175529 0)
(1.03187 -0.0194444 0)
(1.02394 -0.0187143 0)
(1.01754 -0.0157363 0)
(1.01307 -0.0114062 0)
(1.0101 -0.00643472 0)
(1.00871 -0.000717332 0)
(1.00906 0.00507846 0)
(1.01119 0.0103193 0)
(1.01482 0.0148021 0)
(1.02013 0.0184254 0)
(1.02734 0.020252 0)
(1.03563 0.0194419 0)
(1.04418 0.0159605 0)
(1.04785 0.00941374 0)
(0.948728 0.00199513 0)
(0.281085 -0.000304802 0)
(0.281266 -4.60343e-05 0)
(1.01737 -0.00245176 0)
(1.038 -0.00571659 0)
(1.03586 -0.00870184 0)
(1.03215 -0.0107377 0)
(1.02791 -0.011442 0)
(1.0237 -0.0106376 0)
(1.01991 -0.00838795 0)
(1.01705 -0.00486311 0)
(1.01575 -0.000294398 0)
(1.01604 0.00448432 0)
(1.01806 0.00840285 0)
(1.02108 0.0111239 0)
(1.02506 0.012388 0)
(1.02929 0.0121718 0)
(1.03323 0.0105281 0)
(1.03624 0.00776895 0)
(1.03484 0.00437381 0)
(0.938612 0.00128537 0)
(0.280661 5.62568e-05 0)
(0.280275 -6.76596e-06 0)
(1.01079 -0.00114797 0)
(1.03129 -0.00267103 0)
(1.03055 -0.0042692 0)
(1.02873 -0.00561745 0)
(1.02637 -0.00634494 0)
(1.02366 -0.00621634 0)
(1.02093 -0.0050498 0)
(1.01863 -0.00279038 0)
(1.01738 0.000320776 0)
(1.01754 0.00354725 0)
(1.01916 0.00598844 0)
(1.0213 0.00740321 0)
(1.0239 0.00771073 0)
(1.02636 0.00705706 0)
(1.02836 0.00569035 0)
(1.02971 0.00394501 0)
(1.02736 0.00213973 0)
(0.932887 0.000636528 0)
(0.279466 1.31412e-05 0)
(0.279802 -6.23614e-06 0)
(1.00796 -0.000590497 0)
(1.02847 -0.00131618 0)
(1.02829 -0.00210297 0)
(1.02739 -0.00282498 0)
(1.02609 -0.00329128 0)
(1.02443 -0.00330691 0)
(1.02259 -0.00266776 0)
(1.02089 -0.00126024 0)
(1.0198 0.000806468 0)
(1.01978 0.00295393 0)
(1.02078 0.004399 0)
(1.02215 0.00502218 0)
(1.02366 0.00492875 0)
(1.02497 0.00428852 0)
(1.02595 0.00333491 0)
(1.02654 0.0022762 0)
(1.02382 0.00125949 0)
(0.930024 0.000419867 0)
(0.27881 1.86201e-05 0)
(0.279599 1.59855e-06 0)
(1.00654 -0.000242531 0)
(1.02703 -0.000578028 0)
(1.02706 -0.000946824 0)
(1.02654 -0.00128458 0)
(1.02575 -0.00149758 0)
(1.02469 -0.00145839 0)
(1.02341 -0.00102427 0)
(1.02213 -9.37265e-05 0)
(1.02116 0.0012869 0)
(1.02094 0.00265875 0)
(1.02143 0.00347827 0)
(1.0222 0.00368898 0)
(1.02302 0.00343785 0)
(1.02371 0.00288536 0)
(1.02421 0.00219354 0)
(1.02449 0.00148633 0)
(1.02164 0.000830501 0)
(0.92819 0.000290883 0)
(0.27831 1.48848e-05 0)
(0.279594 4.24945e-06 0)
(1.00598 -3.0482e-05 0)
(1.02644 -0.000136423 0)
(1.02658 -0.000248659 0)
(1.02624 -0.000333281 0)
(1.02572 -0.000339525 0)
(1.02498 -0.000196166 0)
(1.02404 0.000184927 0)
(1.023 0.000863772 0)
(1.02209 0.00180182 0)
(1.02165 0.00264956 0)
(1.02173 0.00305634 0)
(1.02205 0.00301632 0)
(1.02242 0.0026864 0)
(1.02274 0.00219252 0)
(1.02296 0.0016441 0)
(1.02308 0.0011114 0)
(1.02016 0.000631407 0)
(0.9269 0.000232697 0)
(0.277914 1.4347e-05 0)
(0.27972 1.10721e-05 0)
(1.00595 0.000100864 0)
(1.02638 0.00015514 0)
(1.02657 0.000225183 0)
(1.02632 0.000328226 0)
(1.02592 0.00049183 0)
(1.02534 0.000754434 0)
(1.02456 0.00115868 0)
(1.02364 0.0017251 0)
(1.02269 0.00239534 0)
(1.02203 0.00289364 0)
(1.02176 0.00302892 0)
(1.02173 0.00280633 0)
(1.0218 0.00240306 0)
(1.02188 0.00191776 0)
(1.02194 0.00142388 0)
(1.02196 0.0009632 0)
(1.01899 0.000558026 0)
(0.925843 0.000215629 0)
(0.27755 1.52015e-05 0)
(0.279964 1.48047e-05 0)
(1.0063 0.000231694 0)
(1.02672 0.000405441 0)
(1.02692 0.000611881 0)
(1.0267 0.000865984 0)
(1.02635 0.00118021 0)
(1.02582 0.00157021 0)
(1.02509 0.00204611 0)
(1.02416 0.00258965 0)
(1.02309 0.00311224 0)
(1.02218 0.0033741 0)
(1.02161 0.00325864 0)
(1.02129 0.00292106 0)
(1.02112 0.00243936 0)
(1.02103 0.00191724 0)
(1.02098 0.00141423 0)
(1.02093 0.000958413 0)
(1.01793 0.000562193 0)
(0.924844 0.000225313 0)
(0.277171 1.74201e-05 0)
(0.280325 2.03369e-05 0)
(1.00699 0.00034747 0)
(1.02738 0.000634519 0)
(1.02758 0.000973215 0)
(1.02736 0.0013723 0)
(1.027 0.00183924 0)
(1.02646 0.00237337 0)
(1.02568 0.00295906 0)
(1.02465 0.00354417 0)
(1.02337 0.00400314 0)
(1.02216 0.00410734 0)
(1.02128 0.00383042 0)
(1.0207 0.00332448 0)
(1.02034 0.00272724 0)
(1.02011 0.00212348 0)
(1.01997 0.00156022 0)
(1.01987 0.00106056 0)
(1.01684 0.000628479 0)
(0.923779 0.000258797 0)
(0.276738 2.1124e-05 0)
(0.280815 2.66565e-05 0)
(1.00801 0.0004761 0)
(1.02837 0.000882488 0)
(1.02855 0.00135845 0)
(1.02831 0.00191482 0)
(1.0279 0.00255108 0)
(1.02729 0.00325622 0)
(1.02639 0.0039913 0)
(1.02515 0.00467132 0)
(1.02358 0.00512557 0)
(1.022 0.00511087 0)
(1.02079 0.004663 0)
(1.01995 0.00398864 0)
(1.01939 0.00324064 0)
(1.01903 0.00250905 0)
(1.01881 0.00183932 0)
(1.01865 0.00125115 0)
(1.01559 0.000744768 0)
(0.922546 0.000310126 0)
(0.27622 2.59544e-05 0)
(0.281462 3.47605e-05 0)
(1.00939 0.00063026 0)
(1.02972 0.00117268 0)
(1.02987 0.00180946 0)
(1.02958 0.00254789 0)
(1.02909 0.0033863 0)
(1.02835 0.00430034 0)
(1.02725 0.00523118 0)
(1.02573 0.00605533 0)
(1.02376 0.00655011 0)
(1.02172 0.00643562 0)
(1.02011 0.00580414 0)
(1.01898 0.00492562 0)
(1.01821 0.00398126 0)
(1.01771 0.00307326 0)
(1.0174 0.00225125 0)
(1.0172 0.00153178 0)
(1.0141 0.000915386 0)
(0.921056 0.000383828 0)
(0.275582 3.2714e-05 0)
(0.282304 4.50837e-05 0)
(1.01122 0.000821205 0)
(1.0315 0.00153116 0)
(1.03161 0.00236228 0)
(1.03124 0.00332504 0)
(1.03064 0.00441202 0)
(1.02971 0.00558892 0)
(1.02834 0.0067711 0)
(1.02643 0.00779214 0)
(1.02392 0.00836479 0)
(1.0213 0.00815329 0)
(1.01922 0.00730703 0)
(1.01774 0.00617363 0)
(1.01673 0.00497607 0)
(1.01608 0.00383477 0)
(1.01567 0.0028067 0)
(1.0154 0.00190923 0)
(1.01227 0.00114262 0)
(0.919209 0.000480556 0)
(0.274783 4.09522e-05 0)
(0.283396 5.84839e-05 0)
(1.0136 0.00106387 0)
(1.03382 0.00198391 0)
(1.03387 0.00306046 0)
(1.0334 0.00430495 0)
(1.03263 0.00570612 0)
(1.03145 0.00721488 0)
(1.02971 0.00871786 0)
(1.02727 0.00999648 0)
(1.02408 0.0106798 0)
(1.02074 0.0103586 0)
(1.01807 0.00924806 0)
(1.01616 0.00779336 0)
(1.01486 0.0062709 0)
(1.01401 0.00482838 0)
(1.01348 0.00353201 0)
(1.01314 0.00240406 0)
(1.00996 0.0014387 0)
(0.916888 0.0006057 0)
(0.273778 5.16618e-05 0)
(0.284813 7.61788e-05 0)
(1.01667 0.00137721 0)
(1.03682 0.00256589 0)
(1.03679 0.00395621 0)
(1.03618 0.00556021 0)
(1.0352 0.00736164 0)
(1.03367 0.00929347 0)
(1.03144 0.0112044 0)
(1.02832 0.0128097 0)
(1.02424 0.0136344 0)
(1.01998 0.0131762 0)
(1.01657 0.0117314 0)
(1.01414 0.00986803 0)
(1.01249 0.00793046 0)
(1.01141 0.00610109 0)
(1.01073 0.00446035 0)
(1.01031 0.00303577 0)
(1.00706 0.00181594 0)
(0.913961 0.000764571 0)
(0.272509 6.50441e-05 0)
(0.286657 9.97644e-05 0)
(1.02064 0.00178614 0)
(1.04069 0.00332271 0)
(1.04055 0.00511759 0)
(1.03976 0.00718542 0)
(1.03848 0.00950059 0)
(1.03651 0.0119719 0)
(1.03363 0.0143988 0)
(1.02962 0.0164112 0)
(1.02441 0.0174047 0)
(1.01898 0.0167632 0)
(1.01466 0.0148889 0)
(1.01157 0.0125042 0)
(1.00947 0.0100397 0)
(1.0081 0.00771911 0)
(1.00725 0.00564192 0)
(1.00672 0.00383761 0)
(1.00339 0.00229579 0)
(0.910263 0.000965716 0)
(0.270911 8.20483e-05 0)
(0.289067 0.00013168 0)
(1.02579 0.00232586 0)
(1.0457 0.004317 0)
(1.04542 0.00663918 0)
(1.04438 0.00930796 0)
(1.0427 0.012285 0)
(1.04013 0.0154449 0)
(1.03639 0.0185207 0)
(1.03123 0.0210314 0)
(1.02456 0.0222117 0)
(1.01767 0.0213158 0)
(1.01219 0.0188881 0)
(1.0083 0.0158403 0)
(1.00565 0.0127069 0)
(1.00392 0.00976445 0)
(1.00284 0.00713417 0)
(1.00217 0.00484993 0)
(0.998751 0.00289998 0)
(0.905589 0.00121778 0)
(0.268896 0.000102689 0)
(0.292244 0.000175841 0)
(1.03247 0.00304849 0)
(1.0522 0.0056401 0)
(1.05171 0.0086543 0)
(1.05033 0.0121078 0)
(1.04811 0.0159411 0)
(1.04473 0.0199781 0)
(1.03985 0.0238606 0)
(1.03319 0.0269656 0)
(1.02466 0.0283326 0)
(1.01593 0.0270767 0)
(1.00903 0.0239329 0)
(1.00413 0.0200458 0)
(1.0008 0.0160697 0)
(0.998619 0.012344 0)
(0.997257 0.00901603 0)
(0.996426 0.00612866 0)
(0.992883 0.00366223 0)
(0.899684 0.00153616 0)
(0.266363 0.000128982 0)
(0.296478 0.000238688 0)
(1.04121 0.00403335 0)
(1.06068 0.00743051 0)
(1.05989 0.0113641 0)
(1.05803 0.0158502 0)
(1.05505 0.0207916 0)
(1.05056 0.025939 0)
(1.04416 0.030807 0)
(1.03554 0.0345925 0)
(1.02466 0.0361074 0)
(1.01364 0.0343365 0)
(1.00499 0.030271 0)
(0.998849 0.0253273 0)
(0.994663 0.0202982 0)
(0.991922 0.015593 0)
(0.990205 0.0113894 0)
(0.989162 0.00774163 0)
(0.985463 0.00462419 0)
(0.892223 0.00193709 0)
(0.263176 0.00016173 0)
(0.302215 0.000331698 0)
(1.05271 0.00541781 0)
(1.0718 0.00991685 0)
(1.07058 0.0150866 0)
(1.068 0.0209389 0)
(1.06393 0.0273163 0)
(1.05789 0.0338509 0)
(1.04944 0.0398843 0)
(1.03826 0.0443925 0)
(1.02443 0.0459442 0)
(1.01062 0.0434352 0)
(0.999834 0.0381958 0)
(0.992169 0.0319426 0)
(0.986925 0.0256116 0)
(0.983474 0.0196884 0)
(0.981303 0.0143925 0)
(0.979987 0.00978838 0)
(0.976087 0.00584728 0)
(0.882798 0.00244615 0)
(0.259165 0.000203378 0)
(0.310198 0.00048037 0)
(1.06797 0.00747534 0)
(1.08647 0.0135267 0)
(1.08458 0.0203731 0)
(1.08091 0.0280352 0)
(1.07521 0.0362527 0)
(1.06695 0.0444711 0)
(1.05569 0.0517952 0)
(1.04122 0.0569585 0)
(1.02375 0.0583117 0)
(1.0066 0.054754 0)
(0.993274 0.0480433 0)
(0.98377 0.0402037 0)
(0.977209 0.0322983 0)
(0.972847 0.0248872 0)
(0.97008 0.0182351 0)
(0.968404 0.0124292 0)
(0.964242 0.00743916 0)
(0.870879 0.00311304 0)
(0.254093 0.000259081 0)
(0.32185 0.000756298 0)
(1.08846 0.010877 0)
(1.10611 0.0191438 0)
(1.10308 0.028224 0)
(1.09756 0.0382426 0)
(1.08929 0.0487506 0)
(1.07778 0.0588763 0)
(1.06271 0.0674432 0)
(1.04406 0.0729834 0)
(1.02223 0.0737126 0)
(1.00121 0.0686864 0)
(0.984969 0.0601794 0)
(0.973291 0.0504881 0)
(0.965099 0.0407513 0)
(0.959542 0.0315824 0)
(0.955957 0.0232918 0)
(0.953778 0.0159994 0)
(0.949266 0.00965976 0)
(0.855749 0.00407452 0)
(0.247582 0.000343552 0)
(0.340147 0.00137991 0)
(1.11698 0.0172401 0)
(1.13329 0.0284924 0)
(1.12785 0.0404051 0)
(1.11891 0.053397 0)
(1.10641 0.066541 0)
(1.09014 0.0785001 0)
(1.07001 0.0878933 0)
(1.04622 0.0931866 0)
(1.01936 0.0926245 0)
(0.994066 0.0856016 0)
(0.974588 0.0749766 0)
(0.960424 0.0632416 0)
(0.950239 0.0515224 0)
(0.943088 0.0404335 0)
(0.938283 0.0302978 0)
(0.935268 0.0212716 0)
(0.930193 0.0132379 0)
(0.836417 0.00580635 0)
(0.238977 0.000513988 0)
(0.369053 0.00303941 0)
(1.15888 0.030961 0)
(1.17183 0.0452682 0)
(1.16086 0.0605751 0)
(1.14566 0.0769158 0)
(1.12661 0.0923158 0)
(1.10375 0.105202 0)
(1.0772 0.114313 0)
(1.04738 0.118256 0)
(1.01495 0.115443 0)
(0.985109 0.105804 0)
(0.962205 0.0927916 0)
(0.945296 0.0789697 0)
(0.932724 0.0653441 0)
(0.923418 0.0524662 0)
(0.91664 0.0406107 0)
(0.911889 0.0299413 0)
(0.905406 0.0200102 0)
(0.811198 0.00939856 0)
(0.227934 0.000857643 0)
(0.413026 0.0139039 4.4377e-20)
(1.21721 0.0612808 4.03624e-20)
(1.21997 0.0780205 -1.43293e-20)
(1.19959 0.0964316 0)
(1.17561 0.114211 -3.59742e-34)
(1.14825 0.129492 5.22729e-21)
(1.11751 0.141175 -9.22957e-21)
(1.08366 0.148285 0)
(1.04714 0.149595 1.85103e-34)
(1.00859 0.143677 -1.09514e-20)
(0.973703 0.131024 0)
(0.946879 0.115616 -1.27678e-20)
(0.926635 0.0999649 -3.75051e-20)
(0.910946 0.084921 -1.76878e-20)
(0.898493 0.0709702 -5.3043e-21)
(0.88839 0.0584564 -3.15545e-21)
(0.879995 0.0475273 0)
(0.87014 0.0380027 2.23612e-21)
(0.776885 0.0264104 2.63875e-21)
(0.216167 0.00677633 4.79203e-20)
(0.431619 0.0390151 3.11674e-20)
(1.27067 0.117752 4.93778e-22)
(1.26447 0.132683 3.86755e-21)
(1.23464 0.14856 0)
(1.20183 0.163763 -1.84368e-20)
(1.16634 0.176632 -2.07804e-20)
(1.12812 0.185978 -9.36329e-21)
(1.08722 0.190633 -3.27233e-20)
(1.0439 0.189292 0)
(0.998617 0.180518 4.64612e-20)
(0.9576 0.165382 4.56075e-20)
(0.925672 0.148337 1.34157e-20)
(0.901017 0.131824 4.85716e-20)
(0.881259 0.116583 6.81771e-20)
(0.864859 0.103002 0)
(0.850787 0.0915085 9.68083e-20)
(0.838355 0.0823005 1.40193e-19)
(0.825134 0.0752948 1.5636e-19)
(0.737681 0.0631822 -1.80127e-19)
(0.21011 0.0191226 -3.31855e-21)
(0.421197 0.0634466 0)
(1.30582 0.191287 6.37894e-21)
(1.29621 0.201372 0)
(1.26017 0.211826 -2.52131e-20)
(1.22093 0.222201 0)
(1.17896 0.230766 -4.14811e-20)
(1.13432 0.236187 1.9288e-20)
(1.08717 0.237114 -6.64496e-20)
(1.03781 0.232193 -1.181e-21)
(0.98671 0.220018 2.40269e-20)
(0.940713 0.202211 9.89335e-20)
(0.90494 0.183686 1.04171e-23)
(0.877258 0.166798 -3.49328e-20)
(0.855094 0.152005 -6.308e-20)
(0.836885 0.139459 7.51459e-20)
(0.82162 0.129285 -1.33156e-19)
(0.808541 0.121626 -1.77294e-20)
(0.795089 0.116206 0)
(0.713928 0.101629 1.06079e-21)
(0.20869 0.0306649 0)
(0.415671 0.0862265 7.85517e-20)
(1.32339 0.265544 -4.34308e-20)
(1.31357 0.273336 -3.39998e-20)
(1.27483 0.27911 1.23498e-20)
(1.23195 0.28458 -2.08557e-20)
(1.18565 0.288401 8.80251e-20)
(1.1362 0.289368 4.05593e-20)
(1.08397 0.286061 0)
(1.0295 0.277075 -1.22211e-19)
(0.973431 0.261027 0)
(0.923344 0.24022 -5.15053e-20)
(0.884735 0.219995 -6.25968e-20)
(0.855197 0.20242 -3.73307e-20)
(0.83187 0.187578 -4.5142e-20)
(0.813037 0.175344 0)
(0.797537 0.1656 0)
(0.784526 0.15828 -1.1413e-19)
(0.771327 0.153095 2.2507e-20)
(0.693421 0.135588 -1.34228e-20)
(0.205147 0.0410995 -1.56623e-20)
(0.413231 0.107737 -3.79426e-20)
(1.33205 0.337344 0)
(1.32188 0.343675 7.83334e-20)
(1.28132 0.345706 3.72279e-20)
(1.23598 0.347145 4.83839e-20)
(1.18658 0.346832 0)
(1.13343 0.343566 4.08125e-20)
(1.07709 0.336 7.41518e-20)
(1.01834 0.322708 6.31197e-20)
(0.958187 0.30242 1.1054e-19)
(0.904975 0.278182 0)
(0.864479 0.255839 -1.3227e-19)
(0.833908 0.237123 -7.85048e-20)
(0.810091 0.221775 -4.5815e-20)
(0.791111 0.209356 2.81067e-19)
(0.775701 0.19951 3.34382e-20)
(0.762903 0.192118 1.59719e-19)
(0.749998 0.186736 -7.64856e-19)
(0.675008 0.166272 4.56013e-19)
(0.20185 0.0506717 -5.50587e-19)
(0.41132 0.128155 -2.60562e-20)
(1.33532 0.405838 9.51027e-21)
(1.32437 0.411537 -1.03882e-20)
(1.28243 0.410692 -4.3249e-20)
(1.23518 0.408785 -4.45631e-20)
(1.18326 0.404828 1.68127e-21)
(1.12704 0.397666 -4.44203e-20)
(1.06721 0.385979 7.78876e-20)
(1.00479 0.368287 -1.35608e-19)
(0.941193 0.343444 0)
(0.885577 0.31532 -6.03486e-20)
(0.843899 0.290405 -4.79067e-22)
(0.812896 0.270159 -8.38704e-20)
(0.789036 0.25392 0)
(0.770224 0.240987 -5.94874e-20)
(0.755101 0.230762 -1.4074e-19)
(0.742655 0.223015 3.80372e-19)
(0.730119 0.217187 -3.78651e-19)
(0.657706 0.194035 5.39407e-19)
(0.198619 0.0595062 -5.61447e-19)
(0.40996 0.147666 -1.00842e-21)
(1.33493 0.471267 -7.74295e-21)
(1.32284 0.476556 -3.72282e-20)
(1.27965 0.473476 2.01399e-20)
(1.23077 0.468822 -2.38313e-20)
(1.17668 0.461727 0)
(1.11777 0.451056 -4.34905e-20)
(1.05479 0.435401 -8.27212e-20)
(0.989053 0.41329 -7.12511e-20)
(0.92244 0.383591 0)
(0.864988 0.35111 -6.16529e-20)
(0.822732 0.323172 -7.34805e-20)
(0.791812 0.301053 8.83271e-20)
(0.768283 0.283665 -5.36206e-20)
(0.749904 0.269976 -2.48319e-19)
(0.735233 0.259281 1.48522e-19)
(0.723205 0.251056 4.49875e-20)
(0.711122 0.244685 0)
(0.641142 0.219078 -5.01714e-19)
(0.195616 0.0677228 -1.81922e-20)
(0.409216 0.16661 -1.98329e-21)
(1.3321 0.533706 6.87443e-21)
(1.31861 0.538889 2.02759e-20)
(1.27425 0.53397 7.32663e-20)
(1.2238 0.52703 -9.57956e-20)
(1.16769 0.517227 9.76233e-20)
(1.10623 0.503405 9.57162e-20)
(1.04027 0.483992 -1.33609e-19)
(0.971401 0.45744 4.18102e-20)
(0.901992 0.422561 -2.66538e-19)
(0.84311 0.385178 -6.73395e-20)
(0.80083 0.353785 0)
(0.770461 0.329491 9.25215e-20)
(0.74766 0.310787 1.08401e-19)
(0.729951 0.296312 1.2978e-19)
(0.715865 0.285012 -1.54599e-19)
(0.704382 0.276346 -4.55229e-20)
(0.692778 0.269431 5.50919e-20)
(0.625187 0.241616 0)
(0.193101 0.0754918 -3.80638e-20)
(0.408931 0.185064 8.86358e-21)
(1.32771 0.593352 -2.04441e-20)
(1.31259 0.598607 -2.30913e-20)
(1.26704 0.592176 5.07483e-20)
(1.21506 0.583339 -4.80817e-20)
(1.15695 0.57122 -2.73121e-21)
(1.09302 0.554533 -1.06055e-19)
(1.02411 0.531602 -4.85696e-20)
(0.952052 0.500598 -1.24449e-19)
(0.879878 0.460185 2.60977e-22)
(0.819838 0.417317 -2.08859e-19)
(0.77804 0.38193 1.65336e-19)
(0.748798 0.355195 -9.63933e-20)
(0.727162 0.335086 1.13642e-19)
(0.710404 0.319813 0)
(0.697073 0.308048 -7.89721e-20)
(0.686159 0.299031 -2.04143e-21)
(0.675092 0.291647 -2.24774e-19)
(0.610017 0.262015 -3.39302e-20)
(0.191119 0.082926 0)
(0.409145 0.202856 0)
(1.32236 0.650343 -2.70199e-20)
(1.30542 0.655825 -4.21707e-20)
(1.25864 0.648146 -5.25509e-20)
(1.20514 0.63774 -5.78397e-20)
(1.14502 0.623621 0)
(1.07855 0.604394 -5.19136e-20)
(1.00666 0.5782 2.03996e-22)
(0.931244 0.542799 2.6874e-19)
(0.8561 0.496517 -3.73149e-20)
(0.795049 0.4474 -1.48446e-19)
(0.754265 0.40738 8.62881e-20)
(0.726806 0.37794 5.72393e-22)
(0.706853 0.356411 1.16504e-19)
(0.691435 0.340482 7.06642e-20)
(0.679038 0.328375 -1.66324e-19)
(0.66883 0.319146 1.95905e-19)
(0.658307 0.311492 5.75394e-20)
(0.595764 0.28038 2.42596e-19)
(0.189818 0.0901479 -6.50579e-19)
(0.409949 0.220437 -1.92959e-21)
(1.31647 0.704873 -8.92003e-21)
(1.29762 0.710636 1.44352e-20)
(1.24956 0.701962 5.33731e-20)
(1.19448 0.690255 0)
(1.13232 0.674454 -5.54695e-20)
(1.0633 0.653013 1.76966e-19)
(0.98824 0.623807 1.12639e-19)
(0.909225 0.584129 0)
(0.83074 0.531621 -5.28095e-19)
(0.768531 0.475397 3.90813e-19)
(0.729294 0.429907 0)
(0.704488 0.397342 1.0291e-19)
(0.686985 0.374482 1.1966e-21)
(0.673336 0.358126 -2.11577e-19)
(0.662133 0.346054 8.43665e-20)
(0.652652 0.336883 0)
(0.642712 0.329205 2.95978e-19)
(0.582819 0.297212 0)
(0.18959 0.0974538 -2.92085e-19)
(0.411194 0.237872 3.22085e-21)
(1.31032 0.757181 -3.52191e-21)
(1.28954 0.763188 1.78948e-20)
(1.24016 0.753687 0)
(1.18341 0.740907 -6.29777e-20)
(1.11923 0.723686 0)
(1.0476 0.700349 -1.8384e-19)
(0.96924 0.668464 -5.63849e-20)
(0.886276 0.624743 5.07664e-20)
(0.80379 0.565809 -2.61954e-19)
(0.740034 0.501382 4.14872e-20)
(0.702922 0.449139 0)
(0.681901 0.412929 -2.08445e-19)
(0.667854 0.388894 -1.3764e-21)
(0.656611 0.372658 0)
(0.646839 0.361088 1.07412e-21)
(0.638194 0.352429 2.51689e-19)
(0.628785 0.345076 -2.42205e-19)
(0.571667 0.312836 7.18599e-20)
(0.190378 0.105008 0)
(0.412465 0.255002 0)
(1.30408 0.807432 -6.39645e-22)
(1.28144 0.813575 -1.31661e-20)
(1.23071 0.803386 -2.52183e-21)
(1.17229 0.789701 -2.85584e-20)
(1.10605 0.771312 -1.36742e-19)
(1.03177 0.746398 6.98319e-20)
(0.949933 0.712232 -6.53094e-20)
(0.862591 0.664824 2.25057e-19)
(0.775346 0.59934 -4.24987e-19)
(0.70929 0.525482 1.67319e-21)
(0.674707 0.464882 -9.64175e-20)
(0.658956 0.424202 3.18299e-19)
(0.649845 0.399192 2.36965e-21)
(0.64189 0.383783 -1.415e-19)
(0.633868 0.373528 -2.58452e-19)
(0.626026 0.366035 0)
(0.617068 0.359516 0)
(0.562874 0.327807 7.4124e-20)
(0.192399 0.113067 -4.21421e-20)
(0.414324 0.27216 8.20286e-21)
(1.29785 0.855635 2.30885e-21)
(1.27341 0.861858 1.59554e-20)
(1.22137 0.851094 0)
(1.16134 0.83665 -5.75185e-22)
(1.09306 0.817314 -1.40626e-19)
(1.01613 0.791123 1.8073e-19)
(0.930716 0.755143 2.72604e-19)
(0.83858 0.704532 3.03533e-19)
(0.745498 0.632592 -3.58417e-19)
(0.67583 0.548065 -3.27698e-19)
(0.644043 0.476834 2.51883e-19)
(0.635506 0.430261 0)
(0.633655 0.404586 -5.79318e-20)
(0.630139 0.391307 -1.43293e-19)
(0.624072 0.383512 -1.70083e-19)
(0.616937 0.377998 -2.05182e-19)
(0.608172 0.372946 6.02682e-20)
(0.557031 0.34263 -3.71596e-20)
(0.195763 0.121893 -1.22979e-21)
(0.416126 0.288903 0)
(1.29176 0.901882 0)
(1.26553 0.908135 1.27501e-21)
(1.21226 0.896848 0)
(1.1507 0.881772 9.70297e-20)
(1.08045 0.861687 1.09137e-19)
(1.00095 0.834537 0)
(0.911888 0.797188 3.5322e-20)
(0.814552 0.744037 5.28906e-19)
(0.714425 0.666093 -8.31845e-19)
(0.639332 0.569678 0)
(0.609985 0.484649 -1.53902e-19)
(0.611273 0.429857 2.22009e-21)
(0.620177 0.403993 5.41381e-22)
(0.622654 0.394867 1.3382e-19)
(0.61848 0.391308 -2.47429e-21)
(0.611424 0.389132 -4.0925e-19)
(0.602253 0.386253 1.24342e-19)
(0.554429 0.358124 3.64906e-20)
(0.200204 0.131491 0)
(0.417815 0.305224 -4.61482e-20)
(1.28578 0.946186 -5.68048e-21)
(1.25784 0.952384 2.40583e-20)
(1.20335 0.94065 -1.02939e-19)
(1.14042 0.925066 1.68935e-19)
(1.06837 0.904395 0)
(0.986441 0.876653 1.25573e-19)
(0.893809 0.838337 -7.93975e-20)
(0.790918 0.783372 1.85818e-21)
(0.682475 0.700233 6.01447e-20)
(0.59942 0.591108 4.33429e-19)
(0.571164 0.488242 -5.52435e-20)
(0.585567 0.421013 -1.62018e-19)
(0.610326 0.395664 -4.57955e-20)
(0.621723 0.39413 6.34315e-20)
(0.619394 0.398504 -3.69213e-21)
(0.61115 0.401284 1.02293e-19)
(0.600421 0.400927 -2.49941e-19)
(0.554259 0.375213 2.99997e-19)
(0.204479 0.141444 4.50595e-20)
(0.419043 0.320949 1.92758e-20)
(1.27999 0.988606 -3.21782e-21)
(1.25043 0.99464 5.55076e-21)
(1.19476 0.982467 -4.93867e-20)
(1.13051 0.966463 -3.1752e-20)
(1.05685 0.945391 -2.11631e-19)
(0.972776 0.917286 4.1194e-20)
(0.876734 0.878614 -3.42994e-19)
(0.768196 0.822585 -6.27124e-19)
(0.650188 0.73543 -5.25688e-19)
(0.555831 0.613409 0)
(0.525752 0.487817 -2.16261e-19)
(0.556994 0.401653 1.99153e-19)
(0.606362 0.376241 0)
(0.632183 0.389903 -1.20377e-19)
(0.630321 0.407783 7.34039e-20)
(0.616015 0.418362 -9.79407e-20)
(0.597974 0.419599 -1.29619e-19)
(0.552437 0.395007 -2.35836e-19)
(0.205596 0.150293 -1.87042e-19)
(0.420778 0.336419 -2.30075e-20)
(1.27432 1.02914 3.37419e-21)
(1.24329 1.03493 -6.71389e-21)
(1.18658 1.02232 -6.02324e-20)
(1.12111 1.0059 7.38999e-20)
(1.04595 0.984574 -1.34047e-19)
(0.959942 0.956384 1.37657e-19)
(0.860816 0.917861 -3.69351e-19)
(0.746789 0.861781 -3.87134e-19)
(0.618319 0.772081 5.83511e-19)
(0.508699 0.637908 9.92139e-19)
(0.471417 0.484321 0)
(0.521911 0.367836 0)
(0.611154 0.339337 -4.0159e-20)
(0.662557 0.379881 0)
(0.656863 0.42254 1.4573e-19)
(0.626186 0.446372 1.99176e-19)
(0.594118 0.44672 0)
(0.546609 0.415785 0)
(0.198639 0.154903 2.04047e-19)
(0.421978 0.351024 2.91181e-20)
(1.26872 1.06778 1.6431e-20)
(1.23635 1.07324 -4.43775e-21)
(1.17874 1.0602 4.60092e-20)
(1.11228 1.04344 7.57392e-20)
(1.03583 1.0219 1.61441e-19)
(0.947981 0.993847 -1.98896e-19)
(0.846083 0.955883 -5.51461e-21)
(0.726957 0.900791 -2.99174e-21)
(0.587711 0.810521 8.42631e-21)
(0.458721 0.666152 5.23794e-19)
(0.405532 0.47977 0)
(0.474284 0.315123 1.21578e-19)
(0.627874 0.273106 3.45214e-20)
(0.727183 0.362918 6.03733e-20)
(0.713692 0.454122 4.75096e-20)
(0.645712 0.490967 -1.13512e-19)
(0.590673 0.485444 -7.94325e-20)
(0.530503 0.438584 0)
(0.176607 0.148127 2.36701e-19)
(0.423644 0.365808 -7.07551e-20)
(1.26323 1.10461 0)
(1.22962 1.10959 1.46965e-21)
(1.17124 1.09607 3.50451e-20)
(1.10396 1.079 -7.53397e-20)
(1.02645 1.0574 -2.12178e-19)
(0.937143 1.02962 4.20921e-19)
(0.832645 0.992551 -2.48216e-20)
(0.708797 0.939249 0)
(0.558961 0.850926 -7.03001e-19)
(0.407404 0.699758 -1.21855e-18)
(0.325927 0.477837 3.53813e-20)
(0.403735 0.238524 6.0319e-20)
(0.661071 0.154104 0)
(0.853053 0.333636 -1.06117e-19)
(0.790297 0.561198 0)
(0.620963 0.623032 0)
(0.527783 0.573927 -9.93289e-20)
(0.464127 0.45585 0)
(0.150111 0.12203 7.01402e-20)
(0.42473 0.379637 -8.30173e-20)
(1.25771 1.13976 0)
(1.22301 1.14405 9.70682e-21)
(1.1641 1.1301 0)
(1.09615 1.11279 3.66745e-20)
(1.01773 1.09122 0)
(0.927349 1.06398 2.47489e-20)
(0.820695 1.02818 5.66779e-20)
(0.692427 0.977535 5.2758e-20)
(0.532352 0.893511 -8.06235e-19)
(0.35593 0.741204 4.12574e-20)
(0.229871 0.484255 2.49183e-19)
(0.290856 0.130294 5.21644e-21)
(0.701719 -0.0818245 -3.96461e-20)
(1.12577 0.208695 -3.03114e-19)
(1.0091 0.601765 0)
(0.68689 0.756807 2.63015e-19)
(0.439982 0.677068 -2.03532e-19)
(0.214341 0.447777 2.69181e-19)
(-0.0505824 0.661004 -3.57577e-19)
(0.425941 0.393284 7.24127e-20)
(1.25197 1.17351 7.67013e-20)
(1.21644 1.1769 0)
(1.1572 1.16268 3.33384e-21)
(1.08872 1.14543 -8.88653e-20)
(1.0095 1.12418 3.64684e-19)
(0.918243 1.09779 1.65157e-19)
(0.809832 1.06393 0)
(0.677601 1.01707 3.72445e-19)
(0.507195 0.940221 -4.54386e-20)
(0.303233 0.795502 0)
(0.112015 0.510625 0)
(0.0828923 -0.00537044 -7.75966e-20)
(0.56149 -0.266523 3.64842e-19)
(1.29534 0.34759 7.19118e-19)
(1.19401 0.929989 0)
(0.728783 1.15572 1.40981e-19)
(0.268278 1.07791 -2.35953e-19)
(0.169936 2.20409 -1.34603e-19)
(0.157026 2.94683 -1.44887e-19)
(0.427134 0.405792 -5.82086e-20)
(1.24572 1.20575 -1.03649e-19)
(1.2099 1.2079 8.18244e-21)
(1.15064 1.19362 -1.53348e-20)
(1.08167 1.17659 0)
(1.0018 1.15584 2.4873e-19)
(0.910054 1.13061 2.50451e-19)
(0.800207 1.09905 -3.0215e-20)
(0.665109 1.05711 5.69442e-20)
(0.485519 0.990296 8.26029e-19)
(0.25333 0.863266 7.32451e-19)
(-0.0206105 0.583338 3.5669e-19)
(-0.271782 0.0729196 -1.81925e-19)
(0.0221531 0.152276 1.45388e-18)
(0.987231 1.11556 1.63147e-18)
(1.13044 1.77816 0)
(0.620125 1.76699 0)
(0.357691 2.72159 3.42358e-20)
(0.29474 3.19559 0)
(0.233207 3.27195 1.24752e-19)
(0.431115 0.418918 0)
(1.23858 1.23613 0)
(1.20328 1.23663 0)
(1.14416 1.22264 -1.2672e-21)
(1.07475 1.20603 -7.88753e-20)
(0.994358 1.18598 1.75692e-19)
(0.902724 1.16229 1.71171e-19)
(0.791861 1.13342 -3.08598e-20)
(0.654752 1.097 5.06491e-19)
(0.468891 1.04352 6.1576e-21)
(0.211997 0.945691 1.57288e-18)
(-0.143592 0.732909 -3.16741e-20)
(-0.610835 0.438887 7.74728e-22)
(-0.686488 1.03492 -2.67814e-19)
(0.318137 2.21803 1.21555e-20)
(0.628291 2.68403 -4.41711e-20)
(0.40003 3.14579 6.08749e-19)
(0.35782 3.41852 1.19009e-19)
(0.267851 3.40561 -7.92533e-21)
(0.211879 3.38296 2.33868e-20)
(0.296374 0.345592 3.74481e-20)
(1.22989 1.26385 0)
(1.19744 1.26354 -3.00814e-20)
(1.13831 1.25037 2.5306e-20)
(1.06862 1.23441 -1.2994e-19)
(0.988031 1.21516 -1.79839e-19)
(0.896682 1.19197 -1.90431e-19)
(0.785815 1.16592 3.89081e-19)
(0.648175 1.13517 -4.34056e-19)
(0.460303 1.0959 0)
(0.195005 1.03874 8.36715e-19)
(-0.187907 0.948309 -3.7416e-19)
(-0.707371 0.91067 0)
(-1.15922 1.77909 -1.27653e-19)
(-0.326158 3.04384 -4.51767e-19)
(0.0609294 3.4866 3.20568e-19)
(0.156998 3.61179 -2.6793e-19)
(0.215926 3.5479 -1.32621e-19)
(0.187457 3.47893 -9.63081e-20)
(0.168232 3.44498 -1.63474e-19)
(0.5223 0.514098 -4.36087e-20)
(1.21251 1.28253 0)
(1.1883 1.30331 4.20283e-20)
(1.12766 1.29159 -7.17018e-21)
(1.05712 1.27668 1.12369e-19)
(0.975715 1.25879 1.63766e-19)
(0.882448 1.23842 2.45147e-19)
(0.770743 1.21644 3.09642e-20)
(0.631524 1.19461 4.55863e-19)
(0.439732 1.17751 8.39428e-19)
(0.164267 1.18025 5.27032e-20)
(-0.242559 1.24776 4.18476e-19)
(-0.772025 1.60887 4.22145e-20)
(-0.936765 2.53186 2.89772e-20)
(-0.456183 3.2612 2.03959e-19)
(-0.154826 3.48262 -2.15579e-19)
(0.0186197 3.50286 2.56935e-19)
(0.0942693 3.48134 1.28991e-19)
(0.115365 3.47489 1.18048e-19)
(0.116143 3.4731 1.35237e-20)
(0.517083 0.515477 0)
(1.2135 1.31097 2.32041e-20)
(1.18323 1.33136 -1.17119e-20)
(1.12176 1.32039 -2.30209e-21)
(1.0508 1.30593 6.3376e-20)
(0.969412 1.28881 -1.53225e-19)
(0.875978 1.26945 -1.53455e-19)
(0.764716 1.24993 2.95755e-20)
(0.627276 1.23424 -4.96453e-19)
(0.439753 1.2325 -3.94332e-21)
(0.177425 1.27211 -1.71906e-18)
(-0.17891 1.419 5.67758e-20)
(-0.578433 1.83037 -5.41732e-20)
(-0.671283 2.57319 1.25491e-20)
(-0.337118 3.12534 -5.31071e-20)
(-0.0794615 3.30516 -2.13442e-20)
(0.0539317 3.38787 -4.83894e-19)
(0.114969 3.43443 -3.00175e-19)
(0.127788 3.4671 1.86047e-19)
(0.110151 3.48155 1.23173e-19)
(0.492255 0.507974 7.52179e-20)
(1.21342 1.34368 1.65385e-19)
(1.17821 1.36241 -3.3179e-20)
(1.1157 1.35139 -7.17913e-21)
(1.04435 1.33708 0)
(0.963025 1.32029 -1.84513e-19)
(0.869751 1.30169 -2.11272e-19)
(0.759908 1.28478 2.80078e-20)
(0.625387 1.27503 -5.54906e-20)
(0.446011 1.28725 -8.44211e-19)
(0.206994 1.35651 -8.40207e-19)
(-0.0848098 1.54962 -5.43236e-19)
(-0.351689 1.95427 -4.44838e-19)
(-0.372146 2.52837 1.66304e-19)
(-0.139758 2.9466 -1.53957e-19)
(0.0440164 3.16248 0)
(0.145726 3.29329 0)
(0.19434 3.40615 1.89095e-19)
(0.179644 3.47343 0)
(0.121524 3.50081 2.68418e-19)
(0.470472 0.50487 -1.26336e-19)
(1.21063 1.37949 -1.54416e-19)
(1.17208 1.39586 0)
(1.10856 1.38402 5.67551e-21)
(1.03693 1.3693 3.60093e-20)
(0.955753 1.35237 -2.45611e-19)
(0.863262 1.33463 -1.30145e-19)
(0.75568 1.32023 2.276e-20)
(0.625065 1.31507 -3.99107e-19)
(0.454464 1.33602 4.56337e-20)
(0.241554 1.42684 0)
(0.019092 1.64132 0)
(-0.138187 2.01283 -4.5359e-19)
(-0.11272 2.46715 9.38443e-20)
(0.0620133 2.81608 -2.85017e-20)
(0.204474 3.05779 0)
(0.292525 3.2392 2.94626e-19)
(0.326337 3.36627 -4.58193e-19)