/*--------------------------------*- C++ -*----------------------------------*\
  =========                 |
  \\      /  F ield         | OpenFOAM: The Open Source CFD Toolbox
   \\    /   O peration     | Website:  https://openfoam.org
    \\  /    A nd           | Version:  7
     \\/     M anipulation  |
\*---------------------------------------------------------------------------*/
FoamFile
{
    version     2.0;
    format      ascii;
    class       volVectorField;
    location    "0.003";
    object      U;
}
// * * * * * * * * * * * * * * * * * * * * * * * * * * * * * * * * * * * * * //

dimensions      [0 1 -1 0 0 0 0];

internalField   nonuniform List<vector> 
100
(
(-2.55424e-12 0 0)
(-3.54471e-12 0 0)
(-1.79278e-12 0 0)
(-9.7589e-13 0 0)
(3.60306e-13 0 0)
(-4.18656e-13 0 0)
(-2.8737e-13 0 0)
(2.71324e-13 0 0)
(4.45419e-27 0 0)
(-4.37619e-13 0 0)
(0 0 0)
(-7.71465e-32 0 0)
(-7.95238e-64 0 0)
(-9.87618e-28 0 0)
(-3.92398e-13 0 0)
(4.18656e-13 0 0)
(3.84667e-12 0 0)
(1.83114e-11 0 0)
(1.14815e-10 0 0)
(6.87106e-10 0 0)
(3.96214e-09 0 0)
(2.20972e-08 0 0)
(1.18406e-07 0 0)
(6.11797e-07 0 0)
(3.02776e-06 0 0)
(1.43897e-05 0 0)
(6.52381e-05 0 0)
(0.000282608 0 0)
(0.00116192 0 0)
(0.00453521 0 0)
(0.0166879 0 0)
(0.0577895 0 0)
(0.186842 0 0)
(0.561077 0 0)
(1.54737 0 0)
(3.86885 0 0)
(8.55924 0 0)
(16.5115 0 0)
(28.1628 0 0)
(43.4162 0 0)
(61.5824 0 0)
(81.6126 0 0)
(102.783 0 0)
(124.187 0 0)
(145.816 0 0)
(166.907 0 0)
(187.386 0 0)
(207.009 0 0)
(225.344 0 0)
(242.502 0 0)
(257.294 0 0)
(269.376 0 0)
(279.728 0 0)
(287.647 0 0)
(292.797 0 0)
(296.558 0 0)
(298.991 0 0)
(298.69 0 0)
(295.939 0 0)
(292.058 0 0)
(287.921 0 0)
(284.45 0 0)
(282.017 0 0)
(279.906 0 0)
(275.928 0 0)
(265.552 0 0)
(234.785 0 0)
(147.408 0 0)
(39.3365 0 0)
(6.3776 0 0)
(0.935919 0 0)
(0.130823 0 0)
(0.0178531 0 0)
(0.002393 0 0)
(0.000315426 0 0)
(4.09251e-05 0 0)
(5.23268e-06 0 0)
(6.6019e-07 0 0)
(8.23086e-08 0 0)
(1.01551e-08 0 0)
(1.242e-09 0 0)
(1.50074e-10 0 0)
(1.77703e-11 0 0)
(2.99478e-12 0 0)
(-2.59654e-13 0 0)
(-5.10556e-13 0 0)
(-4.3762e-13 0 0)
(8.89827e-14 0 0)
(1.22679e-12 0 0)
(8.72322e-13 0 0)
(1.96783e-12 0 0)
(-4.2595e-13 0 0)
(-5.38272e-13 0 0)
(2.36023e-12 0 0)
(-5.25144e-13 0 0)
(-9.01496e-13 0 0)
(-1.01382e-12 0 0)
(-1.16699e-12 0 0)
(-5.45566e-13 0 0)
(-4.63877e-13 0 0)
)
;

boundaryField
{
    sides
    {
        type            zeroGradient;
    }
    empty
    {
        type            empty;
    }
}


// ************************************************************************* //
