/*--------------------------------*- C++ -*----------------------------------*\
  =========                 |
  \\      /  F ield         | OpenFOAM: The Open Source CFD Toolbox
   \\    /   O peration     | Website:  https://openfoam.org
    \\  /    A nd           | Version:  7
     \\/     M anipulation  |
\*---------------------------------------------------------------------------*/
FoamFile
{
    version     2.0;
    format      ascii;
    class       volScalarField;
    location    "12";
    object      p;
}
// * * * * * * * * * * * * * * * * * * * * * * * * * * * * * * * * * * * * * //

dimensions      [0 2 -2 0 0 0 0];

internalField   nonuniform List<scalar> 
16000
(
7.3066689e-07
-0.0001415144
-0.0004523322
-0.00085315969
-0.001269539
-0.0016562585
-0.0019825325
-0.0022296312
-0.0023869392
-0.002448793
-0.0024122728
-0.0022759474
-0.0020392738
-0.0017025177
-0.0012670623
-0.00073593555
-0.00011445101
0.00058913435
0.0013630687
0.002191745
0.003055601
0.0039313599
0.0047926324
0.0056109231
0.0063569971
0.0070025542
0.0075221045
0.0078949028
0.0081067765
0.0081516743
0.0080327821
0.0077631137
0.0073655519
0.0068724106
0.006324414
0.0057688903
0.0052607677
0.0048561633
0.0046166839
0.0045777218
0.00014270222
-2.1544336e-06
-0.00025141261
-0.00055903657
-0.00087972519
-0.0011792941
-0.0014335363
-0.0016263712
-0.0017474626
-0.0017904096
-0.0017512972
-0.0016277871
-0.0014186553
-0.0011236958
-0.00074392379
-0.00028196685
0.00025745838
0.0008670464
0.001536481
0.0022521641
0.0029971451
0.0037514606
0.0044924816
0.0051959351
0.0058370467
0.0063919849
0.0068394747
0.007162448
0.0073495875
0.0073966094
0.0073071475
0.0070931471
0.0067747258
0.0063795296
0.0059416473
0.0054999639
0.005095569
0.0047717383
0.0045735454
0.0045379136
0.00045980262
0.00024254537
-1.2361361e-05
-0.00029023402
-0.0005691016
-0.00082455714
-0.0010388205
-0.0011999092
-0.0012996382
-0.0013325176
-0.0012948539
-0.0011841426
-0.00099877391
-0.00073802191
-0.00040226049
6.6658868e-06
0.00048500547
0.0010266397
0.0016226874
0.0022612463
0.0029273548
0.0036031135
0.0042682256
0.0049007637
0.0054782596
0.0059790489
0.0063837759
0.0066769377
0.006848323
0.006894191
0.0068180473
0.0066309184
0.0063510776
0.006003232
0.0056172566
0.0052264954
0.0048654703
0.0045683352
0.0043712951
0.0043038583
0.00087967482
0.00054943613
0.0002498486
-3.4719334e-05
-0.00030396195
-0.00054168052
-0.00073629473
-0.00088063572
-0.0009696439
-0.00099964689
-0.00096785072
-0.00087199563
-0.0007102431
-0.00048129026
-0.00018466134
0.00017886731
0.00060679289
0.0010943938
0.0016342965
0.002216175
0.0028266368
0.0034492832
0.0040652114
0.0046536966
0.0051932433
0.0056629015
0.0060437612
0.0063204999
0.0064828309
0.0065266846
0.0064549641
0.0062777628
0.0060119912
0.0056804227
0.0053102393
0.0049312348
0.0045740029
0.0042683819
0.0040407302
0.0039052878
0.0013283776
0.00087024215
0.00050844602
0.00019945436
-7.6854482e-05
-0.00031147704
-0.00049870097
-0.00063628388
-0.00072256539
-0.0007559943
-0.00073492332
-0.00065747724
-0.00052160879
-0.00032535129
-6.7212835e-05
0.00025331056
0.00063518377
0.0010752632
0.0015677841
0.0021039723
0.0026718328
0.0032561815
0.0038390012
0.0044001136
0.0049182007
0.0053721296
0.0057424884
0.0060132024
0.0061730632
0.0062169859
0.0061468127
0.0059715306
0.0057068432
0.0053741033
0.0049986727
0.0046080035
0.0042302854
0.0038926503
0.0036106204
0.0033869577
0.0017530855
0.0011620315
0.0007290122
0.00038442792
8.9341649e-05
-0.00015346751
-0.00034363145
-0.00048360021
-0.00057504691
-0.00061855352
-0.00061364308
-0.00055881592
-0.00045175593
-0.0002897178
-7.0033422e-05
0.00020926607
0.00054879607
0.00094714303
0.0014002414
0.0019008715
0.0024383349
0.0029983974
0.0035635417
0.0041136024
0.0046267684
0.0050809377
0.005455334
0.0057322408
0.0058986763
0.0059477987
0.0058798339
0.005702365
0.0054299122
0.0050827998
0.004685351
0.004263837
0.0038455963
0.0034570802
0.0031052101
0.0027779896
0.002108779
0.0013864141
0.000878762
0.00049215301
0.00017046046
-8.8957802e-05
-0.00029053377
-0.00044102608
-0.0005451883
-0.00060556348
-0.00062271516
-0.00059539806
-0.00052089353
-0.00039552328
-0.00021526898
2.3487977e-05
0.00032319536
0.00068433146
0.0011046503
0.001578543
0.0020965795
0.0026453339
0.0032075211
0.0037625815
0.004287657
0.0047589844
0.0051536121
0.0054512943
0.0056363688
0.0056993877
0.0056382586
0.0054586958
0.005173893
0.0048033914
0.0043711472
0.0039033456
0.0034279724
0.0029726237
0.0025373163
0.0020966884
0.002357106
0.0015088189
0.00092695618
0.0004955594
0.00014266899
-0.00013921819
-0.00035886449
-0.00052691585
-0.000650867
-0.00073494582
-0.00078052491
-0.00078641047
-0.00074929036
-0.00066436231
-0.0005260599
-0.00032890873
-6.8419307e-05
0.00025798315
0.00065005865
0.0011039585
0.0016116113
0.0021604092
0.0027331894
0.0033087459
0.0038627555
0.0043691969
0.0048021752
0.0051380048
0.0053573454
0.0054471399
0.0054020748
0.0052253099
0.004928351
0.0045300098
0.0040543929
0.003528585
0.0029826353
0.0024470326
0.0019167487
0.0013552559
0.0024644323
0.0014977043
0.00084443252
0.00036789691
-1.8587707e-05
-0.00032701256
-0.00057009064
-0.00076195215
-0.00091247331
-0.0010272515
-0.0011081909
-0.0011539028
-0.0011602551
-0.0011211028
-0.0010291084
-0.00087670531
-0.00065710884
-0.00036537745
5.3444673e-07
0.00043880867
0.00094296825
0.0015014068
0.0020971495
0.0027082675
0.0033086989
0.003869665
0.0043615884
0.0047563808
0.0050298911
0.0051642394
0.0051497214
0.0049859651
0.0046821473
0.0042561623
0.0037326012
0.0031403058
0.0025127321
0.0018849597
0.0012483908
0.00055621655
0.0024004521
0.0013241355
0.00060375903
8.3247744e-05
-0.00033784214
-0.00067574224
-0.00094681326
-0.0011683066
-0.0013521377
-0.0015049621
-0.0016289337
-0.0017222136
-0.0017796124
-0.0017934084
-0.001754249
-0.0016522057
-0.0014778924
-0.0012236516
-0.00088476181
-0.00046059773
4.4363674e-05
0.00061993292
0.0012495649
0.0019107394
0.0025755609
0.0032121143
0.0037864418
0.0042650335
0.0046176316
0.0048200569
0.0048567055
0.0047223159
0.004422721
0.003974387
0.0034024781
0.0027382953
0.0020199812
0.0012888883
0.00053398395
-0.00030150199
0.0021375284
0.00096160182
0.0001794522
-0.00038293007
-0.0008388052
-0.0012084695
-0.0015116854
-0.0017685084
-0.0019925873
-0.0021913553
-0.0023669592
-0.0025168731
-0.0026346245
-0.0027106847
-0.0027334314
-0.0026902749
-0.0025688672
-0.0023584027
-0.002050975
-0.0016429411
-0.0011361788
-0.00053876795
0.0001336172
0.00085826114
0.0016055698
0.0023402877
0.0030234653
0.0036151212
0.0040774304
0.0043781381
0.004493815
0.0044124643
0.0041350612
0.0036756868
0.0030598237
0.0023217189
0.0015054168
0.00066025325
-0.00022641781
-0.0012215924
0.001650581
0.00038608759
-0.00045174498
-0.0010533202
-0.0015437117
-0.001947132
-0.0022865346
-0.0025845039
-0.0028561629
-0.00310949
-0.0033464133
-0.0035635252
-0.0037528778
-0.0039029262
-0.00399953
-0.004027123
-0.0039699899
-0.0038136643
-0.0035464256
-0.0031608344
-0.0026552101
-0.0020351956
-0.0013142374
-0.00051467552
0.00033260009
0.0011890441
0.0020102715
0.0027488161
0.0033576958
0.003794492
0.0040255429
0.004029662
0.0038007942
0.0033490623
0.0026995216
0.0018895404
0.0009701897
5.8077949e-07
-0.0010329698
-0.0022084809
0.00091729467
-0.00042366818
-0.0013104953
-0.0019482435
-0.0024726769
-0.0029117722
-0.0032914808
-0.0036366775
-0.0039637515
-0.0042810517
-0.0045901394
-0.0048865901
-0.0051608416
-0.0053991666
-0.0055846845
-0.0056985422
-0.0057212271
-0.0056340366
-0.0054206985
-0.005069101
-0.0045730546
-0.0039342072
-0.0031630231
-0.0022803065
-0.0013173934
-0.00031569792
0.0006748087
0.001598317
0.0023970568
0.0030160828
0.0034085751
0.0035409784
0.0033971912
0.0029809662
0.0023154819
0.0014409384
0.00041640321
-0.00068733013
-0.0018845511
-0.0032655184
-8.1462771e-05
-0.0014857823
-0.0024144241
-0.0030851154
-0.0036430341
-0.0041197432
-0.0045440083
-0.0049427881
-0.0053335845
-0.0057250112
-0.0061181878
-0.0065076139
-0.006882047
-0.0072254737
-0.0075181023
-0.0077375136
-0.0078599731
-0.0078619361
-0.0077217653
-0.0074216513
-0.0069496749
-0.0063019827
-0.0054846154
-0.0045153245
-0.0034245759
-0.0022557319
-0.0010640449
8.5805644e-05
0.0011237505
0.0019797885
0.0025905217
0.0029060377
0.0028961368
0.0025546798
0.0019005231
0.00097570416
-0.00015202746
-0.0013981756
-0.0027772525
-0.0043932615
-0.0013611049
-0.0028147707
-0.0037776509
-0.0044779085
-0.0050686892
-0.0055849323
-0.0060580379
-0.0065168761
-0.0069799678
-0.0074561617
-0.007946146
-0.0084433745
-0.0089349459
-0.0094025427
-0.0098233659
-0.010171214
-0.01041775
-0.010533996
-0.010492112
-0.010267474
-0.0098410205
-0.0092018009
-0.0083494982
-0.0072968657
-0.0060716292
-0.0047175453
-0.0032941957
-0.0018750921
-0.00054374733
0.00061229626
0.001509273
0.0020761053
0.0022632408
0.0020497168
0.0014462516
0.00049466525
-0.00072844304
-0.0021228089
-0.0037027552
-0.0055876818
-0.0029327649
-0.0044210887
-0.0054103408
-0.0061366456
-0.0067595118
-0.0073170111
-0.0078430078
-0.0083681517
-0.0089119563
-0.0094835602
-0.010083326
-0.010703789
-0.011330516
-0.011942966
-0.012515336
-0.013017524
-0.013416291
-0.013676705
-0.013763925
-0.013645391
-0.013293416
-0.01268814
-0.011820709
-0.010696484
-0.0093379769
-0.0077870419
-0.0061058013
-0.0043757226
-0.0026942124
-0.0011684606
9.3505551e-05
0.00099393813
0.0014573919
0.0014414454
0.00094304792
2.0350026e-07
-0.0013023736
-0.0028467194
-0.0046464987
-0.0068381633
-0.0048027893
-0.0063107516
-0.0073183514
-0.0080670004
-0.0087208357
-0.0093207891
-0.0099030411
-0.010499946
-0.011132065
-0.011808975
-0.012530922
-0.013289761
-0.014069757
-0.014848346
-0.015596842
-0.016281241
-0.016863235
-0.017301536
-0.017553616
-0.017577938
-0.017336743
-0.016799376
-0.0159461
-0.014772122
-0.013291709
-0.011541725
-0.0095840575
-0.0075061372
-0.0054186288
-0.0034496386
-0.0017350095
-0.00040504036
0.00043118821
0.00070123921
0.00038036599
-0.00050300184
-0.0018582406
-0.0035482346
-0.0055855277
-0.008125153
-0.0069723461
-0.0084850904
-0.0095030292
-0.010270053
-0.010953114
-0.011595717
-0.012236254
-0.012908793
-0.013635095
-0.01442544
-0.015280272
-0.016191116
-0.017141286
-0.018106504
-0.01905545
-0.019950357
-0.020747836
-0.021400017
-0.021856173
-0.022064937
-0.021977185
-0.021549677
-0.020749398
-0.019558485
-0.017979475
-0.016040434
-0.013799183
-0.011345798
-0.0088020788
-0.0063169214
-0.0040565691
-0.002189556
-0.00086719058
-0.00020242692
-0.00025237009
-0.0010068138
-0.0023736848
-0.0041963205
-0.006485892
-0.0094173207
-0.0094372373
-0.010940722
-0.011961231
-0.012742279
-0.013451803
-0.014135609
-0.01483428
-0.015583721
-0.016407183
-0.017316037
-0.01831137
-0.019384836
-0.020519254
-0.021689057
-0.022860657
-0.023992807
-0.025037188
-0.025939322
-0.026640023
-0.027077497
-0.027190254
-0.026920919
-0.026221015
-0.025056727
-0.023415175
-0.021311285
-0.01879403
-0.015951396
-0.012912398
-0.0098446231
-0.0069455429
-0.0044265697
-0.0024899823
-0.0013013857
-0.00096388603
-0.0014978036
-0.0028173422
-0.0047478305
-0.007299453
-0.010668077
-0.012187982
-0.013669812
-0.014685646
-0.01547583
-0.016207539
-0.01692866
-0.017682073
-0.018505833
-0.019425146
-0.020453027
-0.021591783
-0.022833768
-0.024161855
-0.025549705
-0.026961924
-0.028354186
-0.029673549
-0.030859113
-0.031843228
-0.032553418
-0.032915203
-0.032855939
-0.032309859
-0.031224848
-0.029568865
-0.027339179
-0.024570471
-0.021342631
-0.017786062
-0.014082512
-0.010458921
-0.0071720899
-0.0044830599
-0.0026230701
-0.0017577104
-0.0019544207
-0.0031458545
-0.0051440386
-0.0079599439
-0.011811296
-0.015210231
-0.016660699
-0.017665487
-0.01845919
-0.019206662
-0.019957773
-0.020758037
-0.021648227
-0.022656221
-0.02379743
-0.025076115
-0.026486006
-0.028010653
-0.029623515
-0.03128791
-0.032956905
-0.034573359
-0.036070309
-0.03737189
-0.038395029
-0.039052072
-0.039254513
-0.038918047
-0.037970726
-0.036357862
-0.034054865
-0.031076497
-0.027487676
-0.023412649
-0.019040192
-0.014621698
-0.01045855
-0.0068759093
-0.0041831225
-0.0026268483
-0.0023427857
-0.0032998599
-0.0053062742
-0.0083781276
-0.0127561
-0.018485577
-0.019898944
-0.020887618
-0.021678224
-0.02243211
-0.023201256
-0.024034496
-0.024976279
-0.026058209
-0.027299114
-0.028706109
-0.030275082
-0.031990917
-0.033827446
-0.035747211
-0.03770115
-0.039628392
-0.041456365
-0.043101443
-0.04447034
-0.045462488
-0.045973698
-0.045901344
-0.045149781
-0.043642182
-0.04132795
-0.038196548
-0.034290825
-0.029720164
-0.024670908
-0.019410337
-0.014279299
-0.0096683448
-0.005974953
-0.0035460036
-0.002610707
-0.0031986861
-0.0051304605
-0.0084358921
-0.013380574
-0.02199283
-0.023368913
-0.024338193
-0.025117707
-0.025864716
-0.026633844
-0.027478468
-0.028448247
-0.029580028
-0.030897394
-0.032411423
-0.034121016
-0.036013049
-0.038062233
-0.04023076
-0.042467835
-0.044709262
-0.046877329
-0.04888118
-0.050617916
-0.051974677
-0.05283197
-0.053068514
-0.052567414
-0.051226115
-0.048966185
-0.045747787
-0.041585266
-0.036564211
-0.030857506
-0.024736552
-0.01857174
-0.012814703
-0.0079563389
-0.0044610837
-0.0026795681
-0.0027334628
-0.0044803459
-0.0079791098
-0.013524293
-0.02570982
-0.027055985
-0.028004905
-0.02876334
-0.029484872
-0.030227986
-0.031052673
-0.032016126
-0.03316257
-0.034522093
-0.036111034
-0.037932216
-0.039975086
-0.0422156
-0.044615841
-0.047123476
-0.049671232
-0.052176598
-0.054541975
-0.056655514
-0.058392893
-0.059620258
-0.060198664
-0.059990186
-0.058867352
-0.056722709
-0.05348455
-0.049133783
-0.043724197
-0.03740392
-0.030434545
-0.023201649
-0.0162072
-0.010033868
-0.0052761163
-0.002433906
-0.0017584119
-0.0031792096
-0.0068090642
-0.012979525
-0.029615885
-0.030949583
-0.031879978
-0.032604317
-0.033274523
-0.033955322
-0.034716631
-0.03562661
-0.036739786
-0.038094947
-0.039715181
-0.041608109
-0.043766165
-0.046166654
-0.048771489
-0.051526699
-0.054361882
-0.05718982
-0.059906478
-0.062391593
-0.064510215
-0.06611524
-0.067051431
-0.067161144
-0.066292931
-0.064311256
-0.061111741
-0.056639013
-0.050909107
-0.044035366
-0.036255232
-0.02795202
-0.019661131
-0.012046925
-0.0058383252
-0.0017087765
-8.0147915e-05
-0.00099980375
-0.0046721743
-0.011480916
-0.033695288
-0.035047352
-0.035964132
-0.036636509
-0.03721944
-0.037788166
-0.038427672
-0.039221989
-0.040239799
-0.041531243
-0.043127728
-0.045042387
-0.04727074
-0.049791157
-0.0525649
-0.05553583
-0.058629962
-0.061755101
-0.064800755
-0.067638513
-0.070123438
-0.072096201
-0.073386746
-0.073819605
-0.073220324
-0.071427932
-0.068306263
-0.063763168
-0.057773778
-0.050409353
-0.041870491
-0.032520019
-0.022905315
-0.013753849
-0.0059228945
-0.00027545998
0.0025550528
0.0023477614
-0.0012475826
-0.0086932953
-0.037942092
-0.039361044
-0.040271907
-0.040866395
-0.041311678
-0.041700839
-0.042141667
-0.042740806
-0.043585945
-0.044741554
-0.046248806
-0.048126668
-0.050373329
-0.052967368
-0.055868355
-0.059016927
-0.062334574
-0.065723395
-0.06906601
-0.072225726
-0.075047911
-0.077361723
-0.078983384
-0.079720877
-0.0793804
-0.077776402
-0.074743652
-0.070154986
-0.063944474
-0.056137658
-0.04688914
-0.036524963
-0.025581398
-0.014823642
-0.0052198226
0.0021733649
0.0064758128
0.0072305773
0.0038681462
-0.0041967947
-0.042367493
-0.043925132
-0.044838973
-0.045315917
-0.04555212
-0.045670622
-0.045813247
-0.046118116
-0.046697623
-0.047633523
-0.048977682
-0.05075448
-0.052963551
-0.055582062
-0.058566152
-0.06185157
-0.065353789
-0.068967955
-0.07256898
-0.07601126
-0.07913036
-0.081744156
-0.083655853
-0.084658205
-0.084539577
-0.083092589
-0.080125778
-0.075479964
-0.069050463
-0.06081718
-0.050884194
-0.039528835
-0.027255028
-0.014836949
-0.0033261155
0.0060370504
0.012101638
0.014110568
0.011180598
0.0025323973
-0.047011608
-0.048809946
-0.049732474
-0.050028583
-0.049953023
-0.049678115
-0.049395357
-0.049285284
-0.049490987
-0.050113734
-0.051215857
-0.052825475
-0.054941281
-0.057536417
-0.060561051
-0.063943718
-0.067591784
-0.071391612
-0.075210143
-0.078890236
-0.08225805
-0.085119793
-0.087265688
-0.088473886
-0.088516181
-0.087164938
-0.08420525
-0.079449234
-0.072757054
-0.064065827
-0.053429046
-0.041068986
-0.027440862
-0.013299957
0.0002525883
0.011816036
0.019959394
0.023566178
0.02132391
0.012149339
-0.051963632
-0.054142477
-0.055066019
-0.055077198
-0.054540377
-0.053706761
-0.052838035
-0.052169373
-0.051879607
-0.052089814
-0.052870456
-0.054249819
-0.056221708
-0.058751414
-0.061779804
-0.065225072
-0.068983895
-0.072931134
-0.076928958
-0.080799504
-0.084363426
-0.087413873
-0.089727426
-0.091067452
-0.091190427
-0.089847717
-0.086803293
-0.081843179
-0.074795742
-0.06555913
-0.054139018
-0.040701262
-0.025642174
-0.0096746938
0.0060858301
0.02011182
0.030698178
0.036319392
0.035098423
0.025483389
-0.057398098
-0.060140268
-0.061021638
-0.060573525
-0.059355689
-0.05774117
-0.056086288
-0.054692183
-0.053775222
-0.053472823
-0.053857865
-0.054952578
-0.056739989
-0.059172342
-0.062177383
-0.065658736
-0.069500691
-0.073565964
-0.07769805
-0.08171665
-0.085423835
-0.08860034
-0.091009057
-0.092398099
-0.092505641
-0.091065847
-0.087819781
-0.082527986
-0.074988924
-0.065064435
-0.052715193
-0.038051533
-0.021405286
-0.0034290531
0.014781331
0.031610749
0.045098264
0.053269142
0.053526519
0.043612286
-0.063642872
-0.067167649
-0.067881639
-0.066679509
-0.064456025
-0.061763285
-0.059076503
-0.056768592
-0.055088269
-0.05417951
-0.054107019
-0.054877431
-0.056454888
-0.058772327
-0.061738236
-0.065239733
-0.069144555
-0.073300712
-0.077536529
-0.081659737
-0.08545766
-0.088697193
-0.091126424
-0.092477216
-0.092469453
-0.09081731
-0.08723842
-0.08146676
-0.073269741
-0.06247215
-0.048989375
-0.032874794
-0.014389952
0.0058893795
0.026919232
0.047041315
0.064065875
0.075530129
0.077936233
0.067996875
-0.071311244
-0.075829491
-0.076072901
-0.073617761
-0.069909359
-0.065743997
-0.061729514
-0.05830261
-0.055726651
-0.054132898
-0.053560848
-0.053988361
-0.055349523
-0.057550996
-0.060477051
-0.063993782
-0.067950198
-0.072177744
-0.076489437
-0.08067854
-0.08451809
-0.087760515
-0.090138471
-0.091366882
-0.091146587
-0.089169969
-0.085129118
-0.078728554
-0.069700413
-0.057827049
-0.042971661
-0.025122431
-0.0044588945
0.018547927
0.042942724
0.067085011
0.088593705
0.10446821
0.11008881
0.10073962
-0.081570238
-0.08712517
-0.086218346
-0.081670247
-0.075775454
-0.06962226
-0.063933702
-0.059175386
-0.055587703
-0.053256915
-0.052172745
-0.052265176
-0.053427857
-0.055531877
-0.058432389
-0.061971252
-0.065977033
-0.070263621
-0.074628384
-0.078850152
-0.082687909
-0.085879828
-0.088143368
-0.089176577
-0.088660972
-0.086266126
-0.081656202
-0.074502556
-0.064495439
-0.051364728
-0.034906956
-0.015024225
0.0082159261
0.034479222
0.06297686
0.092191185
0.1196285
0.14169416
0.15237632
0.14509208
-0.096708699
-0.10269059
-0.0991551
-0.091119129
-0.08203437
-0.073240927
-0.065492926
-0.059204721
-0.054527011
-0.051451865
-0.049885276
-0.04968834
-0.050699924
-0.052748187
-0.055654981
-0.059236087
-0.063299189
-0.067640967
-0.072044006
-0.076273857
-0.080076781
-0.083178103
-0.08528151
-0.086069494
-0.08520533
-0.082336013
-0.077096853
-0.069122701
-0.058054829
-0.043557816
-0.025340351
-0.0031856888
0.022999456
0.053095543
0.08658611
0.12223687
0.15773754
0.18891179
0.20805921
0.20628556
-0.12129903
-0.12514897
-0.11583949
-0.10205506
-0.08840002
-0.076189226
-0.066002597
-0.058051596
-0.052289441
-0.048543502
-0.046593686
-0.046207985
-0.047157934
-0.049223421
-0.052191546
-0.055852707
-0.059995542
-0.064401868
-0.068842074
-0.073071104
-0.076825284
-0.079819953
-0.081747966
-0.082279225
-0.08106176
-0.07772167
-0.071868213
-0.06309808
-0.050998923
-0.035158477
-0.015174382
0.0093303906
0.038679076
0.073078201
0.11246577
0.15620851
0.20257877
0.24747384
0.28125335
0.29230667
-0.16442606
-0.1584028
-0.13712296
-0.11414003
-0.094099313
-0.077631773
-0.064744386
-0.055170622
-0.048497165
-0.044293576
-0.042166545
-0.041770445
-0.042803348
-0.044997882
-0.048110521
-0.051911428
-0.056175464
-0.060674592
-0.065171681
-0.069415466
-0.073136629
-0.076044812
-0.077826528
-0.078144144
-0.076636088
-0.072907158
-0.066551713
-0.057129591
-0.044175995
-0.027197755
-0.0056656877
0.020995347
0.053416611
0.092278404
0.13823968
0.19176909
0.25261077
0.31745606
0.37621465
0.41531546
-0.24626911
-0.20629284
-0.16210973
-0.1255168
-0.097141414
-0.075884719
-0.060500088
-0.049767165
-0.042673446
-0.03844414
-0.036489948
-0.03635435
-0.037674198
-0.040149286
-0.043518878
-0.047544316
-0.051996105
-0.056644176
-0.061250502
-0.065563412
-0.069313215
-0.072208918
-0.073935884
-0.074155153
-0.072504488
-0.068565168
-0.061935422
-0.052144042
-0.038685306
-0.020996952
0.0015683225
0.029787595
0.064640553
0.10741303
0.1598153
0.22411998
0.30284702
0.39547425
0.49618628
0.60315411
-0.42541546
-0.26570509
-0.17720118
-0.12462485
-0.089115858
-0.065111256
-0.049338921
-0.039203165
-0.033000418
-0.029686003
-0.028574717
-0.029180435
-0.031138578
-0.034158983
-0.037994107
-0.042418065
-0.047212651
-0.052157494
-0.057022868
-0.061564292
-0.065518414
-0.068599846
-0.07049844
-0.070875928
-0.069354476
-0.065587849
-0.059103794
-0.049438349
-0.036074256
-0.018415981
0.0042470189
0.032812537
0.06849952
0.11309255
0.16938273
0.24196063
0.33800819
0.46585746
0.64299614
0.92080343
-0.79328615
-0.32441461
-0.14897471
-0.087712142
-0.055343771
-0.03600785
-0.02510761
-0.019221106
-0.016375641
-0.01563532
-0.016503242
-0.018653035
-0.021840236
-0.025862662
-0.030536579
-0.035682519
-0.041116642
-0.046644764
-0.052057797
-0.0571281
-0.061606532
-0.065220085
-0.067670206
-0.068633078
-0.067766743
-0.064661769
-0.058908872
-0.050053634
-0.037588719
-0.02093609
0.00058923167
0.027848934
0.062017532
0.10486511
0.15939812
0.23147172
0.33379361
0.49403372
0.78995764
1.3837194
1.3140448e-06
-0.00014119967
-0.00045228662
-0.00085326094
-0.0012697851
-0.0016566127
-0.0019829713
-0.0022301309
-0.0023874874
-0.0024493748
-0.002412875
-0.0022765592
-0.0020398824
-0.0017031125
-0.0012676335
-0.00073647133
-0.00011493976
0.00058870433
0.0013627099
0.002191469
0.0030554181
0.0039312779
0.004792655
0.0056110492
0.0063572204
0.007002863
0.0075224813
0.0078953258
0.0081072212
0.0081521145
0.0080331912
0.0077634644
0.0073658182
0.0068725701
0.0063244528
0.0057688183
0.0052605744
0.0048558294
0.0046162026
0.0045774735
0.0001429211
-1.982575e-06
-0.00025121268
-0.00055876539
-0.00087937641
-0.0011788654
-0.0014330519
-0.0016258488
-0.0017469236
-0.0017898702
-0.0017507699
-0.0016272865
-0.0014181937
-0.001123285
-0.00074357711
-0.00028169632
0.0002576407
0.00086712885
0.0015364548
0.0022520225
0.0029968849
0.0037510805
0.0044919842
0.0051953262
0.005836336
0.0063911863
0.0068386062
0.0071615313
0.0073486478
0.0073956743
0.0073062458
0.0070923065
0.0067739689
0.0063788747
0.0059411072
0.0054995454
0.0050952827
0.0047715086
0.004573277
0.0045378836
0.00046006252
0.00024257174
-1.2273514e-05
-0.00029015868
-0.00056906725
-0.00082453788
-0.0010388194
-0.0011999258
-0.0012996722
-0.0013325691
-0.0012949216
-0.0011842265
-0.0009988736
-0.00073813717
-0.00040239281
6.5168533e-06
0.00048484041
0.0010264593
0.0016224941
0.0022610427
0.0029271438
0.0036028986
0.0042680089
0.0049005466
0.0054780427
0.0059788325
0.0063835599
0.0066767216
0.0068481065
0.0068939739
0.0068178294
0.0066306998
0.006350856
0.0060030042
0.0056170214
0.0052262549
0.0048652325
0.0045680806
0.0043709836
0.0043036981
0.00087999269
0.00054930498
0.00024990978
-3.4658096e-05
-0.00030397728
-0.00054172845
-0.00073637012
-0.00088073788
-0.00096976941
-0.0009997923
-0.00096801278
-0.00087217201
-0.00071043132
-0.00048148787
-0.00018486815
0.00017865315
0.00060657398
0.0010941732
0.001634079
0.0022159648
0.0028264368
0.0034490973
0.0040650412
0.0046535427
0.0051931051
0.0056627775
0.0060436487
0.006320395
0.0064827292
0.0065265812
0.0064548539
0.0062776417
0.0060118538
0.0056802627
0.0053100539
0.0049310241
0.0045737646
0.004268118
0.0040404526
0.003905021
0.0013287996
0.00086995133
0.00050851298
0.00019956849
-7.6819247e-05
-0.00031146126
-0.00049869725
-0.00063629713
-0.00072259601
-0.00075604133
-0.00073498614
-0.00065755559
-0.00052170256
-0.00032546001
-6.7338516e-05
0.00025316777
0.00063502461
0.0010750888
0.0015675975
0.0021037757
0.0026716281
0.0032559715
0.0038387872
0.0043998962
0.004917981
0.005371909
0.0057422682
0.006012983
0.0061728447
0.0062167674
0.0061465929
0.0059713093
0.0057066197
0.0053738748
0.0049984399
0.0046077645
0.004230025
0.0038923992
0.0036104726
0.0033866112
0.0017536187
0.0011615798
0.00072906676
0.00038455803
8.9375359e-05
-0.00015345178
-0.00034362224
-0.00048360569
-0.00057506888
-0.0006185908
-0.00061369493
-0.00055888249
-0.00045183817
-0.0002898154
-7.0148489e-05
0.00020913362
0.00054864715
0.00094697844
0.0014000636
0.0019006819
0.0024381342
0.002998188
0.003563325
0.004113379
0.0046265393
0.0050807049
0.0054550994
0.0057320058
0.0058984424
0.0059475662
0.0058796014
0.0057021321
0.0054296791
0.0050825648
0.0046851155
0.004263596
0.0038453209
0.0034568306
0.0031051522
0.0027775544
0.0021094224
0.0013858115
0.00087880389
0.00049229338
0.00017048457
-8.8952462e-05
-0.00029053179
-0.00044103801
-0.00054521655
-0.00060560687
-0.00062277257
-0.00059546944
-0.00052098041
-0.00039562511
-0.00021538775
2.3352747e-05
0.00032304527
0.00068416745
0.0011044746
0.001578357
0.0020963827
0.0026451272
0.0032073068
0.0037623609
0.0042874318
0.0047587567
0.0051533834
0.0054510654
0.005636141
0.0056991622
0.0056380335
0.0054584695
0.0051736654
0.0048031619
0.0043709182
0.0039031078
0.0034276821
0.0029723725
0.0025373537
0.0020961759
0.0023578518
0.0015080731
0.00092698672
0.00049571319
0.00014268978
-0.00013921536
-0.00035886096
-0.00052692451
-0.00065089058
-0.00073498365
-0.00078057621
-0.00078647523
-0.00074937081
-0.00066445757
-0.00052617183
-0.00032903695
-6.8562057e-05
0.00025782633
0.00064988917
0.0011037781
0.0016114188
0.0021602041
0.0027329735
0.0033085213
0.0038625247
0.0043689633
0.0048019412
0.0051377707
0.005357112
0.0054469096
0.0054018463
0.0052250803
0.0049281199
0.004529778
0.0040541651
0.0035283477
0.002982329
0.0024467802
0.0019168841
0.0013546523
0.0024652755
0.0014968263
0.00084445353
0.00036806516
-1.8567412e-05
-0.00032700919
-0.00057008254
-0.00076195453
-0.00091248907
-0.0010272807
-0.0011082333
-0.0011539583
-0.0011603266
-0.001121189
-0.0010292107
-0.00087682356
-0.00065724116
-0.0003655241
3.7282218e-07
0.00043863362
0.00094277977
0.0015012038
0.0020969331
0.0027080397
0.0033084624
0.0038694238
0.0043613464
0.0047561392
0.0050296501
0.0051640017
0.0051494873
0.0049857309
0.0046819113
0.0042559261
0.0037323725
0.0031400676
0.0025124083
0.0018847058
0.0012486266
0.00055551701
0.0024013863
0.0013231378
0.00060377314
8.3430487e-05
-0.00033782145
-0.00067573771
-0.00094679995
-0.0011683021
-0.0013521451
-0.0015049821
-0.0016289669
-0.0017222598
-0.0017796745
-0.0017934846
-0.0017543404
-0.0016523127
-0.001478013
-0.0012237859
-0.00088491282
-0.00046076529
4.4180824e-05
0.00061973291
0.0012493494
0.0019105107
0.0025753212
0.0032118674
0.0037861928
0.004264785
0.0046173834
0.0048198118
0.0048564656
0.0047220776
0.004422481
0.0039741468
0.0034022481
0.0027380553
0.002019638
0.0012886325
0.00053432754
-0.00030230433
0.0021385473
0.00096049704
0.00017946162
-0.00038273261
-0.00083878259
-0.0012084627
-0.0015116661
-0.0017684966
-0.0019925862
-0.002191366
-0.0023669826
-0.002516909
-0.0026346759
-0.0027107492
-0.0027335097
-0.0026903685
-0.0025689752
-0.0023585243
-0.0020511137
-0.0016430987
-0.0011363532
-0.00053896354
0.00013340365
0.00085803257
0.0016053287
0.0023400372
0.0030232106
0.0036148666
0.0040771758
0.0043778854
0.004493568
0.0044122211
0.0041348174
0.0036754429
0.0030595924
0.0023214765
0.001505051
0.00065999481
-0.00022595416
-0.001222508
0.0016516778
0.00038488995
-0.00045173794
-0.0010531079
-0.0015436854
-0.0019471214
-0.0022865084
-0.0025844845
-0.0028561539
-0.0031094919
-0.0033464273
-0.0035635506
-0.0037529178
-0.0039029781
-0.0039995936
-0.0040272011
-0.0039700836
-0.0038137724
-0.0035465509
-0.0031609809
-0.0026553802
-0.0020353853
-0.0013144466
-0.00051490196
0.00033235928
0.0011887914
0.0020100119
0.0027485559
0.0033574353
0.0037942322
0.0040252881
0.0040294125
0.0038005462
0.0033488157
0.0026992904
0.0018892962
0.00096979837
3.1858643e-07
-0.0010323697
-0.0022095238
0.00091846007
-0.00042494371
-0.0013104881
-0.001948016
-0.002472645
-0.0029117561
-0.0032914463
-0.003636649
-0.0039637329
-0.0042810436
-0.0045901423
-0.0048866027
-0.0051608678
-0.005399204
-0.0055847322
-0.0056986033
-0.0057213048
-0.0056341304
-0.00542081
-0.0050692343
-0.0045732129
-0.003934387
-0.0031632247
-0.002280528
-0.0013176314
-0.00031595036
0.00067454576
0.0015980514
0.0023967908
0.0030158167
0.0034083128
0.003540722
0.0033969384
0.0029807177
0.0023152534
0.001440695
0.00041598439
-0.00068759633
-0.001883794
-0.0032667077
-8.023918e-05
-0.0014871201
-0.0024144146
-0.0030848738
-0.003642996
-0.0041197215
-0.004543966
-0.0049427509
-0.0053335564
-0.0057249927
-0.0061181791
-0.006507613
-0.0068820577
-0.0072254952
-0.0075181334
-0.0077375571
-0.0078600337
-0.0078620145
-0.0077218623
-0.0074217701
-0.0069498179
-0.0063021496
-0.0054848065
-0.0045155383
-0.0034248083
-0.002255981
-0.0010643086
8.5535675e-05
0.0011234791
0.0019795165
0.0025902528
0.0029057748
0.0028958787
0.0025544297
0.0019003
0.00097546478
-0.00015247506
-0.0013984444
-0.0027763127
-0.0043946217
-0.001359834
-0.0028161537
-0.0037776365
-0.0044776532
-0.0050686434
-0.0055849037
-0.0060579875
-0.0065168299
-0.0069799295
-0.0074561316
-0.0079461249
-0.0084433594
-0.0089349408
-0.0094025482
-0.0098233808
-0.010171241
-0.010417794
-0.010534058
-0.010492194
-0.010267578
-0.0098411479
-0.0092019527
-0.0083496757
-0.0072970686
-0.0060718536
-0.0047177883
-0.0032944571
-0.0018753644
-0.00054402367
0.00061201898
0.0015089987
0.0020758378
0.0022629787
0.0020494655
0.0014460353
0.00049443216
-0.00072892258
-0.0021230791
-0.0037016014
-0.0055892418
-0.00293146
-0.0044225006
-0.0054103204
-0.0061363786
-0.006759458
-0.0073169748
-0.0078429484
-0.0083680957
-0.0089119067