/*--------------------------------*- C++ -*----------------------------------*\
  =========                 |
  \\      /  F ield         | OpenFOAM: The Open Source CFD Toolbox
   \\    /   O peration     | Website:  https://openfoam.org
    \\  /    A nd           | Version:  7
     \\/     M anipulation  |
\*---------------------------------------------------------------------------*/
FoamFile
{
    version     2.0;
    format      ascii;
    class       surfaceScalarField;
    location    "12";
    object      phi;
}
// * * * * * * * * * * * * * * * * * * * * * * * * * * * * * * * * * * * * * //

dimensions      [0 3 -1 0 0 0 0];

internalField   nonuniform List<scalar> 
45600
(
2.7719464e-07
-2.7787362e-07
-1.5477885e-11
4.0251919e-07
-1.2531191e-07
-8.4971108e-12
1.3091324e-07
2.7161992e-07
-1.230697e-12
-5.6307821e-07
6.9398525e-07
2.7337577e-12
-1.6377103e-06
1.0746185e-06
6.6441999e-12
-3.0224576e-06
1.3847349e-06
9.5629457e-12
-4.6428339e-06
1.6203708e-06
1.1845047e-11
-6.430375e-06
1.7875214e-06
1.3490134e-11
-8.3251887e-06
1.8947924e-06
1.4799695e-11
-1.0275451e-05
1.9502435e-06
1.570849e-11
-1.2235565e-05
1.9600984e-06
1.6257813e-11
-1.4163957e-05
1.9283756e-06
1.6517937e-11
-1.6021027e-05
1.8570512e-06
1.6431989e-11
-1.7767573e-05
1.7465263e-06
1.6058311e-11
-1.9363853e-05
1.5962631e-06
1.5421629e-11
-2.0769366e-05
1.4054983e-06
1.4464931e-11
-2.1943338e-05
1.1739605e-06
1.3195296e-11
-2.284589e-05
9.0254126e-07
1.1609826e-11
-2.343978e-05
5.9387943e-07
9.6859216e-12
-2.3692607e-05
2.5281923e-07
7.4522002e-12
-2.3579308e-05
-1.133036e-07
4.9377677e-12
-2.3084722e-05
-4.9458705e-07
2.2124518e-12
-2.2206073e-05
-8.7864527e-07
-6.0840357e-13
-2.0955039e-05
-1.2510284e-06
-3.403293e-12
-1.935918e-05
-1.5958508e-06
-6.0303589e-12
-1.7462517e-05
-1.8966509e-06
-8.3378815e-12
-1.5325056e-05
-2.1374462e-06
-1.0172405e-11
-1.3021141e-05
-2.3038995e-06
-1.1419002e-11
-1.0636631e-05
-2.3844934e-06
-1.2004689e-11
-8.2650148e-06
-2.3716014e-06
-1.1885996e-11
-6.0026537e-06
-2.2623482e-06
-1.104325e-11
-3.9434639e-06
-2.0591789e-06
-9.4673395e-12
-2.1733209e-06
-1.7701346e-06
-7.1898314e-12
-7.6432064e-07
-1.4089957e-06
-4.3056543e-12
2.31556e-07
-9.9587637e-07
-1.0465609e-12
7.9031376e-07
-5.5876084e-07
1.9438499e-12
9.2450145e-07
-1.3419395e-07
5.2188134e-12
7.028541e-07
2.2163761e-07
9.0149937e-12
2.8964236e-07
4.13199e-07
1.2994683e-11
2.8963696e-07
6.2688428e-12
1.332442e-07
-4.1110803e-07
-5.9093713e-12
-3.0143851e-07
3.0940387e-07
-4.9843245e-12
-1.6130957e-06
1.5832802e-06
-5.7986007e-12
-3.8672106e-06
2.9480996e-06
-7.8649672e-12
-6.9915579e-06
4.1989822e-06
-1.011564e-11
-1.0853012e-05
5.2462005e-06
-1.2434067e-11
-1.529534e-05
6.062715e-06
-1.4049971e-11
-2.0161543e-05
6.6537325e-06
-1.5150471e-11
-2.5303938e-05
7.0372007e-06
-1.5631731e-11
-3.0586944e-05
7.2332667e-06
-1.564386e-11
-3.588591e-05
7.2590806e-06
-1.5292779e-11
-4.1084225e-05
7.1267045e-06
-1.4516568e-11
-4.6070139e-05
6.8429746e-06
-1.3388798e-11
-5.0734189e-05
6.4105856e-06
-1.191637e-11
-5.4967807e-05
5.8298905e-06
-1.0054553e-11
-5.8663352e-05
5.1010517e-06
-7.8460345e-12
-6.1715659e-05
4.2262707e-06
-5.2876039e-12
-6.4025005e-05
3.2118855e-06
-2.3911513e-12
-6.5501304e-05
2.0701719e-06
7.6146162e-13
-6.6069182e-05
8.2068653e-07
4.1082904e-12
-6.5673785e-05
-5.0871346e-07
7.5454054e-12
-6.4286e-05
-1.8823882e-06
1.1023022e-11
-6.1908205e-05
-3.256461e-06
1.4425466e-11
-5.8578199e-05
-4.5810569e-06
1.7658454e-11
-5.4371979e-05
-5.8020956e-06
2.0613255e-11
-4.9404447e-05
-6.8642098e-06
2.3161899e-11
-4.3827751e-05
-7.7141687e-06
2.5189728e-11
-3.7827048e-05
-8.3046317e-06
2.6586458e-11
-3.1613632e-05
-8.5979379e-06
2.7253091e-11
-2.5415656e-05
-8.5696067e-06
2.7120565e-11
-1.9466789e-05
-8.2112427e-06
2.6149507e-11
-1.3993358e-05
-7.5326368e-06
2.4381546e-11
-9.2004575e-06
-6.5630605e-06
2.1952465e-11
-5.2573912e-06
-5.3520842e-06
1.8994062e-11
-2.2825302e-06
-3.9707557e-06
1.566342e-11
-3.2686481e-07
-2.514439e-06
1.213925e-11
6.4886851e-07
-1.1099345e-06
8.3047916e-12
7.9850535e-07
7.1994539e-08
6.6622967e-12
4.1593909e-07
7.9575716e-07
7.7832711e-12
7.0557594e-07
8.0974548e-13
-2.7293281e-07
-1.3815529e-07
-7.0167431e-12
-1.6237129e-06
1.6601783e-06
-7.647668e-13
-4.278806e-06
4.2383678e-06
-2.5477706e-12
-8.2529781e-06
6.9222686e-06
-2.1849031e-12
-1.3437459e-05
9.3834704e-06
-9.9620573e-13
-1.9652896e-05
1.1461632e-05
-5.5865342e-13
-2.6688158e-05
1.3097977e-05
-2.9236597e-14
-3.4325151e-05
1.4290719e-05
4.8175259e-13
-4.2351951e-05
1.5063994e-05
9.8625064e-13
-5.0567947e-05
1.5449257e-05
1.4927089e-12
-5.8784053e-05
1.5475183e-05
1.9613458e-12
-6.6820462e-05
1.516311e-05
2.4334528e-12
-7.4503719e-05
1.4526227e-05
2.8913288e-12
-8.166436e-05
1.3571221e-05
3.3425454e-12
-8.81359e-05
1.2301427e-05
3.8374109e-12
-9.3755597e-05
1.0720744e-05
4.3223426e-12
-9.8367093e-05
8.8377615e-06
4.7870939e-12
-0.00010182485
6.6696416e-06
5.2324655e-12
-0.00010400011
4.2454222e-06
5.6067048e-12
-0.00010478792
1.6084896e-06
5.9048325e-12
-0.00010411458
-1.1820552e-06
6.1180526e-12
-0.00010194532
-4.0516467e-06
6.2346488e-12
-9.8290941e-05
-6.9108457e-06
6.2848631e-12
-9.3213134e-05
-9.6588653e-06
6.2966297e-12
-8.6827732e-05
-1.2187499e-05
6.2918491e-12
-7.9305221e-05
-1.4386723e-05
6.2755663e-12
-7.0868106e-05
-1.6151286e-05
6.2638198e-12
-6.1784816e-05
-1.7387926e-05
6.2661611e-12
-5.2360071e-05
-1.8022687e-05
6.2763233e-12
-4.292192e-05
-1.8007763e-05
6.296685e-12
-3.380586e-05
-1.7327309e-05
6.3186429e-12
-2.5336668e-05
-1.6001835e-05
6.3407607e-12
-1.7808664e-05
-1.4091072e-05
6.4263606e-12
-1.1465051e-05
-1.1695704e-05
6.6084853e-12
-6.4768082e-06
-8.9590048e-06
6.8223708e-12
-2.9209982e-06
-6.0702555e-06
6.9753532e-12
-7.5853503e-07
-3.272404e-06
6.8969322e-12
1.8917039e-07
-8.7571761e-07
7.3848346e-12
2.6335859e-07
7.215612e-07
9.0352947e-12
9.6893163e-07
4.3257201e-12
-7.4380064e-07
6.0565252e-07
-8.5818017e-12
-3.1706026e-06
4.0869663e-06
3.8038559e-12
-7.3245869e-06
8.3923611e-06
-1.7742289e-12
-1.3123599e-05
1.2721286e-05
-1.7760511e-12
-2.0393416e-05
1.6653294e-05
4.4458731e-13
-2.8903054e-05
1.9971266e-05
1.3899648e-12
-3.8393787e-05
2.258871e-05
2.1865554e-12
-4.8599732e-05
2.4496657e-05
2.9629639e-12
-5.9259796e-05
2.5724052e-05
3.6401882e-12
-7.0122949e-05
2.6312406e-05
4.2172577e-12
-8.0948984e-05
2.6301215e-05
4.6999365e-12
-9.1506884e-05
2.5721006e-05
5.1152199e-12
-0.00010157251
2.4591845e-05
5.4588036e-12
-0.00011092688
2.2925584e-05
5.731376e-12
-0.00011935592
2.0730459e-05
5.9978658e-12
-0.0001266521
1.8016919e-05
6.2112381e-12
-0.00013261813
1.4803779e-05
6.3489182e-12
-0.00013707252
1.1124028e-05
6.3978858e-12
-0.00013985683
7.0297182e-06
6.306801e-12
-0.00014084388
2.5955302e-06
6.0980001e-12
-0.00013994646
-2.0794854e-06
5.8016587e-12
-0.00013712611
-6.872009e-06
5.3934486e-12
-0.00013240057
-1.1636395e-05
4.934567e-12
-0.00012584985
-1.6209597e-05
4.4619102e-12
-0.00011761977
-2.0417584e-05
4.0086296e-12
-0.00010792248
-2.4084014e-05
3.5963508e-12
-9.7033325e-05
-2.7040449e-05
3.2621593e-12
-8.5283673e-05
-2.9137583e-05
3.0417357e-12
-7.3049635e-05
-3.0256729e-05
2.94903e-12
-6.0736698e-05
-3.0320705e-05
3.0005988e-12
-4.8760732e-05
-2.9303279e-05
3.1973638e-12
-3.7526077e-05
-2.7236495e-05
3.5145567e-12
-2.7401594e-05
-2.4215559e-05
3.9850433e-12
-1.8695747e-05
-2.0401554e-05
4.6411696e-12
-1.1631779e-05
-1.6022977e-05
5.3761764e-12
-6.3238735e-06
-1.1378167e-05
6.1102576e-12
-2.7551835e-06
-6.841101e-06
6.9128418e-12
-7.6052597e-07
-2.8703818e-06
7.6530232e-12
-1.1132713e-08
-2.7838322e-08
8.0521546e-12
9.57794e-07
7.2037951e-12
-1.2241796e-06
1.8298395e-06
-1.1393887e-11
-4.7729286e-06
7.6357031e-06
8.434528e-12
-1.0487686e-05
1.4107129e-05
-1.9418548e-12
-1.8155199e-05
2.0388798e-05
-3.3100004e-12
-2.7513811e-05
2.6011906e-05
-1.0219091e-12
-3.8270537e-05
3.0727987e-05
-4.5754484e-13
-5.0118151e-05
3.4436325e-05
-1.0782852e-13
-6.2748394e-05
3.7126895e-05
3.8421782e-13
-7.5859948e-05
3.88356e-05
8.8816251e-13
-8.9161861e-05
3.9614315e-05
1.3640807e-12
-0.00010237367
3.9513019e-05
1.8221167e-12
-0.00011522379
3.8571121e-05
2.2724991e-12
-0.00012744759
3.6815646e-05
2.7195361e-12
-0.00013878631
3.42643e-05
3.1532134e-12
-0.00014898749
3.0931631e-05
3.6450412e-12
-0.00015780742
2.6836837e-05
4.1411866e-12
-0.00016501565
2.2012005e-05
4.6159439e-12
-0.00017040146
1.6509836e-05
5.0571577e-12
-0.00017378184
1.0410098e-05
5.4126521e-12
-0.00017501058
3.8242603e-06
5.7005849e-12
-0.00017398775
-3.1023231e-06
5.9357276e-12
-0.00017066908
-1.0190689e-05
6.0889599e-12
-0.00016507426
-1.7231221e-05
6.2080943e-12
-0.0001572936
-2.3990259e-05
6.3055237e-12
-0.00014749219
-3.0219003e-05
6.373385e-12
-0.00013591081
-3.5665397e-05
6.3969752e-12
-0.00012286305
-4.0088218e-05
6.3861428e-12
-0.00010872794
-4.32727e-05
6.3625811e-12
-9.3937964e-05
-4.5046713e-05
6.3373424e-12
-7.8962317e-05
-4.5296359e-05
6.3356295e-12
-6.4285817e-05
-4.3979785e-05
6.3734774e-12
-5.0384187e-05
-4.1138132e-05
6.4170052e-12
-3.7696817e-05
-3.6902937e-05
6.4831692e-12
-2.6598466e-05
-3.1499909e-05
6.6253731e-12
-1.7371584e-05
-2.5249864e-05
6.7539777e-12
-1.0181018e-05
-1.8568739e-05
6.929805e-12
-5.0530332e-06
-1.1969094e-05
7.5515718e-12
-1.8609892e-06
-6.0624325e-06
7.2830336e-12
-3.2295672e-07
-1.5658723e-06
4.287168e-12
6.3482984e-07
9.3556646e-12
-1.6874849e-06
3.5173433e-06
-1.4396726e-11
-6.3497498e-06
1.2297959e-05
1.3101855e-11
-1.3624759e-05
2.1382147e-05
-1.5822947e-12
-2.3154639e-05
2.9918674e-05
-3.773611e-12
-3.4576786e-05
3.743405e-05
-9.7766885e-13
-4.7527435e-05
4.3678633e-05
-4.5618843e-13
-6.1647696e-05
4.8556589e-05
-2.6706692e-13
-7.6588638e-05
5.2067833e-05
1.5888165e-13
-9.2013957e-05
5.4260913e-05
6.3714863e-13
-0.00010760021
5.5200567e-05
1.0814374e-12
-0.00012303528
5.4948081e-05
1.5037902e-12
-0.00013801601
5.3551856e-05
1.9308108e-12
-0.00015224628
5.1045907e-05
2.3853088e-12
-0.00016543607
4.7454084e-05
2.8307626e-12
-0.00017730244
4.2797988e-05
3.3372378e-12
-0.00018757244
3.7106835e-05
3.841273e-12
-0.00019598822
3.0427772e-05
4.319086e-12
-0.00020231389
2.2835502e-05
4.7735911e-12
-0.00020634408
1.4440281e-05
5.158766e-12
-0.00020791344
5.3936099e-06
5.4994669e-12
-0.00020690671
-4.1090582e-06
5.8206721e-12
-0.00020326866
-1.3828745e-05
6.074282e-12
-0.00019701325
-2.3486645e-05
6.2856747e-12
-0.00018823118
-3.2772336e-05
6.4794432e-12
-0.00017709519
-4.1355001e-05
6.6431687e-12
-0.00016386212
-4.8898467e-05
6.7509264e-12
-0.00014887108
-5.5079262e-05
6.80405e-12
-0.00013253686
-5.9606925e-05
6.8151769e-12
-0.00011533817
-6.2245411e-05
6.7834611e-12
-9.7800387e-05
-6.2834147e-05
6.7423143e-12
-8.0473089e-05
-6.1307089e-05
6.7423994e-12
-6.3903024e-05
-5.7708206e-05
6.7530487e-12
-4.8603881e-05
-5.2202088e-05
6.7601655e-12
-3.5024684e-05
-4.5079113e-05
6.8157326e-12
-2.3519091e-05
-3.6755461e-05
6.8307796e-12
-1.4318161e-05
-2.7769675e-05
6.9915683e-12
-7.5093186e-06
-1.8777945e-05
7.9872243e-12
-3.0246553e-06
-1.0547102e-05
7.2375259e-12
-6.4220908e-07
-3.9483178e-06
1.6778485e-12
-7.3902665e-09
1.1748142e-11
-2.1253594e-06
5.6427221e-06
-1.7368877e-11
-7.8630163e-06
1.8035593e-05
1.7474362e-11
-1.6658104e-05
3.0177235e-05
-1.2147524e-12
-2.80065e-05
4.1267062e-05
-4.0711718e-12
-4.1439103e-05
5.0866651e-05
-6.9918436e-13
-5.6516382e-05
5.875591e-05
-1.5486632e-13
-7.282537e-05
6.4865579e-05
-5.745749e-14
-8.9977166e-05
6.9219623e-05
3.4599349e-13
-0.00010760394
7.1887677e-05
8.1914947e-13
-0.0001253553
7.2951922e-05
1.2585796e-12
-0.00014289432
7.2487104e-05
1.6652826e-12
-0.00015989389
7.0551419e-05
2.0701315e-12
-0.00017603402
6.7186035e-05
2.5196577e-12
-0.00019100086
6.2420915e-05
2.9532334e-12
-0.0002044876
5.6284728e-05
3.44473e-12
-0.00021619762
4.8816848e-05
3.9219973e-12
-0.00022584963
4.0079776e-05
4.3530471e-12
-0.00023318477
3.0170647e-05
4.7565416e-12
-0.00023797528
1.9230786e-05
5.0943765e-12
-0.00024003423
7.4525546e-06
5.3922885e-12
-0.00023922605
-4.9172423e-06
5.7102279e-12
-0.00023547709
-1.7577711e-05
5.9937804e-12
-0.00022878588
-3.0177867e-05
6.2165793e-12
-0.00021923207
-4.2326144e-05
6.3966085e-12
-0.00020698355
-5.3603536e-05
6.5308809e-12
-0.00019230046
-6.3581561e-05
6.603737e-12
-0.00017553549
-7.1844242e-05
6.6325356e-12
-0.00015712906
-7.8013359e-05
6.6408703e-12
-0.00013759882
-8.1775656e-05
6.6064277e-12
-0.00011752271
-8.2910262e-05
6.5394728e-12
-9.7515658e-05
-8.1314154e-05
6.5257592e-12
-7.8200471e-05
-7.70234e-05
6.5636463e-12
-6.0174468e-05
-7.0228099e-05
6.6000829e-12
-4.3973967e-05
-6.1279619e-05
6.6560946e-12
-3.003962e-05
-5.0689812e-05
6.6414772e-12
-1.8685861e-05
-3.912344e-05
6.8974184e-12
-1.0077933e-05
-2.7385882e-05
8.417996e-12
-4.2200533e-06
-1.6404988e-05
7.2856516e-12
-9.5797661e-07
-7.2103919e-06
-1.0845047e-12
-9.6537989e-07
1.3836281e-11
-2.5356941e-06
8.1784401e-06
-2.0134711e-11
-9.2947838e-06
2.4794656e-05
2.1630607e-11
-1.9544277e-05
4.0426731e-05
-8.8577304e-13
-3.2639149e-05
5.4361933e-05
-4.460176e-12
-4.8004377e-05
6.6231882e-05
-6.0300369e-13
-6.5123712e-05
7.5875248e-05
-8.2048115e-14
-8.3529713e-05
8.3271585e-05
-1.0235183e-13
-0.00010279467
8.8484572e-05
2.5124547e-13
-0.00012252217
9.161518e-05
6.8393967e-13
-0.00014233946
9.276921e-05
1.0972505e-12
-0.00016189057
9.2038207e-05
1.4876527e-12
-0.00018083081
8.9491659e-05
1.8781576e-12
-0.00019882303
8.5178249e-05
2.3331922e-12
-0.00021553586
7.9133743e-05
2.7626666e-12
-0.00023064429
7.1393146e-05
3.2463574e-12
-0.00024383239
6.200495e-05
3.7186792e-12
-0.00025479832
5.1045698e-05
4.140098e-12
-0.00026326108
3.8633404e-05
4.5481864e-12
-0.00026896906
2.4938758e-05
4.9154541e-12
-0.00027170982
1.019331e-05
5.2333641e-12
-0.00027132098
-5.3060935e-06
5.5845371e-12
-0.00026770148
-2.1197217e-05
5.9477e-12
-0.00026082332
-3.7056038e-05
6.261457e-12
-0.00025074239
-5.2407081e-05
6.5133155e-12
-0.0002376081
-6.6737837e-05
6.691678e-12
-0.00022167046
-7.9519212e-05
6.7754124e-12
-0.00020328345
-9.0231259e-05
6.7888098e-12
-0.00018290328
-9.8393536e-05
6.7915292e-12
-0.00016108019
-0.00010359876
6.7672084e-12
-0.00013844279
-0.00010554767
6.6802752e-12
-0.00011567454
-0.00010408241
6.625928e-12
-9.3482718e-05
-9.9215229e-05
6.6568382e-12
-7.2561391e-05
-9.1149431e-05
6.701009e-12
-5.3551042e-05
-8.0289973e-05
6.722574e-12
-3.6998355e-05
-6.7242503e-05
6.608071e-12
-2.3320318e-05
-5.2801482e-05
6.8836042e-12
-1.2776868e-05
-3.7929341e-05
8.8844724e-12
-5.4561304e-06
-2.3725733e-05
7.3184537e-12
-1.2756158e-06
-1.1390902e-05
-3.9281146e-12
-2.2410129e-06
1.629484e-11
-2.9175298e-06
1.1095996e-05
-2.2763419e-11
-1.0634265e-05
3.2511361e-05
2.5461764e-11
-2.2254629e-05
5.2047101e-05
-6.093802e-13
-3.7001956e-05
6.910926e-05
-4.8795631e-12
-5.4200134e-05
8.3430064e-05
-5.8859935e-13
-7.3258675e-05
9.493379e-05
-9.7618401e-14
-9.3657454e-05
0.00010367037
-2.3487569e-13
-0.00011493215
0.00010975926
6.8891518e-14
-0.00013666094
0.00011334397
4.5706504e-13
-0.00015845288
0.00011456114
8.4528371e-13
-0.00017993805
0.00011352338
1.2276678e-12
-0.00020075991
0.00011031352
1.6110257e-12
-0.00022056999
0.00010498833
2.0746349e-12
-0.00023902506
9.7588804e-05
2.4994916e-12
-0.00025578676
8.8154845e-05
2.9674736e-12
-0.00027052369
7.6741868e-05
3.4294419e-12
-0.00028291555
6.3437557e-05
3.8375672e-12
-0.00029265943
4.8377278e-05
4.2529671e-12
-0.00029947776
3.1757085e-05
4.687512e-12
-0.00030312799
1.3843531e-05
5.0770836e-12
-0.0003034137
-5.0203912e-06
5.4665158e-12
-0.00030019668
-2.4414243e-05
5.8884089e-12
-0.00029341041
-4.3842319e-05
6.2769745e-12
-0.00028307328
-6.2744222e-05
6.6064851e-12
-0.0002693015
-8.0509629e-05
6.8588347e-12
-0.00025232016
-9.6500555e-05
6.99663e-12
-0.000232471
-0.00011008043
7.0182144e-12
-0.00021021492
-0.00012064963
7.0078749e-12
-0.00018612755
-0.00012768613
6.9903562e-12
-0.00016088606
-0.00013078916
6.8938827e-12
-0.0001352462
-0.00012972228
6.7907214e-12
-0.00011000955
-0.00012445188
6.7928463e-12
-8.5982502e-05
-0.00011517649
6.8451747e-12
-6.3929571e-05
-0.00010234291
6.8501878e-12
-4.4525702e-05
-8.6646378e-05
6.6335345e-12
-2.831242e-05
-6.901477e-05
6.9095582e-12
-1.5663206e-05
-5.0578564e-05
9.3899666e-12
-6.7628736e-06
-3.2626073e-05
7.3643691e-12
-1.604326e-06
-1.6549445e-05
-6.838795e-12
-3.8453593e-06
1.8886231e-11
-3.2694116e-06
1.4365436e-05
-2.5222921e-11
-1.1871998e-05
4.1113913e-05
2.8933396e-11
-2.4765267e-05
6.4940375e-05
-4.0915273e-13
-4.1052391e-05
8.5396385e-05
-5.3000085e-12
-5.9963836e-05
0.00010234151
-6.0004961e-13
-8.0839909e-05
0.00011580986
-1.315673e-13
-0.00010311147
0.00012594194
-3.8602806e-13
-0.0001262809
0.00013292869
-1.3010945e-13
-0.00014990454
0.00013696761
2.1563118e-13
-0.00017357742
0.00013823403
5.8131862e-13
-0.00019692047
0.00013686643
9.6174573e-13
-0.00021957052
0.00013296357
1.3386277e-12
-0.00024117317
0.00012659098
1.8024806e-12
-0.00026137849
0.00011779412
2.2105423e-12
-0.0002798394
0.00010661575
2.6507794e-12
-0.00029621248
9.3114942e-05
3.1020641e-12
-0.00031016109
7.7386168e-05
3.4979994e-12
-0.00032136058
5.9576759e-05
3.89672e-12
-0.00032950543
3.9901934e-05
4.3795362e-12
-0.00033431849
1.8656592e-05
4.8597143e-12
-0.00033556232
-3.7765684e-06
5.3030982e-12
-0.00033305168
-2.6924891e-05
5.8006579e-12
-0.00032666936
-5.0224645e-05
6.2504157e-12
-0.00031638188
-7.3031713e-05
6.6351786e-12
-0.00030225637
-9.463514e-05
6.9505502e-12
-0.0002844766
-0.00011428033
7.1595917e-12
-0.00026335626
-0.00013120078
7.2210507e-12
-0.00023934738
-0.00014465851
7.2077445e-12
-0.00021304122
-0.0001539923
7.198311e-12
-0.00018515909
-0.00015867129
7.1073414e-12
-0.00015653134
-0.00015835004
6.9591004e-12
-0.00012806348
-0.00015291975
6.9101462e-12
-0.00010069074
-0.00014254923
6.9587942e-12
-7.5323966e-05
-0.00012770969
6.9675884e-12
-5.2791916e-05
-0.00010917844
6.6706062e-12
-3.378646e-05
-8.8020235e-05
6.9584415e-12
-1.8817298e-05
-6.5547737e-05
9.9538485e-12
-8.1823312e-06
-4.3261048e-05
7.4175391e-12
-1.957472e-06
-2.2774298e-05
-9.9650174e-12
-5.802855e-06
2.1661565e-11
-3.5889911e-06
1.7954457e-05
-2.7509697e-11
-1.2997607e-05
5.0522492e-05
3.2041212e-11
-2.705248e-05
7.8995252e-05
-2.7301056e-13
-4.4749518e-05
0.00010309342
-5.7267686e-12
-6.5235275e-05
0.00012282727
-6.5574099e-13
-8.7787651e-05
0.00013836224
-1.9832719e-13
-0.00011179355
0.00014994784
-5.6095676e-13
-0.00013672622
0.00015786136
-3.4307065e-13
-0.00016212421
0.00016236559
-3.1602245e-14
-0.00018757275
0.00016368256
3.0816587e-13
-0.00021268823
0.00016198191
6.7882489e-13
-0.00023710582
0.00015738116
1.0405132e-12
-0.00026047034
0.0001499555
1.4924373e-12
-0.00028243021
0.00013975398
1.8716163e-12
-0.00030263414
0.00012681967
2.269817e-12
-0.00032073045
0.00011121125
2.7162833e-12
-0.00033636863
9.3024349e-05
3.1319833e-12
-0.00034920313
7.2411254e-05
3.5270109e-12
-0.00035889936
4.9598159e-05
4.0225728e-12
-0.00036514204
2.4899274e-05
4.5691183e-12
-0.00036764677
-1.271841e-06
5.0596694e-12
-0.0003661722
-2.8399465e-05
5.6727068e-12
-0.00036053888
-5.5857974e-05
6.1936137e-12
-0.00035064693
-8.2923665e-05
6.6291403e-12
-0.0003364977
-0.00010878437
6.9915567e-12
-0.00031821535
-0.0001325627
7.2669432e-12
-0.00029606696
-0.00015334918
7.3851335e-12
-0.00027047843
-0.00017024705
7.3814792e-12
-0.00024204264
-0.0001824281
7.3859821e-12
-0.00021151649
-0.00018919745
7.3276146e-12
-0.00017980359
-0.00019006295
7.1634451e-12
-0.00014792069
-0.00018480265
7.0544925e-12
-0.00011694806
-0.00017352188
7.0690439e-12
-8.7966665e-05
-0.00015669109
7.0728192e-12
-6.1988143e-05
-0.00013515697
6.7078213e-12
-3.9885379e-05
-0.00011012301
7.0290498e-12
-2.2332605e-05
-8.3100523e-05
1.0608533e-11
-9.763186e-06
-5.5830476e-05
7.4955974e-12
-2.3500421e-06
-3.0187432e-05
-1.3447105e-11
-8.1529239e-06
2.471866e-11
-3.8730758e-06
2.1827566e-05
-2.9612118e-11
-1.3999233e-05
6.0648608e-05
3.4734585e-11
-2.9091118e-05
9.4087141e-05
-2.0405403e-13
-4.805134e-05
0.00012205365
-6.1591901e-12
-6.9953226e-05
0.00014472915
-7.62527e-13
-9.4020169e-05
0.00016242918
-3.067812e-13
-0.00011960102
0.00017552869
-7.6000317e-13
-0.00014614467
0.00018440501
-5.6181701e-13
-0.0001731761
0.00018939701
-2.6323857e-13
-0.00020027503
0.0001907815
5.6466651e-14
-0.00022705783
0.0001887647
4.0604519e-13
-0.00025316281
0.00018348614
7.3551218e-13
-0.00027823907
0.00017503176
1.1616857e-12
-0.00030193843
0.00016345333
1.5058299e-12
-0.00032391025
0.00014879149
1.8444837e-12
-0.00034379886
0.00013109987
2.2656889e-12
-0.00036124327
0.00011046875
2.7166203e-12
-0.00037587911
8.70471e-05
3.1355323e-12
-0.00038734318
6.1062223e-05
3.6333586e-12
-0.00039528059
3.2836679e-05
4.2475628e-12
-0.00039935483
2.8023996e-06
4.9340437e-12
-0.00039926298
-2.849132e-05
5.4995195e-12
-0.00039475206
-6.0368899e-05
6.0651959e-12
-0.00038564228
-9.2033449e-05
6.5672823e-12
-0.00037185217
-0.0001225745
6.9841671e-12
-0.0003534264
-0.00015098847
7.3311326e-12
-0.00033056383
-0.00017621176
7.5276596e-12
-0.00030364237
-0.00019716851
7.546006e-12
-0.0002732369
-0.00021283358
7.5542189e-12
-0.00024012506
-0.00022230929
7.5347778e-12
-0.00020527658
-0.00022491143
7.3889422e-12
-0.0001698222
-0.00022025704
7.235512e-12
-0.00013500098
-0.0002083431
7.1912957e-12
-0.00010208837
-0.0001896037
7.153438e-12
-7.2311269e-05
-0.00016493408
6.7063093e-12
-4.6759982e-05
-0.00013567431
7.0815458e-12
-2.6308925e-05
-0.00010355159
1.1349481e-11
-1.155738e-05
-7.058203e-05
7.6042481e-12
-2.7976965e-06
-3.8947101e-05
-1.7404021e-11
-1.095065e-05
2.8157316e-11
-4.1178792e-06
2.594548e-05
-3.146338e-11
-1.4863865e-05
7.1394552e-05
3.69936e-11
-3.0854746e-05
0.00011007803
-2.0926248e-13
-5.0914669e-05
0.00014211357
-6.5971113e-12
-7.4055124e-05
0.00016786961
-9.2534885e-13
-9.9453449e-05
0.00018782751
-4.670404e-13
-0.00012642674
0.00020250198
-1.0020346e-12
-0.00015440447
0.00021238274
-8.2688907e-13
-0.00018290237
0.00021789491
-5.3857652e-13
-0.00021149881
0.00021937794
-2.3630345e-13
-0.00023981446
0.00021708036
8.4996845e-14
-0.00026749551
0.00021116719
3.6752541e-13
-0.00029420031
0.00020173655
7.5976014e-13
-0.00031958934
0.00018884236
1.0861415e-12
-0.00034331794
0.00017252009
1.3838414e-12
-0.00036503157
0.00015281349
1.7732667e-12
-0.00038436336
0.00012980054
2.2535388e-12
-0.00040093404
0.00010361778
2.7213882e-12
-0.00041435436
7.4482543e-05
3.2340024e-12
-0.00042423065
4.2712967e-05
3.8650922e-12
-0.00043017375
8.7454863e-06
4.59154e-12
-0.0004318137
-2.6851376e-05
5.2137828e-12
-0.00042881702
-6.3365586e-05
5.8485174e-12
-0.00042091198
-9.9938491e-05
6.4253818e-12
-0.00040791792
-0.00013556857
6.9006272e-12
-0.00038977925
-0.00016912714
7.3214146e-12
-0.00036660203
-0.00019938899
7.6256867e-12
-0.00033868949
-0.00022508105
7.7027441e-12
-0.00030657197
-0.00024495111
7.7151285e-12
-0.00027102496
-0.0002578563
7.7196402e-12
-0.00023306878
-0.00026286762
7.6071473e-12
-0.00019394355
-0.00025938228
7.4353833e-12
-0.00015505614
-0.00024723052
7.331132e-12
-0.00011789948
-0.00022676037
7.2051956e-12
-8.3950766e-05
-0.0001988828
6.6257627e-12
-5.4560462e-05
-0.00016506462
7.0611819e-12
-3.0847651e-05
-0.00012726442
1.2146851e-11
-1.3618114e-05
-8.7811576e-05
7.7206235e-12
-3.3164041e-06
-4.9248794e-05
-2.1956295e-11
-1.4267088e-05
3.2109221e-11
-4.3193795e-06
3.0264897e-05
-3.3034472e-11
-1.5578198e-05
8.2653328e-05
3.8799331e-11
-3.2316912e-05
0.00012681674
-2.7582627e-13
-5.3296711e-05
0.00016309337
-7.0077531e-12
-7.7478948e-05
0.00019205185
-1.1067791e-12
-0.00010400346
0.00021435203
-6.3046306e-13
-0.00013216184
0.00023066036
-1.2256887e-12
-0.00016136897
0.00024158987
-1.0783633e-12
-0.00019113541
0.00024766135
-8.1354867e-13
-0.00022104207
0.0002492846
-5.3783974e-13
-0.00025071806
0.00024675634
-2.5145002e-13
-0.00027982188
0.00024027101
-2.8768561e-14
-0.0003080262
0.00022994087
3.1095266e-13
-0.00033500561
0.00021582177
6.2369823e-13
-0.00036042729
0.00019794177
9.0020978e-13
-0.00038394394
0.00017633014
1.2627634e-12
-0.00040518904
0.00015104564
1.7561488e-12
-0.0004237743
0.00012220303
2.2745291e-12
-0.00043928977
8.999801e-05
2.8151368e-12
-0.00045130716
5.473036e-05
3.4434496e-12
-0.00045938716
1.6825482e-05
4.14891e-12
-0.0004630922
-2.3146343e-05
4.8391719e-12
-0.00046200443
-6.4453365e-05
5.5431152e-12
-0.00045575149
-0.00010619144
6.2016168e-12
-0.00044403918
-0.00014728089
6.7408476e-12
-0.00042669117
-0.00018647515
7.2246863e-12
-0.00040369419
-0.00022238598
7.6483304e-12
-0.00037524535
-0.0002535299
7.8297807e-12
-0.00034179655
-0.00027839992
7.8734015e-12
-0.00030408852
-0.00029556433
7.8880714e-12
-0.00026316567
-0.00030379048
7.7988394e-12
-0.00022036251
-0.00030218544
7.6232304e-12
-0.00017725452
-0.00029033852
7.4841904e-12
-0.00013557112
-0.00026844378
7.2528388e-12
-9.7076076e-05
-0.00023737786
6.4715118e-12
-6.3428937e-05
-0.00019871177
6.9425715e-12
-3.6048087e-05
-0.00015464528
1.2981453e-11
-1.5998541e-05
-0.00010786113
7.7954441e-12
-3.9222773e-06
-6.1325033e-05
-2.7256137e-11
-1.8189402e-05
3.6723056e-11
-4.4737511e-06
3.4738686e-05
-3.4310249e-11
-1.6129846e-05
9.4309378e-05
4.0108119e-11
-3.3453201e-05
0.0001441401
-4.1897475e-13
-5.5157911e-05
0.00018479809
-7.402345e-12
-8.0166811e-05
0.00021706075
-1.3281209e-12
-0.00010759048
0.00024177571
-8.2874548e-13
-0.0001367009
0.00025977078
-1.4631052e-12
-0.00016690271
0.00027179168
-1.3408918e-12
-0.00019770496
0.00027846359
-1.110469e-12
-0.00022869461
0.00028027425
-8.705217e-13
-0.00025951291
0.00027757464
-6.1323062e-13
-0.00028983498
0.00027059308
-4.3756144e-13
-0.00031935267
0.00025945855
-1.4954253e-13
-0.00034776038
0.00024422948
1.5799584e-13
-0.00037474353
0.00022492492
4.3257923e-13
-0.00039996923
0.00020155584
7.7299107e-13
-0.00042307903
0.00017415544
1.2559536e-12
-0.00044368384
0.00014280784
1.8052928e-12
-0.00046136131
0.00010767548
2.3753854e-12
-0.00047565644
6.9025482e-05
3.0040139e-12
-0.00048608631
2.7255355e-05
3.6946311e-12
-0.00049215043
-1.7082232e-05
4.4045557e-12
-0.00049334744
-6.3256355e-05
5.1464421e-12
-0.00048920038
-0.00011033851
5.8861825e-12
-0.00047929098
-0.00015719029
6.5062276e-12
-0.00046330381
-0.00020246233
7.0469782e-12
-0.00044107936
-0.00024461043
7.5818196e-12
-0.00041267364
-0.00028193562
7.8982105e-12
-0.00037841903
-0.00031265454
8.0144508e-12
-0.00033897817
-0.00033500519
8.0417947e-12
-0.0002953799
-0.00034738876
7.9546108e-12
-0.00024902406
-0.00034854129
7.7587976e-12
-0.00020164331
-0.00033771927
7.6001647e-12
-0.00015521473
-0.00031487237
7.2886841e-12
-0.0001118233
-0.0002807693
6.2733046e-12
-7.3491976e-05
-0.0002370431
6.7601621e-12
-4.2004045e-05
-0.00018613323
1.3907919e-11
-1.8750721e-05
-0.00013111446
7.8371118e-12
-4.6314956e-06
-7.5444227e-05
-3.3464797e-11
-2.282094e-05
4.2118067e-11
-4.5778504e-06
3.9316573e-05
-3.5230756e-11
-1.6508805e-05
0.00010624029
4.0948704e-11
-3.4243847e-05
0.00016187514
-5.9006831e-13
-5.6465737e-05
0.00020701998
-7.7426028e-12
-8.2069866e-05
0.00024266488
-1.5612313e-12
-0.00011014514
0.00026985098
-1.0519952e-12
-0.00013994906
0.0002895747
-1.7212517e-12
-0.00017087979
0.00030272241
-1.6252319e-12
-0.00020244791
0.00031003171
-1.4382566e-12
-0.00023424939
0.00031207573
-1.2477332e-12
-0.00026594092
0.00030926618
-1.0171952e-12
-0.00029721814
0.00030187031
-8.6690356e-13
-0.00032779686
0.00029003728
-6.1835489e-13
-0.00035739705
0.00027382967
-3.0426387e-13
-0.00038572922
0.00025325708
-7.9452171e-15
-0.00041248292
0.00022830954
3.2519481e-13
-0.00043731703
0.00019898956
7.7983101e-13
-0.00045985202
0.00016534283
1.3304991e-12
-0.00047966437
0.00012748783
1.9192564e-12
-0.00049628408
8.5645187e-05
2.5539343e-12
-0.00050919601
4.0167286e-05
3.2400412e-12
-0.00051784677
-8.4314797e-06
3.9497127e-12
-0.00052165854
-5.9444589e-05
4.6935278e-12
-0.00052005196
-0.00011194509
5.4943678e-12
-0.00051247995
-0.0001647623
6.2084614e-12
-0.00049847407
-0.00021646821
6.8098327e-12
-0.00047770383
-0.00026538068
7.439233e-12
-0.00045004776
-0.0003095917
7.8983737e-12
-0.00041567182
-0.00034703049
8.1271708e-12
-0.00037510668
-0.00037557034
8.1867018e-12
-0.00032931097
-0.00039318447
8.093221e-12
-0.00027970334
-0.00039814893
7.8456964e-12
-0.00022814512
-0.0003892775
7.6321976e-12
-0.00017685904
-0.00036615846
7.2453457e-12
-0.00012828022
-0.00032934813
5.9983477e-12
-8.4852282e-05
-0.00028047104
7.3071198e-12
-4.8800188e-05
-0.00022218533
1.4999937e-11
-2.1924569e-05
-0.00015799009
7.9232382e-12
-5.4602472e-06
-9.190851e-05
-4.0670736e-11
-2.8281234e-05
4.8421517e-11
-4.6297471e-06
4.3946357e-05
-3.5780222e-11
-1.6709119e-05
0.00011831961
4.1324459e-11
-3.4676803e-05
0.00017984283
-7.6174092e-13
-5.7199188e-05
0.00022954237
-8.0085489e-12
-8.3154251e-05
0.00026861994
-1.7898342e-12
-0.00011161571
0.00029831245
-1.2903508e-12
-0.00014183083
0.00031978981
-2.0002387e-12
-0.00017319418
0.00033408577
-1.9325095e-12
-0.00020522028
0.00034205782
-1.7853303e-12
-0.0002375165
0.00034437195
-1.6475313e-12
-0.00026975781
0.00034150748
-1.4412439e-12
-0.00030166391
0.00033377641
-1.294343e-12
-0.00033297909
0.00032135245
-1.0737633e-12
-0.00036345457
0.00030430516
-7.5149756e-13
-0.00039283311
0.00028263562
-4.1646054e-13
-0.00042083537
0.00025631179
-6.4088013e-14
-0.00044714795
0.00022530213
3.6656995e-13
-0.00047141304
0.00018960792
8.9585234e-13
-0.00049321989
0.00014929469
1.4840179e-12
-0.00051209876
0.00010452405
2.1212591e-12
-0.00052751833
5.5586859e-05
2.8143725e-12
-0.00053888807
2.9382574e-06
3.5307559e-12
-0.00054556754
-5.2765125e-05
4.2529154e-12
-0.00054688476
-0.00011062787
5.0789078e-12
-0.00054216689
-0.00016948017
5.8833114e-12
-0.00053078572
-0.00022784939
6.5494037e-12
-0.0005122203
-0.0002839461
7.2499805e-12
-0.00048613732
-0.00033567468
7.8339857e-12
-0.00045248651
-0.0003806813
8.1999984e-12
-0.00041160369
-0.00041645316
8.3179143e-12
-0.00036430734
-0.00044048083
8.2296117e-12
-0.00031196799
-0.00045048828
7.9309136e-12
-0.00025652476
-0.00044472074
7.619683e-12
-0.00020042439
-0.00042225883
7.1058223e-12
-0.0001464689
-0.00038330363
5.5953171e-12
-9.7578844e-05
-0.0003293611
6.2110748e-12
-5.6507622e-05
-0.00026325657
1.6274147e-11
-2.5566552e-05
-0.00018893116
8.1038604e-12
-6.4246261e-06
-0.00011105039
-4.8920326e-11
-3.4705915e-05
5.5799306e-11
-4.6292901e-06
4.8575684e-05
-3.5954352e-11