/*--------------------------------*- C++ -*----------------------------------*\
  =========                 |
  \\      /  F ield         | OpenFOAM: The Open Source CFD Toolbox
   \\    /   O peration     | Website:  https://openfoam.org
    \\  /    A nd           | Version:  7
     \\/     M anipulation  |
\*---------------------------------------------------------------------------*/
FoamFile
{
    version     2.0;
    format      ascii;
    class       surfaceScalarField;
    location    "12";
    object      phi_0;
}
// * * * * * * * * * * * * * * * * * * * * * * * * * * * * * * * * * * * * * //

dimensions      [0 3 -1 0 0 0 0];

internalField   nonuniform List<scalar> 
45600
(
2.7728577e-07
-2.7777086e-07
-1.6347163e-11
4.0255423e-07
-1.2525205e-07
-8.917045e-12
1.3092142e-07
2.7164215e-07
-1.7498259e-12
-5.6307621e-07
6.9398899e-07
1.4553974e-12
-1.6377029e-06
1.0746125e-06
5.449983e-12
-3.0224234e-06
1.3847174e-06
9.3687906e-12
-4.6427831e-06
1.6203471e-06
1.2141165e-11
-6.4302924e-06
1.7874953e-06
1.3949013e-11
-8.3250772e-06
1.8947642e-06
1.5118806e-11
-1.0275308e-05
1.9502138e-06
1.6047504e-11
-1.2235392e-05
1.9600674e-06
1.6711273e-11
-1.4163754e-05
1.9283454e-06
1.6944194e-11
-1.6020793e-05
1.8570225e-06
1.6825659e-11
-1.7767309e-05
1.7464983e-06
1.6397832e-11
-1.9363565e-05
1.596237e-06
1.5664943e-11
-2.0769055e-05
1.4054759e-06
1.4636926e-11
-2.194301e-05
1.1739423e-06
1.3281556e-11
-2.284555e-05
9.0252774e-07
1.1587178e-11
-2.3439432e-05
5.9387111e-07
9.5850077e-12
-2.3692258e-05
2.5281666e-07
7.2982373e-12
-2.3578964e-05
-1.1330002e-07
4.8088937e-12
-2.3084389e-05
-4.9457717e-07
2.2065334e-12
-2.2205759e-05
-8.7862863e-07
-4.5470976e-13
-2.0954751e-05
-1.2510049e-06
-3.1162041e-12
-1.9358925e-05
-1.5958216e-06
-5.6643931e-12
-1.7462301e-05
-1.8966181e-06
-7.9510935e-12
-1.5324882e-05
-2.1374118e-06
-9.8335883e-12
-1.302101e-05
-2.3038649e-06
-1.1186697e-11
-1.0636541e-05
-2.3844595e-06
-1.1905389e-11
-8.2649612e-06
-2.3715693e-06
-1.1907846e-11
-6.0026307e-06
-2.2623195e-06
-1.114624e-11
-3.9434655e-06
-2.0591553e-06
-9.6279104e-12
-2.1733409e-06
-1.7701169e-06
-7.388936e-12
-7.6435145e-07
-1.408984e-06
-4.4620395e-12
2.3152235e-07
-9.9587109e-07
-1.1068299e-12
7.9028365e-07
-5.5876175e-07
1.8874e-12
9.2447949e-07
-1.3419952e-07
5.0852845e-12
7.0284303e-07
2.216294e-07
8.8686545e-12
2.8964036e-07
4.1319148e-07
1.29114e-11
2.8963517e-07
6.2348618e-12
1.3329028e-07
-4.1104717e-07
-6.326922e-12
-3.0140309e-07
3.094539e-07
-5.6551463e-12
-1.6130621e-06
1.5832942e-06
-7.4637413e-12
-3.8671514e-06
2.9480795e-06
-9.4947924e-12
-6.9914669e-06
4.1989331e-06
-1.0971801e-11
-1.0852854e-05
5.2461269e-06
-1.221397e-11
-1.529512e-05
6.062623e-06
-1.3657098e-11
-2.0161242e-05
6.6536291e-06
-1.4725817e-11
-2.5303553e-05
7.0370879e-06
-1.5265898e-11
-3.0586473e-05
7.2331495e-06
-1.5276374e-11
-3.5885352e-05
7.258963e-06
-1.4840256e-11
-4.1083582e-05
7.1265888e-06
-1.4112303e-11
-4.6069413e-05
6.8428637e-06
-1.3037011e-11
-5.0733386e-05
6.4104828e-06
-1.158956e-11
-5.4966937e-05
5.8297989e-06
-9.8096674e-12
-5.8662425e-05
5.1009746e-06
-7.6822476e-12
-6.1714688e-05
4.2262113e-06
-5.2189067e-12
-6.4024004e-05
3.2118469e-06
-2.4546965e-12
-6.5500289e-05
2.0701562e-06
6.0952381e-13
-6.6068169e-05
8.2069478e-07
3.9184224e-12
-6.5672793e-05
-5.0868055e-07
7.4113138e-12
-6.4285046e-05
-1.8823306e-06
1.1039141e-11
-6.1907306e-05
-3.2563797e-06
1.4616119e-11
-5.8577373e-05
-4.5809545e-06
1.7983502e-11
-5.437124e-05
-5.8019762e-06
2.1007175e-11
-4.9403806e-05
-6.8640781e-06
2.3570396e-11
-4.3827216e-05
-7.7140296e-06
2.555017e-11
-3.7826619e-05
-8.3044903e-06
2.6839166e-11
-3.1613308e-05
-8.5977995e-06
2.7361703e-11
-2.5415428e-05
-8.5694764e-06
2.7079668e-11
-1.9466647e-05
-8.211125e-06
2.6014113e-11
-1.3993287e-05
-7.5325362e-06
2.4217647e-11
-9.2004424e-06
-6.5629808e-06
2.174908e-11
-5.2574147e-06
-5.352028e-06
1.8762213e-11
-2.282574e-06
-3.9707241e-06
1.5507598e-11
-3.2691282e-07
-2.5144311e-06
1.2071027e-11
6.4882796e-07
-1.1099456e-06
8.2332865e-12
7.9848038e-07
7.1971691e-08
6.5915349e-12
4.1593076e-07
7.9573398e-07
7.7683983e-12
7.0556546e-07
8.3078206e-13
-2.7291267e-07
-1.3811809e-07
-7.5323005e-12
-1.6236718e-06
1.6602014e-06
-2.3912465e-12
-4.2787303e-06
4.2383469e-06
-4.4252942e-12
-8.2528387e-06
6.9221931e-06
-3.176326e-12
-1.343725e-05
9.3833432e-06
-1.2276525e-12
-1.9652577e-05
1.1461461e-05
-1.1078803e-13
-2.6687729e-05
1.3097769e-05
3.9772343e-13
-3.4324594e-05
1.4290488e-05
8.9590235e-13
-4.2351258e-05
1.5063747e-05
1.4012975e-12
-5.0567115e-05
1.5449001e-05
1.8763375e-12
-5.8783084e-05
1.5474925e-05
2.3780051e-12
-6.6819359e-05
1.5162858e-05
2.854207e-12
-7.4502489e-05
1.4525988e-05
3.3008745e-12
-8.1663012e-05
1.3571e-05
3.7205553e-12
-8.8134451e-05
1.2301231e-05
4.0815327e-12
-9.3754063e-05
1.0720581e-05
4.4249506e-12
-9.8365494e-05
8.837637e-06
4.777361e-12
-0.00010182321
6.6695601e-06
5.1203715e-12
-0.00010399845
4.2453877e-06
5.4564908e-12
-0.00010478627
1.6085052e-06
5.7562987e-12
-0.00010411297
-1.1819876e-06
6.0229642e-12
-0.00010194378
-4.0515278e-06
6.2673636e-12
-9.8289483e-05
-6.9106787e-06
6.4691396e-12
-9.3211789e-05
-9.6586553e-06
6.6023923e-12
-8.682652e-05
-1.2187253e-05
6.6485386e-12
-7.9304157e-05
-1.4386449e-05
6.6181142e-12
-7.08672e-05
-1.6150995e-05
6.5314345e-12
-6.178407e-05
-1.7387628e-05
6.4212125e-12
-5.2359482e-05
-1.8022393e-05
6.323688e-12
-4.2921479e-05
-1.8007483e-05
6.2501539e-12
-3.3805552e-05
-1.7327056e-05
6.2152982e-12
-2.5336475e-05
-1.6001618e-05
6.2507589e-12
-1.7808565e-05
-1.4090898e-05
6.3460822e-12
-1.1465021e-05
-1.1695578e-05
6.4867461e-12
-6.4768219e-06
-8.9589275e-06
6.7132202e-12
-2.9210321e-06
-6.0702249e-06
6.9410242e-12
-7.5857072e-07
-3.2724125e-06
6.9005785e-12
1.8914527e-07
-8.7575191e-07
7.3996309e-12
2.6334856e-07
7.2152109e-07
9.0954468e-12
9.6890944e-07
4.4159926e-12
-7.4378203e-07
6.0566638e-07
-9.8830551e-12
-3.170539e-06
4.0869432e-06
2.1763514e-12
-7.324457e-06
8.3922674e-06
-2.9315071e-12
-1.3123366e-05
1.272111e-05
-1.988654e-12
-2.0393069e-05
1.665304e-05
5.5366719e-13
-2.8902553e-05
1.9970947e-05
1.8104389e-12
-3.8393126e-05
2.2588339e-05
2.5740928e-12
-4.8598894e-05
2.4496248e-05
3.3353674e-12
-5.9258775e-05
2.5723618e-05
3.9824328e-12
-7.0121742e-05
2.6311961e-05
4.5185285e-12
-8.0947593e-05
2.6300771e-05
5.0378772e-12
-9.1505316e-05
2.5720575e-05
5.5018144e-12
-0.00010157077
2.4591438e-05
5.8491822e-12
-0.00011092499
2.2925213e-05
6.0747294e-12
-0.0001193539
2.0730136e-05
6.1737365e-12
-0.00012664998
1.8016652e-05
6.2280313e-12
-0.00013261593
1.4803578e-05
6.2711254e-12
-0.00013707027
1.1123902e-05
6.2567921e-12
-0.00013985457
7.0296733e-06
6.1642367e-12
-0.00014084163
2.5955705e-06
5.9829586e-12
-0.00013994427
-2.0793588e-06
5.7500301e-12
-0.000137124
-6.8717983e-06
5.4704471e-12
-0.00013239858
-1.1636106e-05
5.1397557e-12
-0.000125848
-1.6209237e-05
4.7513539e-12
-0.00011761809
-2.0417165e-05
4.3088834e-12
-0.000107921
-2.408355e-05
3.8535063e-12
-9.7032043e-05
-2.7039955e-05
3.4376776e-12
-8.5282597e-05
-2.9137078e-05
3.1179468e-12
-7.3048762e-05
-3.025623e-05
2.9435669e-12
-6.0736017e-05
-3.032023e-05
2.9264624e-12
-4.8760229e-05
-2.9302847e-05
3.0721375e-12
-3.752573e-05
-2.7236121e-05
3.4192653e-12
-2.7401376e-05
-2.4215255e-05
3.9665508e-12
-1.8695632e-05
-2.0401326e-05
4.647645e-12
-1.1631736e-05
-1.6022827e-05
5.4108718e-12
-6.3238718e-06
-1.1378093e-05
6.2272129e-12
-2.7551998e-06
-6.8410916e-06
7.0893826e-12
-7.6054177e-07
-2.8704184e-06
7.8298427e-12
-1.1141017e-08
-2.7889573e-08
8.2182862e-12
9.5776062e-07
7.3501404e-12
-1.2241585e-06
1.8298322e-06
-1.2594202e-11
-4.7728374e-06
7.6356203e-06
7.8015902e-12
-1.0487495e-05
1.4106937e-05
-2.0780031e-12
-1.8154862e-05
2.038849e-05
-2.9427238e-12
-2.7513315e-05
2.601149e-05
-7.1795404e-13
-3.8269841e-05
3.072748e-05
-1.8362654e-15
-5.0117249e-05
3.4435746e-05
3.6091683e-13
-6.2747268e-05
3.7126265e-05
8.3554962e-13
-7.5858593e-05
3.8834939e-05
1.2460567e-12
-8.9160276e-05
3.9613641e-05
1.6629772e-12
-0.00010237186
3.9512351e-05
2.1624329e-12
-0.00011522176
3.8570475e-05
2.661271e-12
-0.00012744536
3.6815041e-05
3.0712324e-12
-0.00013878391
3.4263751e-05
3.4258046e-12
-0.00014898493
3.0931154e-05
3.7444777e-12
-0.00015780473
2.6836446e-05
4.1026462e-12
-0.00016501287
2.2011714e-05
4.5035015e-12
-0.00017039863
1.6509656e-05
4.8834755e-12
-0.00017377901
1.0410037e-05
5.2362961e-12
-0.00017500777
3.824325e-06
5.5617899e-12
-0.000173985
-3.1021322e-06
5.86596e-12
-0.00017066644
-1.0190375e-05
6.1450599e-12
-0.00016507176
-1.7230793e-05
6.3528344e-12
-0.00015729128
-2.3989728e-05
6.4726378e-12
-0.00014749007
-3.0218385e-05
6.5084444e-12
-0.00013590892
-3.566471e-05
6.4793134e-12
-0.00012286139
-4.0087487e-05
6.4107068e-12
-0.00010872653
-4.3271949e-05
6.3415069e-12
-9.3936795e-05
-4.5045968e-05
6.3100568e-12
-7.8961381e-05
-4.5295647e-05
6.3134508e-12
-6.4285099e-05
-4.3979132e-05
6.3339283e-12
-5.0383664e-05
-4.1137561e-05
6.4097926e-12
-3.769646e-05
-3.6902465e-05
6.5701817e-12
-2.6598245e-05
-3.1499547e-05
6.7534481e-12
-1.7371465e-05
-2.5249615e-05
6.9002374e-12
-1.0180968e-05
-1.8568598e-05
7.1624953e-12
-5.0530217e-06
-1.1969048e-05
7.8850948e-12
-1.8609932e-06
-6.0624562e-06
7.6335042e-12
-3.2296073e-07
-1.5659285e-06
4.5857064e-12
6.347894e-07
9.5583744e-12
-1.6874561e-06
3.5172998e-06
-1.4882832e-11
-6.3496287e-06
1.2297782e-05
1.3207387e-11
-1.3624503e-05
2.1381813e-05
-1.3638532e-12
-2.3154197e-05
2.9918185e-05
-3.4293104e-12
-3.4576139e-05
3.743342e-05
-7.7200351e-13
-4.7526544e-05
4.3677887e-05
-5.896326e-14
-6.1646552e-05
4.8555752e-05
1.6930625e-13
-7.6587227e-05
5.2066933e-05
5.3444139e-13
-9.2012274e-05
5.4259977e-05
8.699926e-13
-0.00010759826
5.5199621e-05
1.2590719e-12
-0.00012303306
5.494715e-05
1.747287e-12
-0.00013801355
5.3550963e-05
2.2309812e-12
-0.00015224359
5.1045075e-05
2.6248394e-12
-0.00016543317
4.7453334e-05
2.9992305e-12
-0.00017729937
4.2797342e-05
3.3604868e-12
-0.00018756923
3.7106311e-05
3.7682102e-12
-0.00019598491
3.0427388e-05
4.2222294e-12
-0.00020231053
2.2835272e-05
4.6625718e-12
-0.00020634071
1.4440215e-05
5.0928586e-12
-0.0002079101
5.3937135e-06
5.5063007e-12
-0.00020690345
-4.1087841e-06
5.875989e-12
-0.00020326552
-1.3828305e-05
6.2162335e-12
-0.00019701027
-2.348605e-05
6.4868566e-12
-0.0001882284
-3.2771604e-05
6.6750648e-12
-0.00017709263
-4.1354152e-05
6.7790256e-12
-0.00016385982
-4.8897527e-05
6.7985815e-12
-0.00014886905
-5.5078261e-05
6.7504295e-12
-0.00013253511
-5.9605895e-05
6.6879912e-12
-0.0001153367
-6.2244387e-05
6.674881e-12
-9.7799186e-05
-6.2833164e-05
6.7089045e-12
-8.0472144e-05
-6.1306181e-05
6.7376381e-12
-6.3902312e-05
-5.7707402e-05
6.7852861e-12
-4.8603372e-05
-5.2201413e-05
6.9096374e-12
-3.5024345e-05
-4.5078582e-05
7.0422162e-12
-2.3518886e-05
-3.6755081e-05
7.0741496e-12
-1.4318053e-05
-2.776944e-05
7.2983366e-12
-7.5092733e-06
-1.8777839e-05
8.3989433e-12
-3.0246429e-06
-1.0547096e-05
7.6800204e-12
-6.4220861e-07
-3.9483664e-06
2.0914263e-12
-7.4325708e-09
1.2025285e-11
-2.125321e-06
5.6426422e-06
-1.7213623e-11
-7.8628629e-06
1.8035307e-05
1.7918534e-11
-1.6657782e-05
3.0176733e-05
-9.0523681e-13
-2.8005953e-05
4.1266357e-05
-3.7624839e-12
-4.143831e-05
5.086577e-05
-4.8499083e-13
-5.6515302e-05
5.8754885e-05
2.8177309e-13
-7.2823995e-05
6.4864445e-05
3.9480514e-13
-8.9975484e-05
6.9218416e-05
7.056344e-13
-0.00010760195
7.1886432e-05
1.0263006e-12
-0.000125353
7.2950672e-05
1.3953442e-12
-0.00014289173
7.2485879e-05
1.8501796e-12
-0.00015989102
7.055025e-05
2.3064655e-12
-0.0001760309
6.7184951e-05
2.6765244e-12
-0.00019099751
6.2419944e-05
3.0423303e-12
-0.00020448407
5.6283895e-05
3.3889024e-12
-0.00021619394
4.8816176e-05
3.77639e-12
-0.00022584584
4.0079287e-05
4.2211427e-12
-0.00023318093
3.0170358e-05
4.6575243e-12
-0.00023797143
1.9230709e-05
5.0845139e-12
-0.00024003042
7.4526955e-06
5.4976622e-12
-0.00023922232
-4.9168834e-06
5.8383094e-12
-0.0002354735
-1.7577141e-05
6.1339087e-12
-0.00022878245
-3.0177098e-05
6.3716044e-12
-0.00021922887
-4.2325197e-05
6.5514649e-12
-0.00020698059
-5.3602438e-05
6.6592828e-12
-0.00019229777
-6.3580343e-05
6.6744842e-12
-0.00017553309
-7.1842943e-05
6.5990249e-12
-0.00015712697
-7.801202e-05
6.4895014e-12
-0.00013759705
-8.1774321e-05
6.4420992e-12
-0.00011752124
-8.2908974e-05
6.4826192e-12
-9.7514479e-05
-8.1312956e-05
6.5324136e-12
-7.8199562e-05
-7.7022329e-05
6.5860277e-12
-6.0173798e-05
-7.0227186e-05
6.7313738e-12
-4.3973502e-05
-6.1278886e-05
6.9081926e-12
-3.0039323e-05
-5.0689269e-05
6.9445538e-12
-1.8685691e-05
-3.9123082e-05
7.2435522e-12
-1.0077851e-05
-2.7385691e-05
8.8278403e-12
-4.2200243e-06
-1.640493e-05
7.6987111e-12
-9.5797346e-07
-7.2104176e-06
-6.5322745e-13
-9.6542025e-07
1.4148949e-11
-2.5356466e-06
8.1783092e-06
-1.9873793e-11
-9.2945994e-06
2.4794235e-05
2.2028336e-11
-1.9543892e-05
4.0426028e-05
-5.7989183e-13
-3.2638505e-05
5.4360974e-05
-4.1150984e-12
-4.8003448e-05
6.6230708e-05
-3.319469e-13
-6.5122458e-05
7.5873903e-05
3.8474138e-13
-8.3528127e-05
8.3270115e-05
3.5095925e-13
-0.00010279274
8.8483023e-05
6.1235705e-13
-0.0001225199
9.1613593e-05
9.180907e-13
-0.00014233686
9.2767625e-05
1.2522822e-12
-0.00016188764
9.2036664e-05
1.6607502e-12
-0.00018082758
8.9490194e-05
2.0893028e-12
-0.00019881952
8.5176897e-05
2.4434366e-12
-0.00021553212
7.9132537e-05
2.8182934e-12
-0.00023064034
7.1392115e-05
3.1819937e-12
-0.0002438283
6.2004124e-05
3.5847275e-12
-0.00025479411
5.10451e-05
4.052045e-12
-0.00026325682
3.8633055e-05
4.5101304e-12
-0.00026896478
2.4938671e-05
4.9563395e-12
-0.00027170559
1.0193492e-05
5.4140831e-12
-0.00027131683
-5.305644e-06
5.8023652e-12
-0.00026769747
-2.1196508e-05
6.1139458e-12
-0.00026081949
-3.7055087e-05
6.3617371e-12
-0.00025073879
-5.240591e-05
6.5674161e-12
-0.00023760476
-6.6736478e-05
6.715866e-12
-0.0002216674
-7.9517703e-05
6.7765449e-12
-0.00020328071
-9.0229645e-05
6.7385271e-12
-0.00018290087
-9.8391867e-05
6.6355594e-12
-0.00016107811
-0.00010359709
6.5663329e-12
-0.00013844105
-0.00010554605
6.5973133e-12
-0.00011567313
-0.00010408089
6.6500772e-12
-9.3481609e-05
-9.9213858e-05
6.6771158e-12
-7.2560557e-05
-9.1148247e-05
6.7817894e-12
-5.3550448e-05
-8.0289003e-05
6.9323526e-12
-3.6997961e-05
-6.7241762e-05
6.9148264e-12
-2.3320083e-05
-5.2800968e-05
7.2387764e-12
-1.2776748e-05
-3.7929036e-05
9.2621587e-12
-5.4560834e-06
-2.3725602e-05
7.6348283e-12
-1.275607e-06
-1.1390891e-05
-3.6034896e-12
-2.2410442e-06
1.6559086e-11
-2.9174739e-06
1.1095805e-05
-2.2499459e-11
-1.0634051e-05
3.2510784e-05
2.5845627e-11
-2.2254189e-05
5.2046167e-05
-2.7060752e-13
-3.7001225e-05
6.9108016e-05
-4.4759599e-12
-5.4199085e-05
8.3428564e-05
-2.6061911e-13
-7.3257267e-05
9.4932093e-05
3.9992188e-13
-9.3655682e-05
0.00010366853
2.4929105e-13
-0.00011493
0.00010975734
4.7096691e-13
-0.00013665843
0.00011334201
7.4813175e-13
-0.00015845
0.0001145592
1.0281715e-12
-0.00017993483
0.00011352149
1.3777519e-12
-0.00020075638
0.00011031174
1.7775671e-12
-0.00022056617
0.00010498669
2.1188947e-12
-0.00023902099
9.7587348e-05
2.5050837e-12
-0.00025578248
8.8153606e-05
2.8913984e-12
-0.00027051924
7.6740879e-05
3.3119546e-12
-0.00028291099
6.3436844e-05
3.8027453e-12
-0.00029265481
4.8376863e-05
4.2886311e-12
-0.00029947313
3.1756984e-05
4.750867e-12
-0.00030312339
1.3843751e-05
5.2371417e-12
-0.00030340919
-5.0198525e-06
5.6735993e-12
-0.00030019232
-2.4413396e-05
6.0373098e-12
-0.00029340623
-4.3841181e-05
6.3276575e-12
-0.00028306933
-6.2742822e-05
6.5807492e-12
-0.00026929781
-8.0508002e-05
6.7829557e-12
-0.00025231678
-9.6498746e-05
6.8984103e-12
-0.00023246794
-0.00011007849
6.9210486e-12
-0.0002102122
-0.00012064761
6.8653641e-12
-0.0001861252
-0.0001276841
6.7979461e-12
-0.00016088407
-0.00013078718
6.8138903e-12
-0.00013524455
-0.00012972041
6.8616362e-12
-0.00011000825
-0.00012445017
6.8565137e-12
-8.5981502e-05
-0.000115175
6.8958352e-12
-6.3928845e-05
-0.00010234167
6.9773709e-12
-4.4525209e-05
-8.6645404e-05
6.8699903e-12
-2.8312117e-05
-6.9014069e-05
7.2047478e-12
-1.5663045e-05
-5.0578119e-05
9.6921957e-12
-6.7628085e-06
-3.2625847e-05
7.5605984e-12
-1.6043114e-06
-1.6549381e-05
-6.6926128e-12
-3.8453746e-06
1.9006634e-11
-3.269349e-06
1.4365177e-05
-2.4953345e-11
-1.1871761e-05
4.1113163e-05
2.9321861e-11
-2.4764781e-05
6.4939188e-05
-6.3683853e-14
-4.1051589e-05
8.5394829e-05
-4.9056776e-12
-5.9962688e-05
0.00010233966
-2.8427202e-13
-8.0838376e-05
0.00011580779
3.5540899e-13
-0.00010310955
0.0001259397
1.2289874e-13
-0.00012627858
0.00013292637
3.0153358e-13
-0.00014990183
0.00013696526
5.4126254e-13
-0.00017357434
0.00013823171
7.6926828e-13
-0.00019691703
0.00013686419
1.0667048e-12
-0.00021956675
0.00013296146
1.4461786e-12
-0.0002411691
0.00012658904
1.782191e-12
-0.00026137417
0.00011779241
2.1796055e-12
-0.00027983486
0.00010661429
2.5862959e-12
-0.00029620777
9.3113784e-05
3.0162783e-12
-0.00031015626
7.7385336e-05
3.5240589e-12
-0.00032135568
5.9576275e-05
4.0545623e-12
-0.00032950051
3.9901814e-05
4.5457061e-12
-0.00033431362
1.8656844e-05
5.0336826e-12
-0.00033555753
-3.7759465e-06
5.4722346e-12
-0.00033304702
-2.6923911e-05
5.8977591e-12
-0.00032666488
-5.0223327e-05
6.2457146e-12
-0.00031637763
-7.3030088e-05
6.5618157e-12
-0.00030225239
-9.4633248e-05
6.8309653e-12
-0.00028447292
-0.00011427822
7.0021624e-12
-0.00026335291
-0.00013119851
7.0811167e-12
-0.00023934438
-0.00014465614
7.0829251e-12
-0.00021303859
-0.0001539899
7.030669e-12
-0.00018515685
-0.00015866893
7.0257778e-12
-0.00015652947
-0.0001583478
7.0621161e-12
-0.00012806197
-0.00015291768
7.0352789e-12
-0.00010068958
-0.0001425474
7.0172239e-12
-7.532311e-05
-0.00012770814
7.014217e-12
-5.2791326e-05
-0.0001091772
6.7898495e-12
-3.3786089e-05
-8.8019314e-05
7.1299591e-12
-1.8817096e-05
-6.5547123e-05
1.0135166e-11
-8.1822472e-06
-4.3260704e-05
7.5068733e-12
-1.9574517e-06
-2.2774165e-05
-9.9704041e-12
-5.8028479e-06
2.1615064e-11
-3.5889235e-06
1.7954125e-05
-2.7279067e-11
-1.2997352e-05
5.0521556e-05
3.2321621e-11
-2.7051958e-05
7.8993795e-05
-1.4717717e-14
-4.4748661e-05
0.00010309154
-5.4001033e-12
-6.5234051e-05
0.00012282504
-3.8962672e-13
-8.7786026e-05
0.00013835977
2.3713747e-13
-0.00011179152
0.00014994519
-7.9347403e-14
-0.00013672378
0.00015785863
4.2505157e-14
-0.00016212136
0.00016236284
2.5063076e-13
-0.00018756951
0.00016367986
4.5177839e-13
-0.00021268463
0.0001619793
7.1926806e-13
-0.00023710188
0.00015737872
1.0879285e-12
-0.00026046611
0.00014995326
1.4217648e-12
-0.00028242571
0.00013975201
1.8320337e-12
-0.00030262942
0.000126818
2.2643937e-12
-0.00032072556
0.00011120992
2.7008973e-12
-0.00033636362
9.3023392e-05
3.2047999e-12
-0.00034919805
7.2410696e-05
3.777752e-12
-0.00035889425
4.9598015e-05
4.3151513e-12
-0.00036513697
2.4899551e-05
4.8127557e-12
-0.00036764178
-1.2711447e-06
5.2267548e-12
-0.00036616733
-2.8398363e-05
5.724887e-12
-0.00036053418
-5.5856487e-05
6.1271723e-12
-0.00035064245
-8.2921825e-05
6.5098972e-12
-0.00033649348
-0.00010878222
6.8593341e-12
-0.00031821142
-0.00013256029
7.0978948e-12
-0.00029606336
-0.00015334657
7.2333369e-12
-0.00027047519
-0.00017024432
7.2975375e-12
-0.00024203978
-0.00018242532
7.2680079e-12
-0.00021151402
-0.0001891947
7.228259e-12
-0.00017980151
-0.00019006031
7.2293176e-12
-0.000147919
-0.0001848002
7.1807149e-12
-0.00011694674
-0.00017351968
7.1283719e-12
-8.7965681e-05
-0.0001566892
7.051601e-12
-6.1987456e-05
-0.00013515543
6.6932935e-12
-3.988494e-05
-0.00011012184
7.0352348e-12
-2.2332362e-05
-8.3099712e-05
1.0620614e-11
-9.7630826e-06
-5.5829993e-05
7.472912e-12
-2.350016e-06
-3.0187217e-05
-1.3526159e-11
-8.1528885e-06
2.4577637e-11
-3.8730056e-06
2.1827158e-05
-2.9448654e-11
-1.3998966e-05
6.064748e-05
3.4899859e-11
-2.9090574e-05
9.4085403e-05
-3.5723398e-14
-4.805045e-05
0.00012205142
-5.896939e-12
-6.9951957e-05
0.00014472654
-5.4236137e-13
-9.4018489e-05
0.0001624263
5.240213e-14
-0.00011959892
0.00017552563
-3.6055654e-13
-0.00014614215
0.00018440186
-2.9914774e-13
-0.00017317317
0.00018939385
-1.1635236e-13
-0.00020027172
0.0001907784
6.9946471e-14
-0.00022705415
0.00018876173
3.1729008e-13
-0.0002531588
0.00018348336
6.7785381e-13
-0.00027823476
0.00017502922
1.0079764e-12
-0.00030193385
0.0001634511
1.426434e-12
-0.00032390545
0.0001487896
1.8908751e-12
-0.0003437939
0.00013109836
2.3480024e-12
-0.00036123818
0.00011046767
2.8440118e-12
-0.00037587395
8.7046463e-05
3.4256026e-12
-0.00038733799
6.1062048e-05
4.0107407e-12
-0.00039527542
3.2836973e-05
4.5824222e-12
-0.00039934973
2.8031603e-06
5.1576398e-12
-0.000399258
-2.8490106e-05
5.5680923e-12
-0.00039474723
-6.0367255e-05
5.9805929e-12
-0.00038563765
-9.2031409e-05
6.4203724e-12
-0.00037184777
-0.0001225721
6.84897e-12
-0.00035342229
-0.00015098578
7.1597764e-12
-0.00033056003
-0.00017620884
7.35028e-12
-0.00030363893
-0.00019716543
7.4824644e-12
-0.00027323383
-0.00021283043
7.4956723e-12
-0.00024012239
-0.00022230615
7.4245706e-12
-0.00020527432
-0.00022490839
7.3627035e-12
-0.00016982034
-0.00022025419
7.2727686e-12
-0.00013499951
-0.00020834051
7.20167e-12
-0.00010208727
-0.00018960145
7.0795708e-12
-7.2310487e-05
-0.00016493221
6.5858955e-12
-4.6759477e-05
-0.00013567285
6.9357422e-12
-2.630864e-05
-0.00010355056
1.1190968e-11
-1.1557256e-05
-7.0581385e-05
7.4682799e-12
-2.7976645e-06
-3.894679e-05
-1.7490821e-11
-1.0950581e-05
2.8028716e-11
-4.1178082e-06
2.5944995e-05
-3.1379549e-11
-1.4863594e-05
7.1393229e-05
3.7110368e-11
-3.0854194e-05
0.00011007601
-7.1779885e-14
-5.0913767e-05
0.000142111
-6.3662869e-12
-7.405384e-05
0.00016786662
-7.2325689e-13
-9.9451755e-05
0.00018782422
-1.7106018e-13
-0.00012642462
0.0002024985
-6.646106e-13
-0.00015440194
0.00021237917
-6.3652525e-13
-0.00018289944
0.00021789135
-4.6413043e-13
-0.00021149549
0.00021937445
-2.9242793e-13
-0.00023981079
0.00021707703
-7.1072884e-14
-0.0002674915
0.00021116408
2.7514779e-13
-0.00029419601
0.00020173373
5.9298222e-13
-0.00031958479
0.00018883987
9.94233e-13
-0.00034331317
0.00017251799
1.463118e-12
-0.00036502663
0.00015281182
1.9317887e-12
-0.00038435831
0.00012979934
2.4109442e-12
-0.00040092891
0.00010361706
2.9750773e-12
-0.0004143492
7.4482334e-05
3.5881885e-12
-0.00042422551
4.2713271e-05
4.2121628e-12
-0.00043016866
8.7462999e-06
4.8404285e-12
-0.0004318087
-2.6850066e-05
5.3053377e-12
-0.00042881216
-6.3363804e-05
5.7721061e-12
-0.0004209073
-9.9936271e-05
6.2751966e-12
-0.00040791345
-0.00013556596
6.7909962e-12
-0.00038977505
-0.00016912419
7.191059e-12
-0.00036659812
-0.00019938577
7.4405694e-12
-0.00033868591
-0.00022507764
7.6374928e-12
-0.00030656875
-0.0002449476
7.7127661e-12
-0.00027102214
-0.00025785277
7.6332865e-12
-0.00023306636
-0.00026286417
7.4994581e-12
-0.00019394155
-0.00025937901
7.3380348e-12
-0.00015505454
-0.00024722753
7.2359617e-12
-0.00011789826
-0.00022675773
7.0897015e-12
-8.3949895e-05
-0.00019888058
6.4692655e-12
-5.4559894e-05
-0.00016506286
6.8463108e-12
-3.0847327e-05
-0.00012726314
1.1897996e-11
-1.3617972e-05
-8.7810749e-05
7.5218611e-12
-3.3163664e-06
-4.9248371e-05
-2.2025521e-11
-1.4266981e-05
3.205483e-11
-4.319309e-06
3.0264336e-05
-3.2986838e-11
-1.5577931e-05
8.2651812e-05
3.8910559e-11
-3.2316367e-05
0.00012681445
-1.6165596e-13
-5.3295823e-05
0.00016309046
-6.8353595e-12
-7.7477682e-05
0.00019204848
-9.5736104e-13
-0.00010400179
0.00021434834
-4.502395e-13
-0.00013215977
0.00023065647
-1.0040924e-12
-0.00016136649
0.0002415859
-9.8605055e-13
-0.00019113254
0.00024765739
-8.1151479e-13
-0.00022103883
0.00024928074
-6.5406976e-13
-0.00025071447
0.00024675267
-4.6483895e-13
-0.00027981798
0.00024026759
-1.3610504e-13
-0.00030802201
0.00022993776
1.7398495e-13
-0.00033500119
0.00021581905
5.4830408e-13
-0.00036042266
0.00019793947
9.9788787e-13
-0.00038393916
0.00017632831
1.4621948e-12
-0.00040518414
0.00015104432
1.9201054e-12
-0.00042376932
0.00012220224
2.4487087e-12
-0.00043928476
8.9997764e-05
3.0621075e-12
-0.00045130216
5.4730667e-05
3.7133939e-12
-0.0004593822
1.6826337e-05
4.3583195e-12
-0.00046308732
-2.3144954e-05
4.924275e-12
-0.00046199966
-6.4451467e-05
5.4719943e-12
-0.00045574687
-0.00010618907
6.0465913e-12
-0.00044403475
-0.00014727808
6.6611633e-12
-0.00042668697
-0.00018647197
7.1819086e-12
-0.00040369026
-0.00022238249
7.5148302e-12
-0.00037524172
-0.00025352619
7.7786334e-12
-0.00034179325
-0.00027839607
7.9257746e-12
-0.0003040856
-0.00029556043
7.8704307e-12
-0.00026316314
-0.00030378664
7.6795689e-12
-0.00022036039
-0.00030218177
7.4278537e-12
-0.00017725281
-0.00029033511
7.2563898e-12
-0.00013556981
-0.00026844074
7.0713041e-12
-9.7075123e-05
-0.00023737527
6.3278103e-12
-6.3428308e-05
-0.00019870968
6.7704488e-12
-3.6047724e-05
-0.00015464373
1.2787891e-11
-1.5998379e-05
-0.0001078601
7.6642177e-12
-3.9222345e-06
-6.1324488e-05
-2.7268069e-11
-1.8189254e-05
3.6744447e-11
-4.4736829e-06
3.4738054e-05
-3.424615e-11
-1.612959e-05
9.430768e-05
4.0243054e-11
-3.3452677e-05
0.00014413754
-3.0659025e-13
-5.5157061e-05
0.00018479485
-7.2727005e-12
-8.0165598e-05
0.00021705701
-1.2062801e-12
-0.00010758889
0.00024177163
-7.3653658e-13
-0.00013669891
0.0002597665
-1.3380028e-12
-0.00016690034
0.00027178732
-1.3279128e-12
-0.00019770222
0.00027845926
-1.1502017e-12
-0.00022869152
0.00028027004
-1.0067781e-12
-0.0002595095
0.00027757064
-8.566773e-13
-0.00028983127
0.00027058937
-5.5537679e-13
-0.0003193487
0.00025945519
-2.5083082e-13
-0.00034775619
0.00024422653
9.5217043e-14
-0.00037473915
0.00022492243
5.134902e-13
-0.00039996471
0.00020155387
9.6289909e-13
-0.0004230744
0.00017415401
1.4023258e-12
-0.00044367915
0.00014280698
1.8914485e-12
-0.00046135658
0.0001076752
2.4815183e-12
-0.00047565171
6.9025788e-05
3.1400012e-12
-0.00048608162
2.7256241e-05
3.8113356e-12
-0.00049214579
-1.7080781e-05
4.4570951e-12
-0.0004933429
-6.3254364e-05
5.0903949e-12
-0.00048919596
-0.00011033601
5.7383557e-12
-0.00047928672
-0.00015718733
6.4466894e-12
-0.00046329973
-0.00020245896
7.1056298e-12
-0.00044107551
-0.00024460672
7.553173e-12
-0.00041267006
-0.00028193165
7.896098e-12
-0.00037841575
-0.00031265039
8.1192891e-12
-0.00033897523
-0.00033500096
8.1153806e-12
-0.00029537732
-0.00034738455
7.8993599e-12
-0.00024902187
-0.00034853723
7.5719296e-12
-0.00020164152
-0.00033771546
7.3043769e-12
-0.00015521333
-0.00031486893
7.0295286e-12
-0.00011182228
-0.00028076633
6.1292348e-12
-7.3491294e-05
-0.00023704067
6.6753003e-12
-4.2003648e-05
-0.00018613139
1.3859286e-11
-1.8750542e-05
-0.00013111322
7.893741e-12
-4.6314482e-06
-7.5443549e-05
-3.3319361e-11
-2.2820747e-05
4.2246054e-11
-4.5777867e-06
3.9315876e-05
-3.518124e-11
-1.6508568e-05
0.00010623842
4.1053741e-11
-3.4243363e-05
0.00016187233
-4.9875913e-13
-5.646495e-05
0.00020701645
-7.6606858e-12
-8.2068741e-05
0.00024266081
-1.4611592e-12
-0.00011014366
0.00026984655
-1.0219074e-12
-0.00013994722
0.00028957006
-1.6643247e-12
-0.0001708776
0.0003027177
-1.6683144e-12
-0.00020244537
0.00031002704
-1.4871264e-12
-0.00023424653
0.0003120712
-1.3470851e-12
-0.00026593776
0.00030926188
-1.2292737e-12
-0.00029721472
0.00030186633
-9.5926236e-13
-0.00032779321
0.00029003368
-6.5467694e-13
-0.0003573932
0.00027382652
-3.2838812e-13
-0.00038572521
0.00025325444
5.5453097e-14
-0.00041247878
0.00022830744
4.8302386e-13
-0.00043731281
0.00019898804
9.1169712e-13
-0.00045984773
0.0001653419
1.373676e-12
-0.00047966006
0.00012748752
1.9303236e-12
-0.00049627976
8.5645491e-05
2.5724533e-12
-0.00050919172
4.0168196e-05
3.2509405e-12
-0.00051784252
-8.4299808e-06
3.9495297e-12
-0.00052165436
-5.9442528e-05
4.6614235e-12
-0.00052004787
-0.0001119425
5.3771733e-12
-0.00051247599
-0.00016475922
6.1529201e-12
-0.00049847026
-0.0002164647
6.9364059e-12
-0.00047770019
-0.0002653768
7.5144578e-12
-0.00045004434
-0.00030958751
7.9500008e-12
-0.00041566864
-0.00034702609
8.2492733e-12
-0.00037510379
-0.00037556582
8.3117369e-12
-0.00032930841
-0.00039317994
8.0989803e-12
-0.00027970113
-0.00039814451
7.7319545e-12
-0.00022814329
-0.00038927331
7.391987e-12
-0.0001768576
-0.00036615463
6.9960147e-12
-0.00012827914
-0.00032934478
5.8751158e-12
-8.4851557e-05
-0.00028046827
6.5275586e-12
-4.879976e-05
-0.0002221832
1.5067584e-11
-2.1924376e-05
-0.00015798862
8.1552009e-12
-5.4601958e-06
-9.1907689e-05
-4.0322106e-11
-2.8280994e-05
4.8704097e-11
-4.6296899e-06
4.3945601e-05
-3.5758435e-11
-1.6708909e-05
0.0001183176
4.1362797e-11
-3.4676372e-05
0.0001798398
-7.1093923e-13
-5.7198488e-05
0.00022953857
-7.9842841e-12
-8.3153247e-05
0.00026861557
-1.721362e-12
-0.00011161439
0.00029830769
-1.3159947e-12
-0.00014182918
0.00031978484
-1.9946099e-12
-0.00017319222
0.00033408074
-2.0155824e-12
-0.00020521801
0.00034205284
-1.8306453e-12
-0.00023751395
0.00034436714
-1.6798235e-12
-0.00026975499
0.00034150293
-1.5759649e-12
-0.00030166086
0.0003337722
-1.3311501e-12
-0.00033297584
0.00032134867
-1.0131761e-12
-0.00036345117
0.00030430185
-6.8378246e-13
-0.00039282958
0.00028263285
-3.225567e-13
-0.00042083173
0.0002563096
8.0177576e-14
-0.00044714424
0.00022530055
5.0194168e-13
-0.00047140929
0.00018960696
9.533547e-13
-0.00049321613
0.00014929436
1.4862291e-12
-0.000512095
0.00010452436
2.1039637e-12
-0.00052751459
5.5587789e-05
2.7667994e-12
-0.00053888436
2.9397915e-06
3.4814079e-12
-0.00054556388
-5.2763015e-05
4.2472377e-12
-0.00054688117
-0.00011062522
5.0177515e-12
-0.00054216338
-0.00016947701
5.8269546e-12
-0.0005307823
-0.00022784578
6.699267e-12
-0.00051221701
-0.0002839421
7.4045763e-12
-0.00048613418
-0.00033567035
7.9462735e-12
-0.00045248356
-0.00038067672
8.3191524e-12
-0.00041160097
-0.00041644842
8.4505569e-12
-0.00036430488
-0.00044047603
8.2493377e-12
-0.00031196584
-0.00045048355
7.8503972e-12
-0.00025652294
-0.00044471621
7.4685066e-12
-0.00020042294
-0.00042225464
6.9577577e-12
-0.0001464678
-0.00038329992
5.5614782e-12
-9.7578092e-05
-0.00032935799
6.2967544e-12
-5.6507173e-05
-0.00026325414
1.6416188e-11
-2.5566347e-05
-0.00018892946
8.4150625e-12
-6.4245715e-06
-0.00011104942
-4.8447131e-11
-3.4705624e-05
5.6205565e-11
-4.629242e-06
4.8574878e-05
-3.5935799e-11
-1.6730519e-05
0.00013041883
4.1227148e-11