/*--------------------------------*- C++ -*----------------------------------*\
  =========                 |
  \\      /  F ield         | OpenFOAM: The Open Source CFD Toolbox
   \\    /   O peration     | Website:  https://openfoam.org
    \\  /    A nd           | Version:  7
     \\/     M anipulation  |
\*---------------------------------------------------------------------------*/
FoamFile
{
    version     2.0;
    format      ascii;
    class       volVectorField;
    location    "12";
    object      U;
}
// * * * * * * * * * * * * * * * * * * * * * * * * * * * * * * * * * * * * * //

dimensions      [0 1 -1 0 0 0 0];

internalField   nonuniform List<vector> 
16000
(
(6.6507637e-05 -6.6358982e-05 -4.1390925e-08)
(0.00016304972 -5.5625246e-05 6.1193521e-06)
(0.00014135554 8.1365381e-07 1.9580494e-05)
(-5.1236784e-05 6.1941834e-05 3.6935512e-05)
(-0.00040991967 0.00011545028 5.4963723e-05)
(-0.00090776164 0.00015739259 7.1707168e-05)
(-0.0015148192 0.00018803282 8.5833416e-05)
(-0.0022020622 0.00020905407 9.6531647e-05)
(-0.0029436386 0.00022226681 0.00010334257)
(-0.003717232 0.00022916751 0.00010602095)
(-0.0045034823 0.00023081678 0.00010444043)
(-0.0052851042 0.00022784138 9.8539104e-05)
(-0.0060459951 0.00022049709 8.8293424e-05)
(-0.0067704858 0.00020876103 7.3714941e-05)
(-0.0074428254 0.00019243795 5.4863544e-05)
(-0.0080469444 0.00017127093 3.1870279e-05)
(-0.0085665098 0.00014504886 4.9651683e-06)
(-0.0089852605 0.00011370651 -2.5494344e-05)
(-0.0092875995 7.7412498e-05 -5.8999538e-05)
(-0.0094593962 3.6641082e-05 -9.4874762e-05)
(-0.0094889449 -7.7787606e-06 -0.00013227314)
(-0.0093679898 -5.4657304e-05 -0.00017018696)
(-0.0090927571 -0.00010242019 -0.00020747375)
(-0.0086648893 -0.00014918061 -0.00024289983)
(-0.0080921604 -0.0001928173 -0.00027519951)
(-0.007388895 -0.0002310929 -0.00030314756)
(-0.0065760004 -0.00026180367 -0.00032564039)
(-0.0056805469 -0.00028294673 -0.00034177984)
(-0.004734871 -0.00029288877 -0.00035095233)
(-0.0037752194 -0.0002905176 -0.00035289586)
(-0.0028400019 -0.00027535838 -0.00034774834)
(-0.0019677584 -0.0002476408 -0.00033607312)
(-0.0011949546 -0.00020831669 -0.00031886082)
(-0.00055365209 -0.00015906443 -0.00029751041)
(-6.9103603e-05 -0.00010239724 -0.000273785)
(0.00024224929 -4.1925691e-05 -0.00024973395)
(0.00037666628 1.7534631e-05 -0.00022773468)
(0.00034826237 6.6689095e-05 -0.00021021629)
(0.00020551971 8.9523625e-05 -0.00019984603)
(5.7338063e-05 5.7282721e-05 -0.00018532784)
(5.8101171e-05 -0.00016516926 -6.1823229e-06)
(4.0928857e-05 -3.8466884e-05 9.6209504e-08)
(-0.00029471693 0.00024891026 1.168896e-05)
(-0.0010093627 0.00056126406 2.5995394e-05)
(-0.0020948466 0.00084555154 4.090934e-05)
(-0.003505812 0.0010802862 5.4840917e-05)
(-0.0051815498 0.0012607855 6.6664842e-05)
(-0.007057897 0.0013900609 7.5633022e-05)
(-0.0090733089 0.0014736274 8.1264794e-05)
(-0.011171045 0.0015170083 8.3262321e-05)
(-0.013299229 0.0015246301 8.1443422e-05)
(-0.015409876 0.0014994468 7.5699386e-05)
(-0.017457567 0.0014429929 6.5973233e-05)
(-0.019398231 0.0013556934 5.2255368e-05)
(-0.021188312 0.0012373169 3.4593044e-05)
(-0.022784481 0.0010874957 1.3108446e-05)
(-0.024143953 0.00090625568 -1.1979048e-05)
(-0.025225401 0.00069451377 -4.0329657e-05)
(-0.025990419 0.00045450918 -7.1463624e-05)
(-0.026405409 0.00019013498 -0.00010474853)
(-0.026443794 -9.2857828e-05 -0.00013939605)
(-0.026088273 -0.00038678109 -0.0001744777)
(-0.025333062 -0.00068214467 -0.00020894107)
(-0.024185883 -0.00096794326 -0.00024165724)
(-0.022669348 -0.0012321358 -0.00027147401)
(-0.020821693 -0.0014622979 -0.00029728305)
(-0.018696615 -0.0016464093 -0.0003180949)
(-0.016362104 -0.0017737215 -0.0003331158)
(-0.013898215 -0.0018356317 -0.00034181942)
(-0.011393808 -0.0018264834 -0.0003440066)
(-0.0089423896 -0.0017442165 -0.00033984636)
(-0.0066372252 -0.0015908145 -0.00032989427)
(-0.004565953 -0.0013725528 -0.00031508592)
(-0.0028048677 -0.0011001532 -0.00029670708)
(-0.0014129321 -0.00078914752 -0.00027634313)
(-0.00042553943 -0.00046078503 -0.00025580254)
(0.00015200952 -0.00014353055 -0.00023699655)
(0.00035397982 0.0001209009 -0.00022193598)
(0.00027389512 0.00026977435 -0.0002127168)
(8.9790644e-05 0.00020443316 -0.00019644582)
(1.9334866e-06 -0.00014735395 -1.9910501e-05)
(-0.0002554704 0.00029793668 -1.1281793e-05)
(-0.0010479826 0.0010222854 5.7290408e-07)
(-0.002381785 0.0017935309 1.3497505e-05)
(-0.0042280941 0.0025033403 2.6469043e-05)
(-0.0065273253 0.0031013089 3.8351047e-05)
(-0.0091986859 0.0035704541 4.8317207e-05)
(-0.012154356 0.0039117032 5.5810118e-05)
(-0.015307454 0.0041336281 6.0449079e-05)
(-0.018575242 0.0042465957 6.197876e-05)
(-0.021879885 0.0042597372 6.0227338e-05)
(-0.025147852 0.0041796506 5.5078351e-05)
(-0.02830874 0.0040102264 4.6456919e-05)
(-0.03129412 0.0037531918 3.4329281e-05)
(-0.034036802 0.0034090812 1.8712868e-05)
(-0.036470764 0.0029784224 -3.0657535e-07)
(-0.038531831 0.0024629758 -2.2554555e-05)
(-0.040159111 0.0018669028 -4.774649e-05)
(-0.041297109 0.0011977652 -7.5469338e-05)
(-0.041898374 0.00046727285 -0.00010516951)
(-0.041926451 -0.00030828311 -0.00013615113)
(-0.041358966 -0.0011079329 -0.00016758168)
(-0.040190547 -0.001906458 -0.00019851708)
(-0.038435295 -0.002675142 -0.00022793745)
(-0.036128549 -0.0033830072 -0.00025479773)
(-0.033327683 -0.003998441 -0.00027809026)
(-0.030111724 -0.0044911282 -0.00029691479)
(-0.026579619 -0.0048341654 -0.00031055022)
(-0.022847082 -0.0050061992 -0.00031852162)
(-0.019042052 -0.0049934094 -0.000320655)
(-0.015298875 -0.0047911713 -0.00031711341)
(-0.011751432 -0.0044052841 -0.00030840973)
(-0.0085254984 -0.0038527557 -0.0002953938)
(-0.0057306118 -0.0031623013 -0.00027921479)
(-0.0034516619 -0.0023749556 -0.00026126228)
(-0.001740357 -0.0015454912 -0.00024308722)
(-0.00060684479 -0.00074550128 -0.00022629542)
(-1.0688102e-05 -6.893593e-05 -0.00021247478)
(0.00015394178 0.00035765944 -0.00020330881)
(7.3152277e-05 0.0003528545 -0.00018631074)
(-6.4523456e-05 5.1483692e-05 -3.8088041e-05)
(-0.00060670283 0.0010446945 -2.5552119e-05)
(-0.0019249914 0.0023766001 -1.1622288e-05)
(-0.0039347646 0.0037467586 1.6134286e-06)
(-0.0065691023 0.0050011429 1.4138122e-05)
(-0.0097491799 0.0060621 2.5195557e-05)
(-0.013375476 0.0068995553 3.424802e-05)
(-0.01734111 0.0075109627 4.0962177e-05)
(-0.021539806 0.0079068449 4.5102635e-05)
(-0.025868888 0.0081018161 4.6498586e-05)
(-0.030230165 0.0081095507 4.5020081e-05)
(-0.034529588 0.0079404379 4.0562038e-05)
(-0.038676321 0.0076010967 3.303894e-05)
(-0.042581831 0.0070951412 2.2390189e-05)
(-0.046159433 0.0064247168 8.5937091e-06)
(-0.049324532 0.0055924383 -8.3144293e-06)
(-0.051995697 0.0046034368 -2.8217834e-05)
(-0.054096537 0.0034672905 -5.0896906e-05)
(-0.055558304 0.0021996603 -7.6008734e-05)
(-0.056323039 0.00082348824 -0.00010307302)
(-0.056347021 -0.00063035114 -0.00013146683)
(-0.055604333 -0.0021230599 -0.00016042745)
(-0.05409018 -0.0036086187 -0.00018907564)
(-0.051823664 -0.0050352238 -0.00021644743)
(-0.048849768 -0.006347449 -0.00024154298)
(-0.045240228 -0.0074890565 -0.00026338788)
(-0.041093044 -0.0084063225 -0.00028110255)
(-0.036530451 -0.0090516787 -0.0002939743)
(-0.031695234 -0.0093874161 -0.00030152465)
(-0.026745367 -0.0093891658 -0.00030356432)
(-0.021847096 -0.0090488829 -0.00030022833)
(-0.017166691 -0.008377127 -0.00029198615)
(-0.012861174 -0.0074045753 -0.0002796243)
(-0.009068457 -0.0061829103 -0.00026420199)
(-0.0058972951 -0.0047855178 -0.00024698356)
(-0.0034175198 -0.0033088142 -0.00022935486)
(-0.0016507229 -0.001875221 -0.00021273878)
(-0.00056146678 -0.00063790076 -0.00019852325)
(-5.1265432e-05 0.00021102884 -0.00018793448)
(3.7712555e-05 0.00041151687 -0.0001690543)
(-0.00013048593 0.00044549154 -5.7514658e-05)
(-0.0009679274 0.0022379744 -4.0469616e-05)
(-0.0028371305 0.0043478473 -2.3650209e-05)
(-0.0055468314 0.0064388311 -9.2796012e-06)
(-0.0089801057 0.0083285273 3.5738076e-06)
(-0.01303269 0.0099209163 1.4486937e-05)
(-0.017584436 0.011176823 2.3195307e-05)
(-0.022510596 0.012091515 2.9594907e-05)
(-0.027688598 0.012677517 3.3608405e-05)
(-0.032999865 0.012953336 3.5163619e-05)
(-0.038330199 0.012936825 3.4183941e-05)
(-0.043569365 0.012641973 3.0582159e-05)
(-0.048610269 0.012078186 2.4263055e-05)
(-0.053348263 0.011251324 1.5135146e-05)
(-0.057680945 0.010165834 3.1291012e-06)
(-0.06150873 0.0088274665 -1.1778566e-05)
(-0.064736235 0.0072461542 -2.953973e-05)
(-0.067274508 0.0054387183 -5.0008187e-05)
(-0.069043958 0.0034311385 -7.2915852e-05)
(-0.069977826 0.0012601856 -9.7854605e-05)
(-0.070025967 -0.0010257479 -0.00012426653)
(-0.06915869 -0.0033667584 -0.00015144542)
(-0.067370364 -0.0056925009 -0.00017855322)
(-0.064682484 -0.0079243419 -0.00020465139)
(-0.061145896 -0.0099785185 -0.00022874841)
(-0.056841883 -0.011770227 -0.00024986136)
(-0.051881822 -0.013218467 -0.00026708736)
(-0.04640517 -0.014251375 -0.00027967873)
(-0.040575617 -0.01481171 -0.00028711414)
(-0.03457532 -0.014862077 -0.00028915705)
(-0.028597298 -0.014389507 -0.00028589315)
(-0.022836187 -0.013409036 -0.00027774046)
(-0.01747773 -0.011966112 -0.00026542937)
(-0.012687522 -0.01013788 -0.00024995298)
(-0.00859969 -0.0080337247 -0.00023249099)
(-0.0053062384 -0.0057958848 -0.00021432019)
(-0.0028469056 -0.0036011266 -0.0001967514)
(-0.0012002843 -0.001663286 -0.00018104766)
(-0.00028935481 -0.00023823824 -0.0001679324)
(-2.6547688e-06 0.00034764867 -0.00014661404)
(-0.0001922357 0.0010293427 -7.5902689e-05)
(-0.0013195216 0.0038823433 -5.4037471e-05)
(-0.0037390718 0.0069479172 -3.3908813e-05)
(-0.0071487805 0.0098808209 -1.7883394e-05)
(-0.011375794 0.012488422 -4.1562095e-06)
(-0.016285738 0.014668021 7.1376577e-06)
(-0.021735463 0.016378214 1.5982644e-05)
(-0.027582179 0.017615669 2.2493161e-05)
(-0.033688554 0.018396527 2.6746879e-05)
(-0.039922757 0.018743723 2.8770798e-05)
(-0.046157873 0.018679342 2.8542744e-05)
(-0.05227106 0.018220886 2.5992986e-05)
(-0.058142598 0.017380546 2.1013816e-05)
(-0.063655248 0.016166615 1.3477516e-05)
(-0.068694218 0.014586282 3.2600444e-06)
(-0.073147922 0.012649153 -9.7302254e-06)
(-0.076909597 0.010370964 -2.5521935e-05)
(-0.079879725 0.0077770518 -4.4049337e-05)
(-0.081969165 0.0049052385 -6.5123372e-05)
(-0.083102808 0.0018078879 -8.8408219e-05)
(-0.083223564 -0.0014470849 -0.00011340626)
(-0.082296416 -0.004776398 -0.00013945547)
(-0.080312311 -0.0080828519 -0.00016574109)
(-0.077291577 -0.011258154 -0.00019132515)
(-0.073286566 -0.014187061 -0.0002151932)
(-0.068383191 -0.016752758 -0.00023631727)
(-0.062701055 -0.018843285 -0.00025373101)
(-0.056391817 -0.02035869 -0.00026661039)
(-0.049635568 -0.021218495 -0.0002743516)
(-0.042635037 -0.021368942 -0.00027663639)
(-0.035607607 -0.020789473 -0.00027347524)
(-0.028775332 -0.019497913 -0.00026522086)
(-0.022353338 -0.017553992 -0.00025254864)
(-0.016537247 -0.015061088 -0.00023640383)
(-0.011490578 -0.012166435 -0.00021791782)
(-0.0073330982 -0.0090605244 -0.0001983124)
(-0.0041295566 -0.0059766199 -0.00017885854)
(-0.001880026 -0.0031900246 -0.00016078862)
(-0.00053601941 -0.001018376 -0.00014442703)
(-4.1287722e-05 0.00015576697 -0.00012024987)
(-0.0002492341 0.0017939472 -9.1303061e-05)
(-0.001653874 0.0059666377 -6.4470363e-05)
(-0.0046080209 0.010167249 -4.0873625e-05)
(-0.008701241 0.014062442 -2.2894102e-05)
(-0.013703153 0.01746615 -7.9289541e-06)
(-0.019446757 0.02028143 4.137448e-06)
(-0.025764277 0.022473044 1.3513153e-05)
(-0.032494557 0.024044245 2.0513118e-05)
(-0.039486394 0.025017705 2.5358252e-05)
(-0.046596581 0.025422245 2.8166752e-05)
(-0.053688037 0.025284779 2.8964831e-05)
(-0.060628255 0.024626501 2.7694593e-05)
(-0.067287988 0.023462414 2.4229627e-05)
(-0.073540464 0.021803293 1.83988e-05)
(-0.079261337 0.019659224 1.0015273e-05)
(-0.084329498 0.017043965 -1.0893192e-06)
(-0.088628744 0.01397949 -1.5028852e-05)
(-0.092050266 0.010500212 -3.1825556e-05)
(-0.094495827 0.0066564883 -5.1374997e-05)
(-0.095881498 0.0025171043 -7.3416279e-05)
(-0.096141758 -0.0018294899 -9.7510749e-05)
(-0.095233766 -0.0062753722 -0.00012303398)
(-0.093141582 -0.010694868 -0.00014918204)
(-0.089880086 -0.014947943 -0.00017499866)
(-0.085498262 -0.018885224 -0.00019942067)
(-0.080081513 -0.022354616 -0.00022134282)
(-0.073752626 -0.025209316 -0.00023969757)
(-0.066670946 -0.027316898 -0.00025354325)
(-0.059029396 -0.028568978 -0.00026215139)
(-0.051049018 -0.028890805 -0.00026508256)
(-0.042970913 -0.028250044 -0.00026223935)
(-0.035045673 -0.026663973 -0.00025388757)
(-0.027520714 -0.02420447 -0.00024064089)
(-0.020626228 -0.021000397 -0.00022340822)
(-0.014560998 -0.01723742 -0.00020330385)
(-0.0094793024 -0.013155848 -0.00018154543)
(-0.0054778666 -0.0090473415 -0.00015943383)
(-0.0025844842 -0.00525004 -0.00013825572)
(-0.00078379625 -0.0021432887 -0.00011801558)
(-7.6969319e-05 -0.00016357389 -9.0754637e-05)
(-0.00030183434 0.0027285043 -0.00010205536)
(-0.0019682522 0.0084715239 -7.0160278e-05)
(-0.0054322868 0.013983503 -4.3114951e-05)
(-0.010181062 0.018959433 -2.3052851e-05)
(-0.015927956 0.023234723 -6.6362506e-06)
(-0.02247284 0.026730299 6.4751987e-06)
(-0.029622861 0.029426022 1.669129e-05)
(-0.037198604 0.031337815 2.4507915e-05)
(-0.045035828 0.03249871 3.0273432e-05)
(-0.052981488 0.032945616 3.4184406e-05)
(-0.060890448 0.032711401 3.6304677e-05)
(-0.068623023 0.031821418 3.6578737e-05)
(-0.076043104 0.030293584 3.4852585e-05)
(-0.08301703 0.028141089 3.0902788e-05)
(-0.089413345 0.025376773 2.4470505e-05)
(-0.095103465 0.022018366 1.5301062e-05)
(-0.099963242 0.018093883 3.1856131e-06)
(-0.10387534 0.013646596 -1.1995569e-05)
(-0.10673234 0.0087391781 -3.0231345e-05)
(-0.10844042 0.0034566736 -5.1342711e-05)
(-0.10892356 -0.0020919439 -7.4954188e-05)
(-0.10812795 -0.0077738354 -0.00010047938)
(-0.10602671 -0.013434091 -0.00012712007)
(-0.10262446 -0.018899501 -0.00015388994)
(-0.097961449 -0.023984274 -0.00017965768)
(-0.092117064 -0.028497747 -0.00020321303)
(-0.085212015 -0.032253952 -0.00022335154)
(-0.077408796 -0.035082721 -0.00023897152)
(-0.068909813 -0.036841794 -0.00024917343)
(-0.059952701 -0.037429156 -0.00025334999)
(-0.050802501 -0.036794647 -0.00025125398)
(-0.041740672 -0.03494975 -0.00024303233)
(-0.033051288 -0.031974582 -0.00022922025)
(-0.025005239 -0.0280213 -0.00021069274)
(-0.017843925 -0.023313663 -0.00018857112)
(-0.011763999 -0.018143134 -0.00016411471)
(-0.0069016254 -0.01286233 -0.0001387201)
(-0.0033183219 -0.0078753799 -0.0001138096)
(-0.0010354092 -0.0036265252 -8.9154252e-05)
(-0.00011088379 -0.0006093523 -5.8656022e-05)
(-0.00035035699 0.0038217145 -0.00010670363)
(-0.0022612364 0.011373094 -6.9640247e-05)
(-0.006204583 0.018366317 -3.927642e-05)
(-0.011572535 0.024538084 -1.7115397e-05)
(-0.018025347 0.029758329 8.6407254e-07)
(-0.02533084 0.033977097 1.5209808e-05)
(-0.033271759 0.037198198 2.6515655e-05)
(-0.041651167 0.039456662 3.543969e-05)
(-0.050292827 0.040800241 4.2440985e-05)
(-0.059035337 0.041276667 4.7779818e-05)
(-0.067727389 0.040926306 5.1544749e-05)
(-0.076224317 0.039779396 5.3671189e-05)
(-0.084385504 0.037856957 5.3967017e-05)
(-0.092072748 0.035174413 5.214632e-05)
(-0.099149629 0.031746919 4.7867886e-05)
(-0.10548187 0.027595528 4.0779741e-05)
(-0.1109386 0.022753443 3.0566279e-05)
(-0.11539447 0.017271777 1.699771e-05)
(-0.11873251 0.011224374 -2.1099277e-08)
(-0.1208477 0.0047113651 -2.0405635e-05)
(-0.12165112 -0.0021387986 -4.3854605e-05)
(-0.12107462 -0.0091690782 -6.9828153e-05)
(-0.11907598 -0.016195424 -9.7536806e-05)
(-0.11564433 -0.023010668 -0.00012596063)
(-0.11080544 -0.029390644 -0.00015388747)
(-0.10462666 -0.035102777 -0.00017997881)
(-0.097220832 -0.03991709 -0.00020285895)
(-0.08874854 -0.043619378 -0.00022122139)
(-0.079417897 -0.046026025 -0.00023394282)
(-0.06948116 -0.046999556 -0.00024019165)
(-0.059227577 -0.046463744 -0.00023951648)
(-0.048972205 -0.044416789 -0.00023189991)
(-0.039040943 -0.040941098 -0.0002177688)
(-0.029752621 -0.036208382 -0.00019795554)
(-0.021399906 -0.030479325 -0.00017360404)
(-0.014230943 -0.024097986 -0.0001460552)
(-0.008429774 -0.01748167 -0.00011686373)
(-0.0040981461 -0.01110597 -8.7666639e-05)
(-0.0012978369 -0.005486731 -5.8070171e-05)
(-0.00014446759 -0.001183192 -2.4063497e-05)
(-0.0003948754 0.005061895 -0.0001039359)
(-0.002531348 0.014644144 -6.1564496e-05)
(-0.0069187819 0.0232792 -2.8082143e-05)
(-0.012862633 0.030756871 -3.8762379e-06)
(-0.019974293 0.036993015 1.5713107e-05)
(-0.027991735 0.041977029 3.1429766e-05)
(-0.03667489 0.045745065 4.4037517e-05)
(-0.045810624 0.048357678 5.4339739e-05)
(-0.055212045 0.049881925 6.2890296e-05)
(-0.064710922 0.050379409 6.9998702e-05)
(-0.074151579 0.049899841 7.5765131e-05)
(-0.083386394 0.048479276 8.0104034e-05)
(-0.092272402 0.046142092 8.2774113e-05)
(-0.10066901 0.042905675 8.3416114e-05)
(-0.10843684 0.038786784 8.1595104e-05)
(-0.11543757 0.03380869 7.6849266e-05)
(-0.12153477 0.028008319 6.8741984e-05)
(-0.12659556 0.021442824 5.6917152e-05)
(-0.1304931 0.014195167 4.1155224e-05)
(-0.13310987 0.0063783917 2.1427047e-05)
(-0.13434179 -0.0018616664 -2.0591744e-06)
(-0.13410298 -0.010345502 -2.8829438e-05)
(-0.13233144 -0.018860969 -5.8114288e-05)
(-0.12899547 -0.027166909 -8.8866281e-05)
(-0.12410022 -0.034999294 -0.00011978795)
(-0.11769444 -0.042080366 -0.00014939492)
(-0.10987654 -0.048130873 -0.00017610778)
(-0.10079916 -0.0528853 -0.00019836787)
(-0.090671304 -0.056109612 -0.00021476779)
(-0.079756867 -0.05762056 -0.00022418299)
(-0.068368789 -0.057305095 -0.0002258877)
(-0.056858079 -0.055137975 -0.00021963706)
(-0.045597768 -0.051195475 -0.00020570237)
(-0.034962565 -0.045663177 -0.00018484962)
(-0.025306235 -0.038836484 -0.00015824945)
(-0.016939027 -0.031113572 -0.00012735699)
(-0.01010285 -0.022981498 -9.3944633e-05)
(-0.0049475955 -0.014995329 -5.9942345e-05)
(-0.0015809069 -0.0077528404 -2.4844453e-05)
(-0.00017969236 -0.0018921831 1.3069401e-05)
(-0.00043521644 0.0064366397 -9.255575e-05)
(-0.002776626 0.018254372 -4.4699973e-05)
(-0.0075685468 0.028680254 -8.346833e-06)
(-0.014038714 0.037567214 1.7806109e-05)
(-0.021754664 0.044887033 3.901367e-05)
(-0.03042747 0.05067761 5.6207724e-05)
(-0.039796485 0.055015198 7.0310501e-05)
(-0.049634158 0.057992022 8.2255931e-05)
(-0.059744532 0.059699032 9.2678452e-05)
(-0.069954173 0.060214904 0.00010192375)
(-0.080104801 0.059600729 0.00011009167)
(-0.090047771 0.057899469 0.0001170647)
(-0.099639819 0.055139174 0.00012254187)
(-0.10874003 0.051338848 0.00012607986)
(-0.11720801 0.046515924 0.00012713816)
(-0.1249031 0.040694401 0.00012513124)
(-0.13168458 0.033912904 0.00011948471)
(-0.13741275 0.026232123 0.00010969598)
(-0.14195087 0.017741232 9.5397413e-05)
(-0.14516804 0.00856303 7.641953e-05)
(-0.14694311 -0.0011424138 5.2849581e-05)
(-0.14716948 -0.011175833 2.5063523e-05)
(-0.14576129 -0.021299217 -6.2097872e-06)
(-0.14266071 -0.031238321 -3.9913807e-05)
(-0.13784599 -0.040688484 -7.4672057e-05)
(-0.13134019 -0.049323868 -0.00010884477)
(-0.12321979 -0.056810565 -0.00014062037)
(-0.11362215 -0.062823724 -0.00016813925)
(-0.10275068 -0.067068361 -0.000189642)
(-0.090876226 -0.069302939 -0.00020362845)
(-0.078333273 -0.069364016 -0.00020900891)
(-0.065509899 -0.067189593 -0.00020522524)
(-0.052830988 -0.062838258 -0.00019232276)
(-0.040735297 -0.056501191 -0.00017095651)
(-0.029648568 -0.04850469 -0.000142312)
(-0.01995549 -0.039302296 -0.00010798129)
(-0.011967975 -0.029457045 -7.0010879e-05)
(-0.0058942211 -0.019613978 -3.0703443e-05)
(-0.0018958363 -0.010466549 1.0520278e-05)
(-0.00021868581 -0.002749008 5.2902607e-05)
(-0.00047101193 0.0079324324 -7.1477463e-05)
(-0.0029945864 0.022170162 -1.792971e-05)
(-0.0081469123 0.034522305 2.1011231e-05)
(-0.015087642 0.044913776 4.8986701e-05)
(-0.023345988 0.05338097 7.1799931e-05)
(-0.032609527 0.060018348 9.0564033e-05)
(-0.042599663 0.06494926 0.00010634984)
(-0.053076503 0.068303336 0.00012020903)
(-0.063836775 0.070199862 0.00013284458)
(-0.074703509 0.070737816 0.00014462749)
(-0.085517564 0.069991824 0.00015564745)
(-0.096131141 0.068012971 0.00016574595)
(-0.10640266 0.064833366 0.00017455339)
(-0.11619294 0.060473268 0.00018153266)
(-0.12536259 0.0549497 0.00018602613)
(-0.13377045 0.04828561 0.00018730986)
(-0.14127309 0.040518867 0.00018465287)
(-0.14772512 0.031710596 0.00017738225)
(-0.15298046 0.021952539 0.00016495294)
(-0.1568946 0.011373225 0.00014701896)
(-0.15932813 0.00014278015 0.0001235021)
(-0.1601516 -0.011523823 9.4664672e-05)
(-0.15925191 -0.023365947 6.1132186e-05)
(-0.15654023 -0.035078401 2.3943662e-05)
(-0.15196173 -0.046316245 -1.5464171e-05)
(-0.14550635 -0.056703506 -5.52985e-05)
(-0.13722017 -0.065846615 -9.3494962e-05)
(-0.12721643 -0.073353063 -0.00012784586)
(-0.11568442 -0.078855243 -0.00015616584)
(-0.10289474 -0.082038704 -0.00017648196)
(-0.089198784 -0.082673018 -0.00018722863)
(-0.075020619 -0.080642396 -0.00018742034)
(-0.060840252 -0.07597225 -0.00017677536)
(-0.047168237 -0.068847514 -0.00015576461)
(-0.034513955 -0.05961901 -0.00012555377)
(-0.023350764 -0.048795859 -8.787992e-05)
(-0.014075388 -0.03702402 -4.5116002e-05)
(-0.0069675451 -0.025051263 -2.0915486e-08)
(-0.0022544938 -0.013683741 4.803115e-05)
(-0.00026360788 -0.0037725039 9.5627808e-05)
(-0.00050176343 0.0095343423 -3.9734951e-05)
(-0.0031823648 0.026354299 1.973516e-05)
(-0.0086463938 0.040752831 6.0953102e-05)
(-0.01599579 0.0527345 9.0610685e-05)
(-0.024727344 0.062407687 0.00011500749)
(-0.034508769 0.06993034 0.00013543089)
(-0.045046339 0.07547907 0.00015309133)
(-0.056090013 0.079226134 0.00016914713)
(-0.067430991 0.081323358 0.0001843601)
(-0.078890423 0.081893218 0.0001991185)
(-0.090309985 0.081026107 0.00021349492)
(-0.10154453 0.078782574 0.00022728355)
(-0.11245611 0.075199279 0.00024003975)
(-0.12290933 0.070297417 0.0002511249)
(-0.13276794 0.064092479 0.00025975388)
(-0.14189242 0.05660443 0.00026504989)
(-0.15013859 0.047867635 0.00026610539)
(-0.1573571 0.037940129 0.00026205039)
(-0.16339386 0.026911989 0.00025212811)
(-0.16809154 0.014912681 0.00023577524)
(-0.17129248 0.002117252 0.00021270389)
(-0.1728433 -0.011248912 0.00018299056)
(-0.17260126 -0.02490708 0.00014712204)
(-0.17044272 -0.038524778 0.00010606592)
(-0.16627413 -0.0517187 6.1279646e-05)
(-0.16004483 -0.064062112 1.4689495e-05)
(-0.1517614 -0.075097842 -3.1380336e-05)
(-0.14150245 -0.08435781 -7.433415e-05)
(-0.12943224 -0.091389551 -0.00011148483)
(-0.11581093 -0.095789312 -0.00014027673)
(-0.10099872 -0.09724001 -0.00015853228)
(-0.08545135 -0.095550819 -0.00016469071)
(-0.069704645 -0.090693583 -0.00015800301)
(-0.054347398 -0.082830304 -0.00013864381)
(-0.03998455 -0.072326046 -0.00010769152)
(-0.027194226 -0.059743523 -6.701473e-05)
(-0.0164759 -0.045818461 -1.9357851e-05)
(-0.0081978283 -0.031415993 3.1975034e-05)
(-0.0026690516 -0.017475144 8.7635932e-05)
(-0.00031664069 -0.0049878795 0.00014139018)
(-0.00052691128 0.011225847 3.5000422e-06)
(-0.0033369603 0.030765809 6.9137267e-05)
(-0.0090594221 0.047313934 0.00011229857)
(-0.016749615 0.060960656 0.00014348812)
(-0.02587805 0.071892279 0.00016944256)
(-0.03609626 0.080335943 0.00019161546)
(-0.047098215 0.086526795 0.00021134824)
(-0.058625879 0.090684375 0.00022989626)
(-0.070466646 0.092996972 0.00024807304)
(-0.082441335 0.093613683 0.00026627916)
(-0.094394014 0.092642975 0.00028456667)
(-0.10618389 0.090156338 0.0003026797)
(-0.11767855 0.086195642 0.00032009546)
(-0.1287485 0.080782839 0.00033606905)
(-0.13926289 0.073930848 0.0003496799)
(-0.14908625 0.065654725 0.00035988536)
(-0.15807615 0.055982497 0.00036558155)
(-0.16608174 0.044965363 0.00036567327)
(-0.17294318 0.032687112 0.00035915413)
(-0.1784923 0.019272751 0.00034519585)
(-0.18255461 0.0048962562 0.00032324402)
(-0.18495326 -0.010212759 0.00029311935)
(-0.18551504 -0.025763724 0.00025510283)
(-0.18407913 -0.041402297 0.00021002007)
(-0.18050872 -0.056710728 0.000159288)
(-0.17470562 -0.071212998 0.00010492356)
(-0.16662742 -0.084386311 4.9496592e-05)
(-0.15630637 -0.095680467 -3.9846818e-06)
(-0.14386837 -0.10454626 -5.2261154e-05)
(-0.12954936 -0.11047317 -9.207686e-05)
(-0.11370609 -0.11303498 -0.00012048313)
(-0.096817149 -0.11194001 -0.00013515843)
(-0.079470969 -0.10708026 -0.00013469804)
(-0.062338448 -0.098571692 -0.0001188165)
(-0.046131382 -0.086777614 -8.8391234e-05)
(-0.031550312 -0.072308428 -4.5376022e-05)
(-0.019218804 -0.055995125 7.0814539e-06)
(-0.0096152044 -0.038836084 6.5037675e-05)
(-0.0031518084 -0.021926452 0.00012915268)
(-0.0003800081 -0.0064267867 0.00019021392)
(-0.00054590687 0.01298882 5.889478e-05)
(-0.003455545 0.03536007 0.00013095173)
(-0.0093789928 0.054142589 0.00017570436)
(-0.017336637 0.069517127 0.00020826888)
(-0.026778948 0.081752237 0.00023575192)
(-0.037344843 0.091148656 0.00025976363)
(-0.048718662 0.098004399 0.00028176803)
(-0.060636364 0.10259035 0.00030310944)
(-0.07288308 0.10513489 0.00032464878)
(-0.085280676 0.10581679 0.00034679752)
(-0.097677026 0.10476497 0.0003695877)
(-0.10993727 0.10206352 0.00039271474)
(-0.12193635 0.09776043 0.00041557876)
(-0.13355279 0.091878454 0.0004373277)
(-0.14466357 0.084427138 0.00045690109)
(-0.15513997 0.075414891 0.00047308035)
(-0.16484432 0.064860701 0.00048454753)
(-0.17362746 0.052805213 0.00048995476)
(-0.18132718 0.039321197 0.00048800712)
(-0.18776773 0.024523476 0.00047755935)
(-0.19276079 0.0085783502 0.00045772485)
(-0.19610836 -0.0082875864 0.00042799427)
(-0.19760806 -0.025779588 0.00038835288)
(-0.19706137 -0.04352885 0.00033939382)
(-0.19428548 -0.061089555 0.00028240658)
(-0.18912898 -0.077940698 0.00021942636)
(-0.18149145 -0.093494739 0.00015322448)
(-0.17134634 -0.10711536 8.7219917e-05)
(-0.15876564 -0.11814637 2.5297e-05)
(-0.14394381 -0.12595305 -2.8472448e-05)
(-0.12721686 -0.12997546 -7.0192367e-05)
(-0.10907181 -0.12979073 -9.6556815e-05)
(-0.090140984 -0.12517791 -0.00010526092)
(-0.071176964 -0.11617575 -9.532982e-05)
(-0.053007681 -0.10312172 -6.7262486e-05)
(-0.036474514 -0.08666172 -2.3002265e-05)
(-0.022349879 -0.067724324 3.3892224e-05)
(-0.011248955 -0.047457287 9.8741583e-05)
(-0.003715087 -0.027138056 0.00017219434)
(-0.00045600809 -0.0081273573 0.00024192475)
(-0.00055828812 0.014803695 0.00012693128)
(-0.0035358225 0.040089282 0.00020566487)
(-0.0095994722 0.061171293 0.00025164328)
(-0.017746729 0.078323089 0.00028541917)
(-0.027414152 0.091898003 0.00031439465)
(-0.038231328 0.10227339 0.00034032525)
(-0.049875353 0.10981349 0.00036478968)
(-0.062077896 0.11484402 0.00038921506)
(-0.074623121 0.11763676 0.00041450844)
(-0.087335095 0.11840316 0.00044109482)
(-0.10006671 0.11729512 0.00046899108)
(-0.11269046 0.11441122 0.00049784997)
(-0.12509037 0.10980672 0.00052700025)
(-0.13715506 0.10350563 0.00055548653)
(-0.14877184 0.095513666 0.00058210865)
(-0.15982176 0.085831259 0.00060546647)
(-0.17017532 0.074466004 0.00062401415)
(-0.17968902 0.061444593 0.00063612688)
(-0.18820261 0.046824237 0.00064018411)
(-0.19553741 0.030703844 0.0006346714)
(-0.20149596 0.013235121 0.00061830101)
(-0.20586357 -0.0053664131 0.0005901492)
(-0.2084122 -0.024810782 0.0005498042)
(-0.20890771 -0.044724134 0.00049751528)
(-0.20712098 -0.064641734 0.00043432949)
(-0.20284387 -0.084005323 0.00036219346)
(-0.19591033 -0.1021674 0.00028399672)
(-0.18622277 -0.11840544 0.00020352831)
(-0.17378247 -0.13194928 0.00012531872)
(-0.15872175 -0.1420243 5.435357e-05)
(-0.14133352 -0.14791148 -4.3426058e-06)
(-0.12209204 -0.14902244 -4.6223389e-05)
(-0.10165758 -0.14498292 -6.7779551e-05)
(-0.080857583 -0.13571334 -6.7038162e-05)
(-0.060641343 -0.12149048 -4.3857884e-05)
(-0.042008879 -0.1029742 -4.2354079e-09)
(-0.025909197 -0.081187052 6.0587544e-05)
(-0.013126753 -0.057440953 0.00013241191)
(-0.0043711443 -0.033224389 0.00021608361)
(-0.00054705041 -0.010134221 0.00029606321)
(-0.00056375824 0.016649851 0.00020788427)
(-0.0035764229 0.044903356 0.00029355647)
(-0.0097175246 0.068329235 0.00034038783)
(-0.017973626 0.087293229 0.0003752029)
(-0.027773136 0.10223404 0.00040561883)
(-0.038739142 0.11360723 0.00043352404)
(-0.050543471 0.12184569 0.00046060496)
(-0.062914868 0.12733285 0.00048836805)
(-0.075637528 0.13038701 0.00051776901)
(-0.088538625 0.13125528 0.00054925333)
(-0.10147708 0.13011516 0.0005828324)
(-0.114334 0.1270819 0.00061812736)
(-0.12700407 0.1222196 0.00065440646)
(-0.13938803 0.11555436 0.00069062015)
(-0.15138609 0.10708818 0.00072543419)
(-0.16289218 0.096812679 0.00075726696)
(-0.17378881 0.084722336 0.00078433679)
(-0.18394263 0.070827062 0.00080472334)
(-0.19320058 0.05516449 0.00081644844)
(-0.20138695 0.037812252 0.0008175802)
(-0.20830149 0.018900612 0.0008063624)
(-0.21371925 -0.0013744168 0.00078136917)
(-0.21739268 -0.02273759 0.00074168246)
(-0.21905696 -0.044821262 0.0006870795)
(-0.21843951 -0.067153751 0.00061822372)
(-0.21527497 -0.089151144 0.00053682969)
(-0.20932671 -0.11011554 0.00044577593)
(-0.20041548 -0.12924347 0.00034912894)
(-0.18845496 -0.14564894 0.00025203582)
(-0.17349246 -0.15840561 0.00016045497)
(-0.15575042 -0.1666114 8.0704713e-05)
(-0.1356619 -0.16947556 1.8845446e-05)
(-0.11389021 -0.16642314 -2.0049156e-05)
(-0.091321985 -0.15720373 -3.2610079e-05)
(-0.069026278 -0.14198477 -1.7686955e-05)
(-0.04817671 -0.12140514 2.3400415e-05)
(-0.029928501 -0.096568096 8.6442846e-05)
(-0.015273742 -0.068960667 0.00016504066)
(-0.0051320467 -0.040312863 0.00025975276)
(-0.00065569312 -0.012498497 0.00035178296)
(-0.00056226731 0.018506198 0.00030180434)
(-0.0035773301 0.049751294 0.00039468842)
(-0.0097331324 0.07554406 0.0004420006)
(-0.01801662 0.096339586 0.00047767032)
(-0.027853101 0.11266052 0.00050944554)
(-0.038861347 0.12504083 0.00053933441)
(-0.050709365 0.13398359 0.00056912625)
(-0.06312394 0.1399324 0.00060040717)
(-0.075890008 0.14325497 0.00063418876)
(-0.088838539 0.14423708 0.00067094905)
(-0.10183533 0.14308467 0.00071070884)
(-0.11477116 0.13993215 0.00075307382)
(-0.12755288 0.13485441 0.00079726794)
(-0.14009528 0.12788103 0.00084216207)
(-0.15231399 0.11901094 0.00088629936)
(-0.16411897 0.10822689 0.00092792329)
(-0.17540875 0.095509249 0.00096501568)