/*--------------------------------*- C++ -*----------------------------------*\
  =========                 |
  \\      /  F ield         | OpenFOAM: The Open Source CFD Toolbox
   \\    /   O peration     | Website:  https://openfoam.org
    \\  /    A nd           | Version:  7
     \\/     M anipulation  |
\*---------------------------------------------------------------------------*/
FoamFile
{
    version     2.0;
    format      ascii;
    class       volVectorField;
    location    "12";
    object      U_0;
}
// * * * * * * * * * * * * * * * * * * * * * * * * * * * * * * * * * * * * * //

dimensions      [0 1 -1 0 0 0 0];

internalField   nonuniform List<vector> 
16000
(
(6.6528513e-05 -6.6335356e-05 -3.5250285e-08)
(0.00016307766 -5.5609926e-05 6.1248683e-06)
(0.00014136368 8.1963868e-07 1.9585294e-05)
(-5.1236614e-05 6.1943859e-05 3.6939573e-05)
(-0.00040991858 0.0001154508 5.4966403e-05)
(-0.00090775379 0.00015739118 7.1707815e-05)
(-0.0015148027 0.00018803039 8.583413e-05)
(-0.0022020359 0.00020905138 9.653228e-05)
(-0.0029436 0.00022226386 0.00010334378)
(-0.0037171812 0.00022916433 0.00010602242)
(-0.0045034192 0.00023081331 0.00010444249)
(-0.005285029 0.00022783797 9.8542135e-05)
(-0.0060459074 0.00022049384 8.8297448e-05)
(-0.006770386 0.00020875778 7.3719836e-05)
(-0.0074427147 0.00019243485 5.4868871e-05)
(-0.0080468243 0.00017126816 3.1875483e-05)
(-0.0085663815 0.00014504649 4.9699547e-06)
(-0.008985126 0.00011370462 -2.5490155e-05)
(-0.0092874611 7.7411208e-05 -5.8996095e-05)
(-0.009459256 3.6640489e-05 -9.4872074e-05)
(-0.0094888054 -7.7786379e-06 -0.00013227107)
(-0.0093678537 -5.4656468e-05 -0.00017018515)
(-0.0090926272 -0.00010241854 -0.00020747165)
(-0.0086647686 -0.00014917807 -0.00024289704)
(-0.0080920515 -0.000192814 -0.00027519596)
(-0.0073888004 -0.00023108915 -0.00030314349)
(-0.0065759221 -0.00026179978 -0.00032563628)
(-0.0056804859 -0.00028294284 -0.00034177623)
(-0.0047348269 -0.00029288497 -0.00035094967)
(-0.0037751909 -0.00029051398 -0.00035289438)
(-0.002839987 -0.00027535519 -0.00034774798)
(-0.0019677547 -0.00024763826 -0.00033607353)
(-0.0011949595 -0.00020831492 -0.00031886146)
(-0.00055366294 -0.00015906342 -0.00029751075)
(-6.9117129e-05 -0.00010239702 -0.00027378468)
(0.000242236 -4.1926279e-05 -0.00024973282)
(0.00037665544 1.7533416e-05 -0.00022773276)
(0.00034825564 6.6687564e-05 -0.00021021368)
(0.00020551735 8.9522348e-05 -0.00019984276)
(5.7337832e-05 5.7282542e-05 -0.00018532437)
(5.8112983e-05 -0.00016513292 -6.1767894e-06)
(4.0947586e-05 -3.8440303e-05 1.0210562e-07)
(-0.00029470451 0.00024892063 1.1694591e-05)
(-0.0010093462 0.00056126388 2.599957e-05)
(-0.0020948179 0.00084554433 4.0912008e-05)
(-0.0035057633 0.0010802724 5.4841305e-05)
(-0.0051814755 0.0012607672 6.6665667e-05)
(-0.0070577938 0.0013900402 7.5633919e-05)
(-0.0090731723 0.0014736046 8.1266239e-05)
(-0.011170874 0.0015169844 8.3264169e-05)
(-0.013299023 0.0015246059 8.1445976e-05)
(-0.015409636 0.0014994229 7.5702995e-05)
(-0.017457293 0.0014429699 6.597779e-05)
(-0.019397925 0.0013556717 5.2260639e-05)
(-0.021187977 0.0012372973 3.4598703e-05)
(-0.022784121 0.001087479 1.3113972e-05)
(-0.024143572 0.00090624245 -1.1974045e-05)
(-0.025225005 0.00069450471 -4.0325466e-05)
(-0.025990014 0.00045450478 -7.1460508e-05)
(-0.026405002 0.00019013553 -0.00010474651)
(-0.026443392 -9.2852157e-05 -0.00013939488)
(-0.026087882 -0.00038677026 -0.00017447684)
(-0.02533269 -0.00068212874 -0.00020893988)
(-0.024185537 -0.00096792261 -0.00024165532)
(-0.022669034 -0.0012321113 -0.00027147138)
(-0.020821416 -0.0014622707 -0.00029727999)
(-0.018696379 -0.0016463807 -0.00031809187)
(-0.016361911 -0.0017736925 -0.00033311329)
(-0.013898065 -0.0018356033 -0.00034181786)
(-0.011393698 -0.0018264567 -0.00034400615)
(-0.0089423166 -0.0017441924 -0.00033984691)
(-0.0066371839 -0.0015907943 -0.00032989543)
(-0.0045659375 -0.0013725371 -0.00031508715)
(-0.0028048711 -0.0011001426 -0.00029670786)
(-0.0014129472 -0.00078914218 -0.0002763431)
(-0.00042555937 -0.00046078483 -0.00025580144)
(0.00015199061 -0.00014353443 -0.00023699432)
(0.00035396626 0.00012089472 -0.00022193285)
(0.00027388876 0.00026976846 -0.0002127131)
(8.978926e-05 0.00020443092 -0.00019644211)
(1.9374462e-06 -0.00014733368 -1.9905425e-05)
(-0.00025545894 0.00029795327 -1.1276133e-05)
(-0.0010479612 0.0010222871 5.7762011e-07)
(-0.0023817439 0.0017935157 1.3500223e-05)
(-0.0042280261 0.0025033096 2.6470648e-05)
(-0.0065272215 0.0031012647 3.8350721e-05)
(-0.009198538 0.0035703992 4.8317521e-05)
(-0.01215416 0.0039116414 5.5810888e-05)
(-0.015307205 0.0041335614 6.0450447e-05)
(-0.018574938 0.0042465263 6.1980519e-05)
(-0.021879525 0.0042596671 6.0229696e-05)
(-0.025147437 0.0041795817 5.5081629e-05)
(-0.028308273 0.0040101608 4.646113e-05)
(-0.031293603 0.003753131 3.4334229e-05)
(-0.034036241 0.003409027 1.8718283e-05)
(-0.036470165 0.0029783769 -3.0120203e-07)
(-0.038531202 0.0024629408 -2.2549683e-05)
(-0.040158461 0.0018668797 -4.7742447e-05)
(-0.041296448 0.0011977552 -7.546634e-05)
(-0.041897711 0.00046727675 -0.00010516751)
(-0.041925798 -0.00030826477 -0.00013614987)
(-0.041358333 -0.0011079002 -0.00016758073)
(-0.040189944 -0.0019064117 -0.00019851595)
(-0.038434733 -0.0026750835 -0.00022793576)
(-0.036128036 -0.0033829387 -0.00025479548)
(-0.033327227 -0.0039983651 -0.00027808775)
(-0.03011133 -0.0044910475 -0.00029691244)
(-0.026579288 -0.0048340828 -0.00031054851)
(-0.022846815 -0.005006118 -0.00031852085)
(-0.019041848 -0.0049933327 -0.00032065518)
(-0.015298727 -0.004791102 -0.00031711427)
(-0.011751334 -0.0044052249 -0.0003084109)
(-0.0085254421 -0.0038527088 -0.0002953949)
(-0.0057305882 -0.003162268 -0.00027921547)
(-0.003451661 -0.0023749364 -0.00026126222)
(-0.0017403688 -0.0015454854 -0.00024308607)
(-0.00060686047 -0.00074550651 -0.00022629303)
(-1.0701128e-05 -6.8948049e-05 -0.00021247149)
(0.00015393483 0.00035764642 -0.00020330511)
(7.315048e-05 0.00035284792 -0.00018630719)
(-6.452102e-05 5.1493444e-05 -3.8083159e-05)
(-0.0006066891 0.0010446963 -2.5547492e-05)
(-0.0019249554 0.0023765807 -1.1618913e-05)
(-0.0039346943 0.0037467125 1.6149918e-06)
(-0.0065689885 0.0050010712 1.4139152e-05)
(-0.0097490126 0.0060620066 2.5195024e-05)
(-0.013375245 0.0068994444 3.4248147e-05)
(-0.017340812 0.0075108394 4.0963008e-05)
(-0.021539435 0.0079067136 4.5104105e-05)
(-0.025868443 0.0081016805 4.6500212e-05)
(-0.030229645 0.0081094147 4.5021996e-05)
(-0.034528995 0.0079403052 4.0564658e-05)
(-0.038675659 0.007600971 3.3042478e-05)
(-0.042581105 0.0070950258 2.2394504e-05)
(-0.04615865 0.0064246154 8.5985145e-06)
(-0.049323702 0.0055923542 -8.3097145e-06)
(-0.051994829 0.004603373 -2.8213708e-05)
(-0.054095644 0.0034672495 -5.0893645e-05)
(-0.055557398 0.0021996442 -7.600647e-05)
(-0.056322133 0.00082349847 -0.0001030717)
(-0.056346129 -0.0006303139 -0.00013146628)
(-0.055603469 -0.0021229962 -0.00016042737)
(-0.054089356 -0.0036085301 -0.00018907559)
(-0.051822894 -0.005035113 -0.00021644707)
(-0.048849063 -0.0063473195 -0.00024154228)
(-0.045239595 -0.0074889129 -0.00026338708)
(-0.04109249 -0.0084061697 -0.00028110198)
(-0.036529979 -0.0090515222 -0.00029397423)
(-0.031694845 -0.0093872617 -0.00030152521)
(-0.026745057 -0.0093890194 -0.0003035654)
(-0.021846862 -0.0090487501 -0.00030022967)
(-0.017166523 -0.0083770127 -0.00029198747)
(-0.012861064 -0.0074044832 -0.00027962532)
(-0.0090683934 -0.0061828427 -0.00026420246)
(-0.0058972662 -0.0047854754 -0.00024698328)
(-0.0034175135 -0.0033087957 -0.00022935357)
(-0.0016507281 -0.0018752228 -0.00021273638)
(-0.0005614746 -0.00063791634 -0.00019852015)
(-5.1270752e-05 0.00021100893 -0.00018793115)
(3.7710858e-05 0.00041150547 -0.00016905127)
(-0.00013048353 0.00044549355 -5.7510979e-05)
(-0.00096790892 0.0022379556 -4.0467027e-05)
(-0.0028370777 0.0043477936 -2.364847e-05)
(-0.0055467291 0.0064387382 -9.2790034e-06)
(-0.0089799419 0.0083283976 3.5743541e-06)
(-0.013032454 0.0099207555 1.4486292e-05)
(-0.017584118 0.011176638 2.3195396e-05)
(-0.022510191 0.012091311 2.9595769e-05)
(-0.027688102 0.012677302 3.3609894e-05)
(-0.032999277 0.012953116 3.5165091e-05)
(-0.038329519 0.012936607 3.4185449e-05)
(-0.043568596 0.012641761 3.0584214e-05)
(-0.048609417 0.012077986 2.426605e-05)
(-0.053347333 0.011251143 1.513897e-05)
(-0.057679949 0.010165676 3.1334449e-06)
(-0.061507677 0.0088273365 -1.1774279e-05)
(-0.06473514 0.0072460568 -2.9535918e-05)
(-0.067273384 0.0054386574 -5.0005076e-05)
(-0.069042821 0.0034311172 -7.2913634e-05)
(-0.069976692 0.0012602057 -9.7853355e-05)
(-0.070024851 -0.0010256857 -0.00012426618)
(-0.069157608 -0.0033666553 -0.00015144575)
(-0.067369333 -0.0056923595 -0.00017855391)
(-0.064681517 -0.0079241662 -0.00020465217)
(-0.061145005 -0.0099783138 -0.00022874926)
(-0.056841078 -0.01177 -0.0002498624)
(-0.05188111 -0.013218225 -0.0002670887)
(-0.046404556 -0.014251128 -0.00027968041)
(-0.040575101 -0.014811465 -0.00028711609)
(-0.034574901 -0.014861844 -0.00028915905)
(-0.028596969 -0.014389294 -0.00028589494)
(-0.022835941 -0.01340885 -0.00027774187)
(-0.017477557 -0.01196596 -0.00026543027)
(-0.01268741 -0.010137765 -0.00024995322)
(-0.0085996254 -0.0080336482 -0.00023249047)
(-0.0053062078 -0.0057958446 -0.00021431882)
(-0.0028468959 -0.0036011178 -0.00019674923)
(-0.0012002847 -0.0016632998 -0.00018104512)
(-0.00028935728 -0.00023826161 -0.00016792997)
(-2.6557259e-06 0.00034763348 -0.00014661202)
(-0.00019223246 0.0010293334 -7.5900046e-05)
(-0.0013194969 0.0038822938 -5.4035715e-05)
(-0.0037390011 0.006947815 -3.3907259e-05)
(-0.0071486446 0.0098806651 -1.7882499e-05)
(-0.011375579 0.012488216 -4.1553373e-06)
(-0.016285433 0.014667774 7.1373888e-06)
(-0.021735057 0.016377935 1.5983156e-05)
(-0.027581669 0.017615367 2.2494437e-05)
(-0.033687935 0.018396211 2.674864e-05)
(-0.039922029 0.018743403 2.8772324e-05)
(-0.046157038 0.018679025 2.8544029e-05)
(-0.052270122 0.018220581 2.599458e-05)
(-0.058141564 0.017380261 2.1016223e-05)
(-0.063654127 0.016166358 1.3480663e-05)
(-0.06869302 0.014586059 3.2637016e-06)
(-0.073146662 0.012648971 -9.7265868e-06)
(-0.07690829 0.01037083 -2.5518728e-05)
(-0.079878388 0.00777697 -4.4046813e-05)
(-0.081967814 0.0049052129 -6.5121759e-05)
(-0.083101462 0.0018079209 -8.8407622e-05)
(-0.08322224 -0.0014469929 -0.00011340665)
(-0.082295132 -0.0047762487 -0.00013945676)
(-0.080311083 -0.0080826491 -0.00016574306)
(-0.077290422 -0.011257904 -0.00019132759)
(-0.073285496 -0.01418677 -0.00021519596)
(-0.068382219 -0.016752436 -0.00023632022)
(-0.062700188 -0.018842942 -0.00025373403)
(-0.05639106 -0.020358337 -0.00026661335)
(-0.049634923 -0.021218145 -0.00027435432)
(-0.042634503 -0.021368607 -0.00027663864)
(-0.03560718 -0.020789164 -0.00027347685)
(-0.028775003 -0.019497641 -0.0002652219)
(-0.022353097 -0.017553766 -0.00025254926)
(-0.016537081 -0.015060913 -0.00023640403)
(-0.011490473 -0.012166313 -0.00021791753)
(-0.0073330393 -0.0090604523 -0.00019831155)
(-0.0041295292 -0.005976592 -0.00017885728)
(-0.001880017 -0.0031900298 -0.00016078737)
(-0.00053601844 -0.0010183981 -0.00014442609)
(-4.1288132e-05 0.00015574922 -0.00012024932)
(-0.00024922976 0.0017939234 -9.1301734e-05)
(-0.0016538423 0.0059665474 -6.4469661e-05)
(-0.0046079314 0.010167085 -4.0872657e-05)
(-0.0087010713 0.014062207 -2.2893527e-05)
(-0.013702888 0.017465851 -7.9284038e-06)
(-0.019446384 0.02028108 4.1368792e-06)
(-0.025763787 0.022472654 1.351341e-05)
(-0.032493947 0.024043828 2.0514119e-05)
(-0.039485659 0.025017272 2.535961e-05)
(-0.046595722 0.025421809 2.8167829e-05)
(-0.053687058 0.025284351 2.8965594e-05)
(-0.060627161 0.024626091 2.769556e-05)
(-0.067286787 0.023462033 2.4231397e-05)
(-0.073539166 0.02180295 1.8401398e-05)
(-0.079259956 0.019658929 1.0018594e-05)
(-0.08432805 0.017043727 -1.0857726e-06)
(-0.088627246 0.013979316 -1.5025542e-05)
(-0.092048735 0.010500108 -3.1822791e-05)
(-0.094494283 0.0066564595 -5.1373047e-05)
(-0.095879959 0.0025171527 -7.3415309e-05)
(-0.096140245 -0.0018293641 -9.7510815e-05)
(-0.095232297 -0.0062751713 -0.00012303511)
(-0.093140174 -0.010694597 -0.00014918418)
(-0.089878757 -0.014947609 -0.00017500163)
(-0.085497025 -0.018884836 -0.00019942419)
(-0.080080382 -0.022354187 -0.00022134656)
(-0.073751608 -0.025208859 -0.00023970125)
(-0.06667005 -0.027316427 -0.00025354661)
(-0.059028624 -0.028568509 -0.00026215423)
(-0.05104837 -0.028890354 -0.00026508465)
(-0.042970385 -0.028249626 -0.0002622406)
(-0.035045258 -0.026663602 -0.00025388822)
(-0.027520401 -0.024204156 -0.0002406414)
(-0.020626005 -0.021000148 -0.00022340873)
(-0.01456085 -0.017237239 -0.00020330429)
(-0.0094792128 -0.013155732 -0.00018154574)
(-0.0054778199 -0.0090472846 -0.0001594342)
(-0.0025844652 -0.0052500291 -0.00013825651)
(-0.00078379232 -0.0021433048 -0.00011801679)
(-7.6969707e-05 -0.00016359165 -9.0756148e-05)
(-0.00030182894 0.0027284629 -0.00010205449)
(-0.0019682138 0.0084713844 -7.0159996e-05)
(-0.0054321796 0.013983265 -4.3114343e-05)
(-0.010180861 0.018959104 -2.3052646e-05)
(-0.015927644 0.023234316 -6.6360259e-06)
(-0.022472406 0.026729829 6.4743951e-06)
(-0.029622295 0.029425505 1.6691355e-05)
(-0.037197902 0.031337268 2.4508722e-05)
(-0.045034987 0.032498146 3.0274447e-05)
(-0.05298051 0.032945052 3.4185073e-05)
(-0.060889339 0.03271085 3.6304991e-05)
(-0.068621789 0.031820893 3.6579214e-05)
(-0.076041754 0.030293099 3.4853879e-05)
(-0.083015577 0.028140655 3.0904939e-05)
(-0.089411804 0.025376401 2.4473485e-05)
(-0.095101852 0.022018067 1.5304446e-05)
(-0.099961576 0.018093666 3.1889692e-06)
(-0.10387364 0.013646469 -1.1992552e-05)
(-0.10673063 0.0087391453 -3.0228991e-05)
(-0.10843872 0.0034567379 -5.13413e-05)
(-0.10892187 -0.0020917827 -7.4953869e-05)
(-0.10812631 -0.0077735801 -0.00010048024)
(-0.10602514 -0.013433747 -0.00012712208)
(-0.10262297 -0.018899078 -0.00015389289)
(-0.097960057 -0.023983784 -0.00017966117)
(-0.092115782 -0.028497204 -0.00020321661)
(-0.085210854 -0.032253372 -0.00022335486)
(-0.077407764 -0.035082122 -0.00023897434)
(-0.068908916 -0.036841195 -0.00024917562)
(-0.05995194 -0.037428577 -0.00025335147)
(-0.050801873 -0.036794107 -0.00025125474)
(-0.04174017 -0.034949265 -0.00024303269)
(-0.033050902 -0.031974166 -0.00022922083)
(-0.025004957 -0.028020963 -0.00021069383)
(-0.017843731 -0.02331341 -0.00018857267)
(-0.011763878 -0.018142962 -0.00016411665)
(-0.0069015584 -0.012862234 -0.00013872262)
(-0.0033182923 -0.0078753441 -0.00011381287)
(-0.0010354013 -0.0036265292 -8.9158004e-05)
(-0.00011088352 -0.00060936707 -5.8659738e-05)
(-0.00035035048 0.0038216509 -0.00010670311)
(-0.0022611915 0.011372896 -6.9640391e-05)
(-0.0062044596 0.018365992 -3.9276154e-05)
(-0.011572306 0.024537647 -1.7115534e-05)
(-0.018024995 0.029757797 8.6401372e-07)
(-0.025330351 0.033976492 1.5208891e-05)
(-0.033271125 0.037197539 2.6515687e-05)
(-0.041650384 0.03945597 3.5440589e-05)
(-0.050291895 0.040799535 4.2442063e-05)
(-0.059034258 0.041275964 4.7780545e-05)
(-0.067726169 0.040925623 5.1545132e-05)
(-0.076222964 0.039778748 5.3671736e-05)
(-0.08438403 0.03785636 5.3968407e-05)
(-0.092071165 0.035173881 5.2148568e-05)
(-0.099147954 0.031746466 4.7870999e-05)
(-0.10548012 0.027595165 4.0783355e-05)
(-0.11093679 0.022753181 3.0569983e-05)
(-0.11539263 0.017271625 1.7001189e-05)
(-0.11873066 0.011224337 -1.8218265e-08)
(-0.12084585 0.0047114456 -2.0403751e-05)
(-0.12164929 -0.0021386009 -4.3853972e-05)
(-0.12107284 -0.009168767 -6.9828888e-05)
(-0.11907427 -0.016195006 -9.7538854e-05)
(-0.1156427 -0.023010154 -0.00012596368)
(-0.11080391 -0.029390047 -0.00015389095)
(-0.10462524 -0.035102115 -0.00017998211)
(-0.097219539 -0.03991638 -0.00020286165)
(-0.088747382 -0.043618643 -0.00022122332)
(-0.079416881 -0.046025287 -0.00023394397)
(-0.06948029 -0.046998839 -0.00024019217)
(-0.05922685 -0.046463069 -0.00023951652)
(-0.048971616 -0.044416177 -0.00023189987)
(-0.039040485 -0.040940566 -0.00021776941)
(-0.02975228 -0.036207942 -0.00019795722)
(-0.021399667 -0.030478986 -0.00017360673)
(-0.014230789 -0.024097746 -0.00014605877)
(-0.008429686 -0.017481523 -0.00011686832)
(-0.0040981055 -0.0111059 -8.7672173e-05)
(-0.0012978252 -0.0054867171 -5.8076324e-05)
(-0.00014446663 -0.0011832018 -2.4069335e-05)
(-0.000394868 0.0050618058 -0.00010393557)
(-0.0025312978 0.01464388 -6.1565052e-05)
(-0.0069186449 0.023278778 -2.8082191e-05)
(-0.012862381 0.030756313 -3.8765459e-06)
(-0.019973906 0.036992347 1.5712972e-05)
(-0.027991201 0.041976276 3.1428956e-05)
(-0.036674201 0.045744253 4.4037684e-05)
(-0.045809776 0.048356831 5.434095e-05)
(-0.055211039 0.049881065 6.2891756e-05)
(-0.064709762 0.050378558 6.9999857e-05)
(-0.074150271 0.049899018 7.576593e-05)
(-0.083384948 0.048478499 8.0104923e-05)
(-0.09227083 0.046141379 8.2775781e-05)
(-0.10066733 0.042905042 8.3418572e-05)
(-0.10843506 0.038786246 8.1598401e-05)
(-0.11543571 0.033808261 7.685309e-05)
(-0.12153285 0.02800801 6.8745911e-05)
(-0.12659361 0.021442645 5.6920837e-05)
(-0.13049113 0.014195124 4.1158287e-05)
(-0.13310791 0.0063784866 2.1429042e-05)
(-0.13433985 -0.0018614337 -2.0585546e-06)
(-0.13410108 -0.010345136 -2.8830308e-05)
(-0.13232961 -0.018860477 -5.8116536e-05)
(-0.12899372 -0.027166303 -8.8869492e-05)
(-0.12409856 -0.03499859 -0.0001197914)
(-0.1176929 -0.042079582 -0.00014939785)
(-0.10987513 -0.04813003 -0.00017610972)
(-0.10079789 -0.052884423 -0.00019836869)
(-0.090670178 -0.056108727 -0.00021476764)
(-0.079755893 -0.057619695 -0.00022418228)
(-0.068367967 -0.057304274 -0.00022588681)
(-0.056857406 -0.055137224 -0.00021963644)
(-0.045597237 -0.051194814 -0.00020570279)
(-0.034962164 -0.045662622 -0.00018485158)
(-0.02530595 -0.038836044 -0.00015825299)
(-0.016938839 -0.031113251 -0.00012736193)
(-0.010102741 -0.022981289 -9.395091e-05)
(-0.0049475437 -0.014995217 -5.9949599e-05)
(-0.0015808911 -0.0077528024 -2.4852323e-05)
(-0.00017969074 -0.0018921852 1.3062085e-05)
(-0.00043520836 0.0064365221 -9.2555875e-05)
(-0.0027765718 0.018254035 -4.4701228e-05)
(-0.0075683995 0.028679726 -8.3474938e-06)
(-0.014038443 0.037566527 1.7805425e-05)
(-0.021754251 0.044886219 3.9013321e-05)
(-0.030426903 0.050676702 5.6206973e-05)
(-0.039795754 0.055014225 7.0310781e-05)
(-0.049633263 0.057991013 8.225745e-05)
(-0.059743474 0.059698013 9.2680339e-05)
(-0.069952955 0.0602139 0.00010192543)
(-0.080103432 0.059599761 0.000110093)
(-0.090046261 0.057898559 0.00011706603)
(-0.099638181 0.055138341 0.00012254386)
(-0.10873828 0.051338111 0.00012608253)
(-0.11720616 0.046515299 0.00012714162)
(-0.12490117 0.040693903 0.00012513522)
(-0.1316826 0.033912546 0.00011948875)
(-0.13741073 0.026231914 0.00010969967)
(-0.14194883 0.017741179 9.540038e-05)
(-0.145166 0.0085631366 7.642135e-05)
(-0.14694109 -0.0011421493 5.2849962e-05)
(-0.14716751 -0.011175415 2.5062391e-05)
(-0.14575937 -0.021298655 -6.2122349e-06)
(-0.14265887 -0.031237627 -3.9917045e-05)
(-0.13784424 -0.040687675 -7.4675249e-05)
(-0.13133856 -0.049322963 -0.00010884706)
(-0.12321828 -0.056809589 -0.00014062131)
(-0.11362077 -0.062822704 -0.0001681388)
(-0.10274946 -0.067067326 -0.00018964043)
(-0.090875158 -0.069301919 -0.00020362638)
(-0.078332364 -0.069363041 -0.00020900696)
(-0.065509147 -0.067188691 -0.00020522392)
(-0.052830388 -0.062837455 -0.00019232274)
(-0.040734839 -0.056500506 -0.00017095829)
(-0.029648238 -0.048504137 -0.00014231575)
(-0.01995527 -0.03930188 -0.00010798685)
(-0.011967845 -0.029456763 -7.0018e-05)
(-0.0058941578 -0.019613815 -3.0711402e-05)
(-0.0018958164 -0.010466481 1.0511883e-05)
(-0.00021868351 -0.002749 5.289495e-05)
(-0.00047100347 0.0079322847 -7.1478368e-05)
(-0.0029945297 0.02216975 -1.7932005e-05)
(-0.0081467583 0.034521667 2.1009605e-05)
(-0.01508736 0.044912954 4.8985337e-05)
(-0.023345559 0.053380003 7.1799093e-05)
(-0.032608939 0.060017277 9.0563161e-05)
(-0.042598908 0.06494812 0.0001063501)
(-0.05307558 0.06830216 0.00012021069)
(-0.063835686 0.07019868 0.00013284671)
(-0.07470226 0.070736655 0.00014462954)
(-0.085516163 0.069990709 0.00015564919)
(-0.096129599 0.068011926 0.00016574758)
(-0.10640099 0.064832412 0.00017455555)
(-0.11619116 0.060472426 0.00018153537)
(-0.12536071 0.054948987 0.00018602953)
(-0.13376849 0.048285043 0.00018731377)
(-0.14127108 0.04051846 0.0001846568)
(-0.14772307 0.031710357 0.00017738569)
(-0.15297838 0.021952476 0.00016495553)
(-0.15689253 0.01137334 0.00014702035)
(-0.15932607 0.00014307263 0.00012350207)
(-0.16014958 -0.011523358 9.4663242e-05)
(-0.15924994 -0.023365319 6.1129653e-05)
(-0.15653834 -0.035077624 2.394065e-05)
(-0.15195993 -0.046315335 -1.5466759e-05)
(-0.14550464 -0.056702485 -5.5299795e-05)
(-0.13721859 -0.065845509 -9.3494594e-05)
(-0.12721498 -0.073351901 -0.00012784396)
(-0.11568312 -0.078854056 -0.00015616275)
(-0.1028936 -0.082037526 -0.00017647846)
(-0.089197798 -0.082671883 -0.0001872256)
(-0.075019796 -0.080641335 -0.00018741827)
(-0.060839588 -0.075971294 -0.00017677475)
(-0.047167725 -0.068846687 -0.00015576578)
(-0.034513582 -0.059618331 -0.00012555694)
(-0.023350511 -0.048795336 -8.7885077e-05)
(-0.014075236 -0.037023653 -4.5122783e-05)
(-0.0069674702 -0.02505104 -2.8284901e-08)
(-0.0022544696 -0.013683637 4.8023652e-05)
(-0.00026360488 -0.0037724836 9.5621158e-05)
(-0.00050175484 0.0095341637 -3.9736808e-05)
(-0.0031823072 0.026353809 1.9731789e-05)
(-0.0086462374 0.04075208 6.0950461e-05)
(-0.015995505 0.052733539 9.0608573e-05)
(-0.02472691 0.062406566 0.00011500606)
(-0.034508175 0.069929105 0.00013542982)
(-0.045045578 0.075477762 0.00015309146)
(-0.056089084 0.07922479 0.00016914872)
(-0.067429898 0.081322012 0.00018436218)
(-0.07888917 0.081891901 0.00019912059)
(-0.090308583 0.081024846 0.00021349674)
(-0.10154299 0.078781396 0.00022728519)
(-0.11245444 0.075198206 0.00024004178)
(-0.12290756 0.070296471 0.00025112732)
(-0.13276607 0.06409168 0.00025975685)
(-0.14189047 0.056603794 0.00026505333)
(-0.15013659 0.047867177 0.00026610881)
(-0.15735506 0.037939859 0.00026205321)
(-0.16339179 0.026911913 0.00025212995)
(-0.16808947 0.014912802 0.0002357759)
(-0.17129043 0.0021175682 0.00021270327)
(-0.17284128 -0.011248405 0.00018298878)
(-0.17259928 -0.024906392 0.00014711949)
(-0.1704408 -0.038523923 0.00010606327)
(-0.16627229 -0.051717697 6.1277825e-05)
(-0.16004309 -0.064060982 1.4689359e-05)
(-0.15175978 -0.075096612 -3.1378519e-05)
(-0.14150095 -0.08435651 -7.4330738e-05)
(-0.12943088 -0.091388215 -0.00011148026)
(-0.11580972 -0.095787976 -0.00014027186)
(-0.10099767 -0.097238711 -0.00015852813)
(-0.085450466 -0.095549594 -0.00016468783)
(-0.069703925 -0.090692467 -0.00015800164)
(-0.054346836 -0.082829327 -0.00013864401)
(-0.039984135 -0.072325231 -0.00010769339)
(-0.027193943 -0.059742883 -6.7018336e-05)
(-0.016475728 -0.045818 -1.9362893e-05)
(-0.0081977421 -0.031415701 3.1969698e-05)
(-0.0026690231 -0.017474998 8.7630722e-05)
(-0.000316637 -0.0049878449 0.00014138575)
(-0.00052690274 0.011225638 3.4973133e-06)
(-0.0033369033 0.030765241 6.9133151e-05)
(-0.0090592678 0.04731307 0.00011229528)
(-0.016749333 0.060959558 0.00014348558)
(-0.025877622 0.071891004 0.00016944082)
(-0.036095675 0.080334545 0.00019161446)
(-0.047097467 0.08652532 0.00021134844)
(-0.058624967 0.090682866 0.00022989787)
(-0.070465574 0.092995465 0.00024807506)
(-0.08244011 0.093612213 0.00026628121)
(-0.094392644 0.092641572 0.00028456845)
(-0.10618239 0.09015503 0.0003026812)
(-0.11767693 0.086194454 0.00032009719)
(-0.12874677 0.080781794 0.000336071)
(-0.13926107 0.073929967 0.00034968217)
(-0.14908436 0.065654024 0.00035988794)
(-0.15807421 0.055981991 0.00036558399)
(-0.16607976 0.044965061 0.00036567497)
(-0.17294118 0.032687022 0.00035915474)
(-0.17849029 0.019272874 0.0003451953)
(-0.18255262 0.0048965913 0.00032324243)
(-0.18495128 -0.010212217 0.00029311698)
(-0.18551311 -0.025762985 0.00025510014)
(-0.18407725 -0.041401376 0.00021001774)
(-0.18050691 -0.056709642 0.00015928688)
(-0.17470389 -0.07121177 0.00010492444)
(-0.16662579 -0.084384968 4.949969e-05)
(-0.15630486 -0.095679039 -3.9799673e-06)
(-0.14386698 -0.10454479 -5.2255364e-05)
(-0.12954812 -0.11047169 -9.2070818e-05)
(-0.113705 -0.11303352 -0.00012047792)
(-0.096816219 -0.11193862 -0.00013515464)
(-0.079470203 -0.10707897 -0.00013469564)
(-0.062337844 -0.098570557 -0.00011881531)
(-0.046130931 -0.086776654 -8.8391219e-05)
(-0.03155 -0.072307661 -4.5377198e-05)
(-0.019218612 -0.05599456 7.0793253e-06)
(-0.0096151072 -0.038835715 6.5035615e-05)
(-0.0031517759 -0.02192626 0.00012915085)
(-0.00038000377 -0.0064267361 0.0001902126)
(-0.00054589863 0.012988581 5.8891573e-05)
(-0.0034554904 0.035359427 0.00013094739)
(-0.0093788449 0.054141615 0.0001757009)
(-0.017336367 0.069515895 0.00020826631)
(-0.026778539 0.081750813 0.00023575023)
(-0.037344283 0.0911471 0.00025976296)
(-0.048717947 0.098002764 0.00028176844)
(-0.060635492 0.10258868 0.00030311111)
(-0.072882056 0.10513323 0.00032465071)
(-0.085279507 0.10581517 0.00034679944)
(-0.097675721 0.10476343 0.00036958932)
(-0.10993584 0.10206209 0.00039271597)
(-0.12193481 0.097759135 0.00041558006)
(-0.13355116 0.091877317 0.00043732904)
(-0.14466185 0.08442618 0.0004569025)
(-0.15513819 0.07541413 0.00047308184)
(-0.16484249 0.064860149 0.00048454871)
(-0.1736256 0.052804881 0.00048995503)
(-0.1813253 0.039321092 0.00048800615)
(-0.18776584 0.024523599 0.00047755724)
(-0.1927589 0.0085786997 0.00045772193)
(-0.19610649 -0.0082870163 0.00042799099)
(-0.19760622 -0.025778808 0.00038834977)
(-0.19705957 -0.043527873 0.00033939154)
(-0.19428374 -0.061088399 0.00028240582)
(-0.18912731 -0.077939386 0.00021942782)
(-0.18148987 -0.093493297 0.00015322833)
(-0.17134485 -0.10711382 8.7225377e-05)
(-0.15876427 -0.11814476 2.530342e-05)
(-0.14394256 -0.12595142 -2.8465798e-05)
(-0.12721575 -0.12997385 -7.0186419e-05)
(-0.10907086 -0.12978918 -9.6552171e-05)
(-0.090140187 -0.12517647 -0.00010525737)
(-0.071176327 -0.11617446 -9.5326924e-05)
(-0.0530072 -0.1031206 -6.7260143e-05)
(-0.036474178 -0.086660819 -2.3000513e-05)
(-0.022349669 -0.067723648 3.3893587e-05)
(-0.011248847 -0.047456835 9.8743383e-05)
(-0.0037150506 -0.027137812 0.00017219636)
(-0.00045600315 -0.0081272897 0.00024192683)
(-0.00055828044 0.014803429 0.00012692819)
(-0.0035357719 0.040088567 0.00020566095)
(-0.0095993353 0.061170217 0.00025164025)
(-0.017746479 0.078321732 0.00028541707)
(-0.027413773 0.091896439 0.00031439343)
(-0.038230809 0.10227168 0.00034032521)
(-0.049874689 0.1098117 0.00036479045)
(-0.062077088 0.1148422 0.00038921685)
(-0.074622173 0.11763495 0.00041451031)
(-0.087334012 0.11840141 0.00044109661)
(-0.1000655 0.11729346 0.00046899251)
(-0.11268914 0.11440968 0.0004978509)
(-0.12508895 0.10980533 0.00052700104)
(-0.13715355 0.10350441 0.00055548722)
(-0.14877027 0.09551264 0.00058210918)
(-0.15982013 0.085830443 0.00060546683)
(-0.17017365 0.074465413 0.00062401403)
(-0.17968732 0.061444235 0.00063612573)
(-0.18820089 0.046824118 0.00064018162)
(-0.19553568 0.030703966 0.00063466775)
(-0.20149424 0.013235481 0.00061829672)
(-0.20586186 -0.0053658213 0.00059014487)
(-0.20841051 -0.024809968 0.00054980042)
(-0.20890605 -0.044723113 0.00049751268)
(-0.20711937 -0.064640523 0.00043432859)
(-0.20284231 -0.084003943 0.00036219476)
(-0.19590884 -0.10216588 0.00028400047)
(-0.18622135 -0.1184038 0.00020353367)
(-0.17378114 -0.13194756 0.00012532494)
(-0.15872054 -0.14202254 5.4359971e-05)
(-0.14133243 -0.14790973 -4.3366083e-06)
(-0.12209109 -0.14902073 -4.6218292e-05)
(-0.10165677 -0.14498132 -6.7775057e-05)
(-0.080856927 -0.13571188 -6.7033613e-05)
(-0.060640841 -0.12148921 -4.3853145e-05)
(-0.042008524 -0.10297316 4.8474562e-10)
(-0.025908973 -0.081186259 6.0592312e-05)
(-0.013126637 -0.057440412 0.00013241733)
(-0.0043711045 -0.03322409 0.0002160891)
(-0.00054704491 -0.010134135 0.00029606828)
(-0.00056375135 0.01664956 0.00020788178)
(-0.003576378 0.044902577 0.00029355341)
(-0.0097174032 0.068328064 0.00034038561)
(-0.017973404 0.087291757 0.00037520161)
(-0.027772798 0.10223235 0.00040561833)
(-0.038738678 0.11360539 0.00043352479)
(-0.050542878 0.12184376 0.00046060617)
(-0.062914145 0.12733089 0.00048837)
(-0.075636679 0.13038508 0.00051777084)
(-0.088537657 0.13125341 0.00054925504)
(-0.10147601 0.13011338 0.00058283377)
(-0.11433283 0.12708026 0.00061812813)
(-0.12700281 0.12221812 0.00065440689)
(-0.13938669 0.11555307 0.00069062034)
(-0.1513847 0.10708709 0.00072543403)
(-0.16289074 0.096811818 0.00075726641)
(-0.17378734 0.084721712 0.0007843356)
(-0.18394114 0.070826684 0.00080472106)
(-0.19319908 0.055164361 0.00081644479)
(-0.20138544 0.037812374 0.00081757539)
(-0.20829999 0.01890098 0.00080635703)
(-0.21371776 -0.0013738088 0.00078136389)
(-0.21739121 -0.022736753 0.00074167787)
(-0.21905551 -0.04482021 0.00068707623)
(-0.21843808 -0.067152501 0.00061822209)
(-0.21527358 -0.089149716 0.00053682996)
(-0.20932537 -0.11011396 0.00044577849)
(-0.20041419 -0.12924176 0.0003491331)
(-0.18845374 -0.14564714 0.00025204088)
(-0.17349132 -0.15840375 0.00016046018)
(-0.15574938 -0.16660952 8.0709814e-05)
(-0.13566098 -0.16947373 1.8850299e-05)
(-0.11388941 -0.16642139 -2.004421e-05)
(-0.091321329 -0.15720212 -3.2604328e-05)
(-0.069025767 -0.14198336 -1.7680271e-05)
(-0.048176343 -0.12140396 2.3407555e-05)
(-0.029928266 -0.096567183 8.6450261e-05)
(-0.015273619 -0.068960033 0.00016504876)
(-0.0051320043 -0.040312505 0.00025976063)
(-0.00065568713 -0.012498392 0.00035178994)
(-0.00056226157 0.018505884 0.00030180268)
(-0.0035772926 0.049750458 0.0003946864)
(-0.0097330306 0.075542807 0.00044199936)
(-0.018016433 0.096338012 0.00047766996)
(-0.027852814 0.11265871 0.0005094458)
(-0.038860953 0.12503887 0.00053933597)
(-0.05070886 0.13398154 0.00056912793)
(-0.063123323 0.13993032 0.00060040929)
(-0.075889284 0.14325292 0.0006341906)
(-0.088837714 0.1442351 0.00067095079)
(-0.10183441 0.1430828 0.00071071032)
(-0.11477016 0.13993042 0.0007530747)
(-0.12755181 0.13485286 0.00079726828)
(-0.14009416 0.12787968 0.00084216202)
(-0.15231282 0.11900981 0.00088629883)
(-0.16411777 0.108226 0.0009279222)
(-0.17540752 0.095508603 0.00096501381)