/*--------------------------------*- C++ -*----------------------------------*\
  =========                 |
  \\      /  F ield         | OpenFOAM: The Open Source CFD Toolbox
   \\    /   O peration     | Website:  https://openfoam.org
    \\  /    A nd           | Version:  7
     \\/     M anipulation  |
\*---------------------------------------------------------------------------*/
FoamFile
{
    version     2.0;
    format      ascii;
    class       volScalarField;
    location    "6.9";
    object      p;
}
// * * * * * * * * * * * * * * * * * * * * * * * * * * * * * * * * * * * * * //

dimensions      [1 -1 -2 0 0 0 0];

internalField   nonuniform List<scalar> 
19968
(
1
1
1
1
1
1
1
1
1
1
1
1
1
1
1
1
1
1
1
1
1
1
1
1
1
1
1
1
1
1
1
1
1
1
1
1
1
1
1
1
1
1
1
1
1
1
1
1
1.60456
8.12316
10.4172
10.4264
10.5017
10.5621
10.6278
10.6906
10.7494
10.8059
10.8613
10.9151
10.9667
11.0156
11.0612
11.1052
11.1514
11.201
11.2518
11.3019
11.3501
11.3955
11.4374
11.4756
11.5103
11.5426
11.5744
11.6077
11.6442
11.6835
11.7237
11.762
11.7962
11.8259
11.852
11.8758
11.898
11.9189
11.938
11.9551
11.9705
11.985
11.9986
12.0111
12.0216
12.0292
12.0342
12.0369
1
1
1
1
1
1
1
1
1
1
1
1
1
1
1
1
1
1
1
1
1
1
1
1
1
1
1
1
1
1
1
1
1
1
1
1
1
1
1
1
1
1
1
1
1
1
1
1
1.5664
8.03675
10.4024
10.4359
10.5023
10.5632
10.6272
10.6887
10.7476
10.8045
10.8603
10.9142
10.965
11.0134
11.0584
11.1027
11.1486
11.1978
11.2481
11.298
11.3465
11.3926
11.4352
11.4738
11.5085
11.5406
11.5719
11.6048
11.6405
11.6791
11.7187
11.7566
11.7908
11.8208
11.8472
11.8712
11.8934
11.9139
11.9326
11.9493
11.9646
11.9788
11.9923
12.0045
12.0148
12.0222
12.0271
12.0296
1
1
1
1
1
1
1
1
1
1
1
1
1
1
1
1
1
1
1
1
1
1
1
1
1
1
1
1
1
1
1
1
1
1
1
1
1
1
1
1
1
1
1
1
1
1
1
1
1.48264
7.86077
10.4017
10.4333
10.4968
10.558
10.621
10.6821
10.7412
10.7987
10.8552
10.9091
10.9594
11.0074
11.052
11.0964
11.1421
11.1906
11.2401
11.2896
11.3385
11.3854
11.429
11.4684
11.5036
11.5355
11.5664
11.5986
11.6334
11.671
11.7095
11.7468
11.7809
11.8112
11.8382
11.8625
11.8848
11.905
11.9233
11.9398
11.955
11.9693
11.9827
11.9948
12.0048
12.0119
12.0166
12.019
1
1
1
1
1
1
1
1
1
1
1
1
1
1
1
1
1
1
1
1
1
1
1
1
1
1
1
1
1
1
1
1
1
1
1
1
1
1
1
1
1
1
1
1
1
1
1
1
1.36492
7.58418
10.3962
10.4313
10.4907
10.5526
10.6146
10.6752
10.7341
10.7917
10.8483
10.9021
10.9517
10.9991
11.0431
11.0876
11.133
11.181
11.2297
11.2789
11.3279
11.3756
11.4202
11.4605
11.496
11.5278
11.5581
11.5892
11.6228
11.6588
11.696
11.7324
11.7662
11.7968
11.8242
11.8487
11.8706
11.8902
11.9076
11.9235
11.9384
11.9526
11.9662
11.9783
11.9884
11.9956
12.0002
12.0028
1
1
1
1
1
1
1
1
1
1
1
1
1
1
1
1
1
1
1
1
1
1
1
1
1
1
1
1
1
1
1
1
1
1
1
1
1
1
1
1
1
1
1
1
1
1
1
1
1.22183
7.2267
10.3965
10.4331
10.4868
10.5487
10.6094
10.669
10.7271
10.7842
10.8404
10.8937
10.9423
10.9886
11.0317
11.076
11.1212
11.1687
11.2168
11.2657
11.3146
11.3627
11.4081
11.4493
11.4854
11.5174
11.5472
11.5774
11.6095
11.6441
11.6799
11.7155
11.7492
11.7802
11.8081
11.8329
11.8546
11.8734
11.8898
11.9045
11.9183
11.9316
11.9441
11.9551
11.9641
11.9704
11.9742
11.9765
1
1
1
1
1
1
1
1
1
1
1
1
1
1
1
1
1
1
1
1
1
1
1
1
1
1
1
1
1
1
1
1
1
1
1
1
1
1
1
1
1
1
1
1
1
1
1
1
1.00972
6.69413
10.378
10.436
10.4879
10.55
10.6089
10.6667
10.7231
10.7794
10.835
10.8873
10.9345
10.9786
11.0197
11.0628
11.1072
11.1542
11.2014
11.2491
11.2968
11.3438
11.3887
11.4299
11.466
11.4977
11.5268
11.5557
11.5861
11.6188
11.653
11.6874
11.7206
11.7516
11.7799
11.805
11.8268
11.8453
11.8614
11.8761
11.89
11.9034
11.916
11.9269
11.9354
11.9412
11.9445
11.9465
1
1
1
1
1
1
1
1
1
1
1
1
1
1
1
1
1
1
1
1
1
1
1
1
1
1
1
1
1
1
1
1
1
1
1
1
1
1
1
1
1
1
1
1
1
1
1
1
1.00005
5.98448
10.2749
10.3859
10.4392
10.5048
10.5671
10.628
10.6863
10.7435
10.7995
10.8517
10.8991
10.9429
10.9836
11.0265
11.0708
11.1175
11.1641
11.2112
11.2584
11.3052
11.3502
11.3919
11.4287
11.4611
11.4906
11.5194
11.5492
11.5808
11.6139
11.6475
11.6803
11.7113
11.7398
11.7651
11.787
11.8057
11.8219
11.8366
11.8507
11.8641
11.8765
11.887
11.8947
11.8997
11.9022
11.9039
1
1
1
1
1
1
1
1
1
1
1
1
1
1
1
1
1
1
1
1
1
1
1
1
1
1
1
1
1
1
1
1
1
1
1
1
1
1
1
1
1
1
1
1
1
1
1
1
1
5.09041
10.1252
10.3478
10.4045
10.4725
10.5374
10.6006
10.6602
10.7171
10.7725
10.8242
10.871
10.9136
10.9533
10.9953
11.0389
11.0843
11.1297
11.1752
11.221
11.2667
11.311
11.3524
11.3894
11.422
11.4514
11.4797
11.5083
11.5384
11.5701
11.6026
11.6347
11.6653
11.6934
11.7183
11.7399
11.7584
11.7744
11.7891
11.803
11.8162
11.8281
11.8378
11.8444
11.8484
11.8499
11.8511
1
1
1
1
1
1
1
1
1
1
1
1
1
1
1
1
1
1
1
1
1
1
1
1
1
1
1
1
1
1
1
1
1
1
1
1
1
1
1
1
1
1
1
1
1
1
1
1
1
4.04665
9.85121
10.3053
10.3618
10.4335
10.4996
10.5648
10.6257
10.6829
10.7382
10.79
10.8365
10.8779
10.9161
10.9564
10.9987
11.0422
11.086
11.1292
11.1725
11.2157
11.2582
11.2985
11.3352
11.3677
11.397
11.4246
11.452
11.4806
11.5109
11.5423
11.5736
11.6032
11.6303
11.6543
11.6752
11.6934
11.7095
11.7244
11.7386
11.7519
11.7636
11.7727
11.7786
11.7818
11.7825
11.7835
1
1
1
1
1
1
1
1
1
1
1
1
1
1
1
1
1
1
1
1
1
1
1
1
1
1
1
1
1
1
1
1
1
1
1
1
1
1
1
1
1
1
1
1
1
1
1
1
1
2.93043
9.33559
10.2863
10.3422
10.4141
10.4755
10.5371
10.5953
10.6504
10.7045
10.7559
10.8019
10.8421
10.8786
10.9169
10.9577
10.9995
11.0415
11.0825
11.1227
11.1623
11.2015
11.2396
11.2748
11.3058
11.3332
11.3584
11.3832
11.4091
11.4372
11.4671
11.4971
11.5257
11.5516
11.5747
11.595
11.6129
11.629
11.6437
11.6573
11.6695
11.6798
11.6874
11.6919
11.6943
11.6943
11.6948
1
1
1
1
1
1
1
1
1
1
1
1
1
1
1
1
1
1
1
1
1
1
1
1
1
1
1
1
1
1
1
1
1
1
1
1
1
1
1
1
1
1
1
1
1
1
1
1
1
1.86528
8.4036
10.3221
10.3158
10.3838
10.4336
10.4909
10.5486
10.6044
10.6587
10.7101
10.7555
10.7951
10.8311
10.8688
10.91
10.952
10.9931
11.0323
11.0694
11.1055
11.1417
11.1774
11.2112
11.2408
11.2661
11.2884
11.3098
11.3322
11.3568
11.3832
11.4096
11.4342
11.4559
11.4748
11.4914
11.5066
11.5207
11.534
11.5465
11.5579
11.5676
11.5749
11.5796
11.5825
11.5831
11.5841
1
1
1
1
1
1
1
1
1
1
1
1
1
1
1
1
1
1
1
1
1
1
1
1
1
1
1
1
1
1
1
1
1
1
1
1
1
1
1
1
1
1
1
1
1
1
1
1
1
1.03442
6.73494
10.3462
10.3529
10.3928
10.4334
10.4793
10.5273
10.5754
10.623
10.669
10.7104
10.7466
10.7797
10.8142
10.8525
10.8921
10.9305
10.9664
10.9995
11.0305
11.0619
11.0938
11.1249
11.1524
11.1753
11.1948
11.2131
11.2326
11.2544
11.278
11.3014
11.3225
11.3407
11.3563
11.3704
11.3835
11.396
11.4071
11.4162
11.4225
11.4261
11.4272
11.4267
11.4265
11.4257
11.4262
1
1
1
1
1
1
1
1
1
1
1
1
1
1
1
1
1
1
1
1
1
1
1
1
1
1
1
1
1
1
1
1
1
1
1
1
1
1
1
1
1
1
1
1
1
1
1
1
1
1.00006
4.6164
9.92006
10.2059
10.267
10.3271
10.3806
10.432
10.4813
10.5286
10.5732
10.613
10.6477
10.6796
10.7124
10.7487
10.7876
10.8259
10.8609
10.8927
10.9216
10.95
10.9794
11.0085
11.0348
11.0565
11.0745
11.0908
11.1075
11.126
11.1456
11.1641
11.1796
11.1913
11.1996
11.2059
11.2112
11.2156
11.219
11.2204
11.2201
11.2196
11.2199
11.2204
11.2225
11.2236
11.2258
1
1
1
1
1
1
1
1
1
1
1
1
1
1
1
1
1
1
1
1
1
1
1
1
1
1
1
1
1
1
1
1
1
1
1
1
1
1
1
1
1
1
1
1
1
1
1
1
1
1
2.40099
8.79008
10.1601
10.2027
10.2755
10.3271
10.3757
10.4224
10.4682
10.5116
10.55
10.5828
10.6121
10.6411
10.6729
10.7076
10.7428
10.7747
10.8023
10.8262
10.848
10.8705
10.8934
10.9148
10.9326
10.9469
10.959
10.9705
10.9825
10.9947
11.0053
11.0127
11.0161
11.0153
11.0128
11.0101
11.0076
11.0048
11.0001
10.993
10.9821
10.968
10.9482
10.9257
10.9021
10.8823
1
1
1
1
1
1
1
1
1
1
1
1
1
1
1
1
1
1
1
1
1
1
1
1
1
1
1
1
1
1
1
1
1
1
1
1
1
1
1
1
1
1
1
1
1
1
1
1
1
1
1.05954
6.39327
10.2116
10.2189
10.2451
10.2799
10.3176
10.3552
10.3925
10.4292
10.4628
10.492
10.5176
10.5418
10.5675
10.5958
10.6259
10.655
10.6798
10.7003
10.7164
10.7304
10.7449
10.7594
10.772
10.7821
10.7901
10.7962
10.8007
10.8045
10.8056
10.8029
10.7944
10.7803
10.7624
10.7413
10.7166
10.6877
10.6532
10.6122
10.5653
10.5155
10.4724
10.4352
10.4166
10.4098
1
1
1
1
1
1
1
1
1
1
1
1
1
1
1
1
1
1
1
1
1
1
1
1
1
1
1
1
1
1
1
1
1
1
1
1
1
1
1
1
1
1
1
1
1
1
1
1
1
1
1.00009
3.27436
9.23219
10.0671
10.1052
10.1549
10.1955
10.2358
10.2751
10.3136
10.3489
10.3793
10.4047
10.4263
10.4468
10.4689
10.4931
10.5188
10.5431
10.5625
10.5758
10.5832
10.5869
10.5898
10.5925
10.5947
10.5959
10.5949
10.5914
10.5845
10.5727
10.5549
10.5299
10.498
10.4594
10.4136
10.3604
10.3014
10.2386
10.1738
10.1065
10.036
9.95001
9.86589
9.74832
9.83913
1
1
1
1
1
1
1
1
1
1
1
1
1
1
1
1
1
1
1
1
1
1
1
1
1
1
1
1
1
1
1
1
1
1
1
1
1
1
1
1
1
1
1
1
1
1
1
1
1
1
1
1.20939
7.23583
10.1269
10.1006
10.1277
10.1529
10.1805
10.2084
10.2357
10.2621
10.2865
10.3081
10.3258
10.3403
10.3544
10.3696
10.3874
10.408
10.4274
10.4408
10.4445
10.44
10.4316
10.4229
10.4151
10.4074
10.3982
10.3858
10.3683
10.3437
10.3105
10.2683
10.2173
10.1565
10.0834
9.99503
9.89149
9.77028
9.62929
9.4471
9.20189
8.82826
8.26566
7.33632
5.43749
1
1
1
1
1
1
1
1
1
1
1
1
1
1
1
1
1
1
1
1
1
1
1
1
1
1
1
1
1
1
1
1
1
1
1
1
1
1
1
1
1
1
1
1
1
1
1
1
1
1
1
1.00148
4.57608
9.67775
9.9367
9.99292
10.0287
10.0636
10.0963
10.1253
10.1524
10.178
10.2022
10.2228
10.2376
10.2476
10.2555
10.264
10.2761
10.293
10.3074
10.3122
10.3062
10.2917
10.2739
10.2557
10.2381
10.22
10.1993
10.173
10.138
10.092
10.0343
9.96553
9.88366
9.78588
9.66449
9.51933
9.34104
9.13307
8.86302
8.51554
8.00433
7.33032
6.1113
4.50667
1
1
1
1
1
1
1
1
1
1
1
1
1
1
1
1
1
1
1
1
1
1
1
1
1
1
1
1
1
1
1
1
1
1
1
1
1
1
1
1
1
1
1
1
1
1
1
1
1
1
1
0.999996
1.93798
8.23785
9.89735
9.9223
9.95923
9.99116
10.0218
10.0459
10.0684
10.0906
10.1135
10.1344
10.1495
10.1565
10.1587
10.1588
10.1609
10.1699
10.1804
10.182
10.1731
10.1528
10.1259
10.0972
10.069
10.0402
10.0087
9.9717
9.92552
9.86752
9.79481
9.70829
9.60464
9.4829
9.33239
9.15238
8.93137
8.67075
8.35026
7.93953
7.41264
6.65935
5.65192
4.52073
1
1
1
1
1
1
1
1
1
1
1
1
1
1
1
1
1
1
1
1
1
1
1
1
1
1
1
1
1
1
1
1
1
1
1
1
1
1
1
1
1
1
1
1
1
1
1
1
1
1
1
0.999999
1.032
5.40239
9.75356
9.84798
9.87693
9.90643
9.93756
9.9603
9.98091
10.0004
10.0194
10.0353
10.0459
10.0502
10.0501
10.0472
10.0448
10.0461
10.0485
10.0453
10.032
10.0061
9.97223
9.93514
9.89717
9.85769
9.81441
9.76587
9.70786
9.63858
9.55296
9.4516
9.33017
9.1886
9.01764
8.81376
8.56878
8.27821
7.93376
7.5082
6.98155
6.33769
5.56753
4.70822
1
1
1
1
1
1
1
1
1
1
1
1
1
1
1
1
1
1
1
1
1
1
1
1
1
1
1
1
1
1
1
1
1
1
1
1
1
1
1
1
1
1
1
1
1
1
1
1
1
1
1
1
1
2.23527
8.47143
9.7795
9.79883
9.83123
9.85764
9.88069
9.90085
9.91872
9.936
9.94266
9.9452
9.94494
9.94159
9.93769
9.93427
9.93116
9.92551
9.91516
9.89436
9.86132
9.82079
9.77718
9.73139
9.68311
9.62871
9.56762
9.49625
9.41416
9.31672
9.20359
9.07049
8.91584
8.73311
8.51739
8.26397
7.96642
7.62363
7.20804
6.72932
6.1854
5.59211
4.92254
1
1
1
1
1
1
1
1
1
1
1
1
1
1
1
1
1
1
1
1
1
1
1
1
1
1
1
1
1
1
1
1
1
1
1
1
1
1
1
1
1
1
1
1
1
1
1
1
1
1
1
1
0.999999
1.04973
5.5168
9.64189
9.74403
9.76936
9.78587
9.80363
9.817
9.83341
9.85304
9.85833
9.85642
9.85037
9.84031
9.83105
9.82244
9.81372
9.80132
9.78395
9.75693
9.71904
9.67326
9.62384
9.57071
9.51486
9.45204
9.38084
9.29768
9.2022
9.09246
8.96857
8.82766
8.66664
8.47963
8.26245
8.01289
7.72374
7.39857
7.01617
6.59273
6.13455
5.65387
5.11295
1
1
1
1
1
1
1
1
1
1
1
1
1
1
1
1
1
1
1
1
1
1
1
1
1
1
1
1
1
1
1
1
1
1
1
1
1
1
1
1
1
1
1
1
1
1
1
1
1
1
1
1
1
1.00005
2.07968
8.2546
9.67337
9.69161
9.71022
9.71767
9.72272
9.73403
9.74596
9.74805
9.74809
9.74681
9.7384
9.72678
9.71203
9.69528
9.67395
9.64778
9.61384
9.57308
9.52492
9.47241
9.41429
9.35202
9.28354
9.20622
9.11547
9.00939
8.8884
8.75535
8.60923
8.44641
8.26073
8.04796
7.80974
7.53418
7.23363
6.89405
6.52436
6.12971
5.71978
5.2688
1
1
1
1
1
1
1
1
1
1
1
1
1
1
1
1
1
1
1
1
1
1
1
1
1
1
1
1
1
1
1
1
1
1
1
1
1
1
1
1
1
1
1
1
1
1
1
1
1
1
1
1
1
1
1.03583
4.93625
9.37183
9.61359
9.61172
9.62568
9.63842
9.65532
9.66069
9.65766
9.65359
9.65062
9.64226
9.62887
9.60925
9.58541
9.5557
9.5205
9.47997
9.43571
9.38515
9.32983
9.26687
9.1976
9.12311
9.04146
8.94711
8.83552
8.70727
8.56779
8.41753
8.25364
8.07183
7.86497
7.64121
7.38095
7.1072
6.80873
6.48856
6.14386
5.78782
5.41116
1
1
1
1
1
1
1
1
1
1
1
1
1
1
1
1
1
1
1
1
1
1
1
1
1
1
1
1
1
1
1
1
1
1
1
1
1
1
1
1
1
1
1
1
1
1
1
1
1
1
1
1
1
1
1.00003
1.527
7.5603
9.63845
9.5887
9.57938
9.56664
9.56811
9.56361
9.55588
9.54668
9.53865
9.52857
9.51368
9.49181
9.46553
9.4314
9.3891
9.34388
9.29691
9.24386
9.18756
9.1225
9.04865
8.96886
8.88333
8.78738
8.67549
8.54686
8.40693
8.25647
8.09293
7.91649
7.71454
7.50278
7.25833
7.00938
6.74447
6.46392
6.15823
5.85046
5.52535
1
1
1
1
1
1
1
1
1
1
1
1
1
1
1
1
1
1
1
1
1
1
1
1
1
1
1
1
1
1
1
1
1
1
1
1
1
1
1
1
1
1
1
1
1
1
1
1
1
1
1
1
1
1
1
1.00833
3.9008
8.96294
9.41383
9.442
9.46133
9.4629
9.45355
9.44149
9.4303
9.41979
9.40791
9.39248
9.37064
9.34506
9.31185
9.26622
9.21752
9.16797
9.11224
9.05462
8.98787
8.91118
8.82699
8.73676
8.63721
8.52542
8.40036
8.26453
8.11826
7.95716
7.78622
7.58991
7.38743
7.16106
6.93394
6.69195
6.44315
6.173
5.90526
5.61799
1
1
1
1
1
1
1
1
1
1
1
1
1
1
1
1
1
1
1
1
1
1
1
1
1
1
1
1
1
1
1
1
1
1
1
1
1
1
1
1
1
1
1
1
1
1
1
1
1
1
1
1
1
1
1
1
1.22328
6.22536
9.38707
9.38491
9.38991
9.37381
9.36318
9.34956
9.33713
9.32393
9.3079
9.28894
9.2643
9.23592
9.20413
9.15736
9.10571
9.05224
8.99241
8.93059
8.8601
8.78158
8.69602
8.60211
8.49904
8.38776
8.26881
8.13724
7.99717
7.8408
7.67568
7.48847
7.29594
7.08849
6.87821
6.65302
6.43109
6.19005
5.94642
5.68806
1
1
1
1
1
1
1
1
1
1
1
1
1
1
1
1
1
1
1
1
1
1
1
1
1
1
1
1
1
1
1
1
1
1
1
1
1
1
1
1
1
1
1
1
1
1
1
1
1
1
1
1
1
1
1
1
1.00153
2.15189
7.99207
9.33039
9.25711
9.26713
9.2649
9.25669
9.2448
9.23082
9.21023
9.18527
9.15545
9.1222
9.09112
9.04687
8.99486
8.93805
8.87556
8.80955
8.73592
8.65731
8.57251
8.47865
8.37239
8.26444
8.14709
8.01798
7.88256
7.73373
7.57622
7.40237
7.22239
7.03258
6.83557
6.62768
6.42699
6.20612
5.9773
5.7487
1
1
1
1
1
1
1
1
1
1
1
1
1
1
1
1
1
1
1
1
1
1
1
1
1
1
1
1
1
1
1
1
1
1
1
1
1
1
1
1
1
1
1
1
1
1
1
1
1
1
1
1
1
1
1
1
1
1.03762
4.15032
8.8946
9.16058
9.16898
9.18088
9.17573
9.16482
9.14849
9.12499
9.095
9.0599
9.02019
8.98303
8.94072
8.88758
8.8297
8.76702
8.69872
8.62355
8.544
8.45921
8.36738
8.26331
8.15343
8.03799
7.91258
7.78064
7.63816
7.48824
7.32681
7.15984
6.98535
6.80396
6.61359
6.42545
6.22073
6.00871
5.80413
1
1
1
1
1
1
1
1
1
1
1
1
1
1
1
1
1
1
1
1
1
1
1
1
1
1
1
1
1
1
1
1
1
1
1
1
1
1
1
1
1
1
1
1
1
1
1
1
1
1
1
1
1
1
1
1
1
1.00007
1.25341
5.71646
9.0367
9.15602
9.12616
9.11821
9.10188
9.07739
9.04893
9.01563
8.97703
8.93197
8.88685
8.84135
8.78694
8.72792
8.66567
8.59752
8.52233
8.44132
8.3546
8.26322
8.161
8.05377
7.93991
7.8174
7.68989
7.55307
7.41065
7.2602
7.10399
6.94087
6.77549
6.60008
6.42165
6.23418
6.03939
5.85088
1
1
1
1
1
1
1
1
1
1
1
1
1
1
1
1
1
1
1
1
1
1
1
1
1
1
1
1
1
1
1
1
1
1
1
1
1
1
1
1
1
1
1
1
1
1
1
1
1
1
1
1
1
1
1
1
1
1
1.00202
1.61797
7.27381
9.16737
9.10031
9.0637
9.0216
8.98596
8.953
8.92126
8.88566
8.83973
8.79165
8.74215
8.68667
8.62706
8.56505
8.50064
8.42845
8.34854
8.26083
8.16874
8.06723
7.96328
7.8531
7.73632
7.61418
7.4843
7.34753
7.20607
7.05854
6.9036
6.7499
6.58583
6.41788
6.24539
6.06777
5.89034
1
1
1
1
1
1
1
1
1
1
1
1
1
1
1
1
1
1
1
1
1
1
1
1
1
1
1
1
1
1
1
1
1
1
1
1
1
1
1
1
1
1
1
1
1
1
1
1
1
1
1
1
1
1
1
1
1
1
1
1.01102
3.0408
8.3162
8.95998
8.89722
8.86771
8.84382
8.82403
8.80212
8.77544
8.73784
8.69695
8.64908
8.59441
8.536
8.47268
8.40721
8.33855
8.26036
8.17485
8.08167
7.98553
7.8844
7.77818
7.66648
7.54909
7.42589
7.29492
7.16023
7.01978
6.87262
6.72677
6.57144
6.41304
6.25261
6.08976
5.9223
1
1
1
1
1
1
1
1
1
1
1
1
1
1
1
1
1
1
1
1
1
1
1
1
1
1
1
1
1
1
1
1
1
1
1
1
1
1
1
1
1
1
1
1
1
1
1
1
1
1
1
1
1
1
1
1
1
1
1
1.00001
1.10837
4.36565
8.60922
8.7945
8.76993
8.76863
8.75531
8.73423
8.70714
8.67108
8.63085
8.58215
8.52573
8.46465
8.39927
8.32832
8.25754
8.18346
8.09745
8.00705
7.91184
7.8146
7.71254
7.60594
7.49384
7.37641
7.25249
7.12315
6.98822
6.84952
6.70948
6.56163
6.41168
6.26132
6.1087
5.95092
1
1
1
1
1
1
1
1
1
1
1
1
1
1
1
1
1
1
1
1
1
1
1
1
1
1
1
1
1
1
1
1
1
1
1
1
1
1
1
1
1
1
1
1
1
1
1
1
1
1
1
1
1
1
1
1
1
1
1
1
1.00051
1.29364
5.1989
8.59426
8.72033
8.71656
8.70405
8.6779
8.64664
8.60872
8.56597
8.51613
8.46008
8.39826
8.33178
8.25937
8.18294
8.10882
8.0251
7.93707
7.84449
7.74962
7.65196
7.55031
7.44304
7.33009
7.21248
7.08808
6.95904
6.82894
6.69392
6.55321
6.41143
6.26986
6.12506
5.97753
1
1
1
1
1
1
1
1
1
1
1
1
1
1
1
1
1
1
1
1
1
1
1
1
1
1
1
1
1
1
1
1
1
1
1
1
1
1
1
1
1
1
1
1
1
1
1
1
1
1
1
1
1
1
1
1
1
1
1
1
1
1.00281
1.49159
5.87364
8.58641
8.69326
8.65994
8.62746
8.59082
8.54844
8.50288
8.45356
8.39905
8.33729
8.27025
8.19801
8.1213
8.04475
7.96377
7.87749
7.78702
7.69404
7.59907
7.50083
7.39736
7.28784
7.17464
7.05473
6.93149
6.80814
6.67865
6.54592
6.41341
6.27983
6.14246
6.004
1
1
1
1
1
1
1
1
1
1
1
1
1
1
1
1
1
1
1
1
1
1
1
1
1
1
1
1
1
1
1
1
1
1
1
1
1
1
1
1
1
1
1
1
1
1
1
1
1
1
1
1
1
1
1
1
1
1
1
1
1
1
1.00722
1.71951
6.44336
8.56636
8.61245
8.58051
8.53764
8.49216
8.44176
8.39032
8.33453
8.27377
8.20791
8.13688
8.06277
7.98675
7.90664
7.82185
7.73344
7.64282
7.55005
7.45394
7.35344
7.24716
7.13726
7.02188
6.90417
6.78675
6.66395
6.539
6.4157
6.28917
6.15939
6.0288
1
1
1
1
1
1
1
1
1
1
1
1
1
1
1
1
1
1
1
1
1
1
1
1
1
1
1
1
1
1
1
1
1
1
1
1
1
1
1
1
1
1
1
1
1
1
1
1
1
1
1
1
1
1
1
1
1
1
1
1
1
1
1.00001
1.01463
1.97703
6.87812
8.53659
8.54245
8.5032
8.44896
8.39497
8.33831
8.27698
8.21422
8.14769
8.07761
8.00617
7.93276
7.85585
7.77466
7.68961
7.60118
7.50935
7.4135
7.31403
7.21054
7.10366
6.99278
6.88155
6.77139
6.65479
6.5366
6.42081
6.3001
6.1766
6.05258
1
1
1
1
1
1
1
1
1
1
1
1
1
1
1
1
1
1
1
1
1
1
1
1
1
1
1
1
1
1
1
1
1
1
1
1
1
1
1
1
1
1
1
1
1
1
1
1
1
1
1
1
1
1
1
1
1
1
1
1
1
1
1
1.00003
1.02609
2.23211
7.26516
8.49785
8.45854
8.40771
8.34362
8.28193
8.21864
8.15439
8.0868
8.01862
7.94984
7.8793
7.80572
7.72801
7.64613
7.56002
7.46968
7.37525
7.27789
7.17789
7.07513
6.96922
6.86342
6.75895
6.64828
6.53587
6.42551
6.30905
6.19021
6.07109
1
1
1
1
1
1
1
1
1
1
1
1
1
1
1
1
1
1
1
1
1
1
1
1
1
1
1
1
1
1
1
1
1
1
1
1
1
1
1
1
1
1
1
1
1
1
1
1
1
1
1
1
1
1
1
1
1
1
1
1
1
1
1
1
1.00008
1.04085
2.61699
7.50753
8.38779
8.33472
8.29105
8.22829
8.16302
8.09871
8.03452
7.96999
7.90379
7.83494
7.76256
7.68611
7.60564
7.52101
7.43291
7.34184
7.24797
7.1519
7.05355
6.95241
6.85093
6.75009
6.64371
6.5353
6.42788
6.31451
6.19885
6.08343
1
1
1
1
1
1
1
1
1
1
1
1
1
1
1
1
1
1
1
1
1
1
1
1
1
1
1
1
1
1
1
1
1
1
1
1
1
1
1
1
1
1
1
1
1
1
1
1
1
1
1
1
1
1
1
1
1
1
1
1
1
1
1
1
1
1.00015
1.06923
2.91037
7.56313
8.27285
8.22008
8.16439
8.10987
8.05215
7.99255
7.93013
7.86457
7.79612
7.7242
7.64868
7.56963
7.4872
7.40167
7.31351
7.22279
7.13023
7.0357
6.93857
6.84052
6.74221
6.63853
6.53299
6.42637
6.31609
6.20154
6.08985
1
1
1
1
1
1
1
1
1
1
1
1
1
1
1
1
1
1
1
1
1
1
1
1
1
1
1
1
1
1
1
1
1
1
1
1
1
1
1
1
1
1
1
1
1
1
1
1
1
1
1
1
1
1
1
1
1
1
1
1
1
1
1
1
1
1
1.00032
1.09734
3.01226
7.49241
8.16162
8.11317
8.0646
8.01379
7.95899
7.89919
7.83431
7.76444
7.69121
7.61556
7.53707
7.45604
7.3727
7.28745
7.19984
7.11021
7.01841
6.92384
6.8279
6.73085
6.62924
6.52515
6.4184
6.31131
6.20222
6.09622
1
1
1
1
1
1
1
1
1
1
1
1
1
1
1
1
1
1
1
1
1
1
1
1
1
1
1
1
1
1
1
1
1
1
1
1
1
1
1
1
1
1
1
1
1
1
1
1
1
1
1
1
1
1
1
1
1
1
1
1
1
1
1
1
1
1
1
1.00055
1.11022
2.95671
7.36486
8.07743
8.03451
7.98623
7.92939
7.86808
7.80285
7.73305
7.65991
7.58433
7.50636
7.42683
7.34566
7.26313
7.17828
7.09092
7.00126
6.9083
6.8139
6.71561
6.61564
6.51402
6.41319
6.31333
6.22013
6.14259
1
1
1
1
1
1
1
1
1
1
1
1
1
1
1
1
1
1
1
1
1
1
1
1
1
1
1
1
1
1
1
1
1
1
1
1
1
1
1
1
1
1
1
1
1
1
1
1
1
1
1
1
1
1
1
1
1
1
1
1
1
1
1
1
1
1
1
1
1.00069
1.106
2.87833
7.18683
7.98584
7.95151
7.89296
7.83256
7.76558
7.69776
7.62768
7.55371
7.47766
7.40007
7.32147
7.24078
7.15752
7.07144
6.98152
6.88733
6.79348
6.69798
6.60496
6.51106
6.4334
6.37654
6.34748
6.37344
1
1
1
1
1
1
1
1
1
1
1
1
1
1
1
1
1
1
1
1
1
1
1
1
1
1
1
1
1
1
1
1
1
1
1
1
1
1
1
1
1
1
1
1
1
1
1
1
1
1
1
1
1
1
1
1
1
1
1
1
1
1
1
1
1
1
1
1
1
1.00066
1.09802
2.74824
6.9423
7.88621
7.86071
7.79609
7.73254
7.66401
7.59525
7.52323
7.44984
7.3751
7.29844
7.21884
7.13465
7.04738
6.95814
6.86747
6.77918
6.69206
6.634
6.60057
6.6113
6.69419
6.83792
7.0439
1
1
1
1
1
1
1
1
1
1
1
1
1
1
1
1
1
1
1
1
1
1
1
1
1
1
1
1
1
1
1
1
1
1
1
1
1
1
1
1
1
1
1
1
1
1
1
1
1
1
1
1
1
1
1
1
1
1
1
1
1
1
1
1
1
1
1
1
1
1
1.00059
1.08503
2.56101
6.61894
7.76872
7.76387
7.69706
7.63462
7.56578
7.49543
7.42401
7.35062
7.27442
7.19367
7.11049
7.02395
6.93723
6.86209
6.81725
6.80877
6.86663
7.01404
7.24459
7.4722
7.65825
7.77643
1
1
1
1
1
1
1
1
1
1
1
1
1
1
1
1
1
1
1
1
1
1
1
1
1
1
1
1
1
1
1
1
1
1
1
1
1
1
1
1
1
1
1
1
1
1
1
1
1
1
1
1
1
1
1
1
1
1
1
1
1
1
1
1
1
1
1
1
1
1
1
1.00048
1.06797
2.33253
6.17735
7.64042
7.67648
7.60428
7.53946
7.46864
7.4007
7.3263
7.24759
7.16819
7.08487
7.01941
6.98244
7.00115
7.112
7.32966
7.61835
7.90913
8.14562
8.22407
8.25383
8.21089
1
1
1
1
1
1
1
1
1
1
1
1
1
1
1
1
1
1
1
1
1
1
1
1
1
1
1
1
1
1
1
1
1
1
1
1
1
1
1
1
1
1
1
1
1
1
1
1
1
1
1
1
1
1
1
1
1
1
1
1
1
1
1
1
1
1
1
1
1
1
1
1
1.00035
1.04996
2.07065
5.60637
7.48606
7.60053
7.50754
7.44203
7.36852
7.29463
7.21672
7.15435
7.12801
7.16861
7.33885
7.65025
8.00859
8.32684
8.51458
8.56575
8.59222
8.53938
8.46363
8.35313
1
1
1
1
1
1
1
1
1
1
1
1
1
1
1
1
1
1
1
1
1
1
1
1
1
1
1
1
1
1
1
1
1
1
1
1
1
1
1
1
1
1
1
1
1
1
1
1
1
1
1
1
1
1
1
1
1
1
1
1
1
1
1
1
1
1
1
1
1
1
1
1
1
1.00023
1.03303
1.79873
4.8732
7.30536
7.4971
7.41426
7.34473
7.26765
7.24438
7.32194
7.55025
7.92937
8.38239
8.75261
8.9419
9.02573
8.98214
8.86846
8.77517
8.6855
8.579
8.45114
1
1
1
1
1
1
1
1
1
1
1
1
1
1
1
1
1
1
1
1
1
1
1
1
1
1
1
1
1
1
1
1
1
1
1
1
1
1
1
1
1
1
1
1
1
1
1
1
1
1
1
1
1
1
1
1
1
1
1
1
1
1
1
1
1
1
1
1
1
1
1
1
1
1
1.00012
1.01943
1.534
4.09185
7.0103
7.38423
7.28731
7.42364
7.7406
8.23297
8.75949
9.15499
9.31777
9.33664
9.28798
9.22888
9.12022
8.97969
8.86899
8.78652
8.69399
8.58359
1
1
1
1
1
1
1
1
1
1
1
1
1
1
1
1
1
1
1
1
1
1
1
1
1
1
1
1
1
1
1
1
1
1
1
1
1
1
1
1
1
1
1
1
1
1
1
1
1
1
1
1
1
1
1
1
1
1
1
1
1
1
1
1
1
1
1
1
1
1
1
1
1
1
1
1.00006
1.00972
1.32075
3.3522
6.49758
7.61201
8.53463
9.13922
9.55741
9.74983
9.80919
9.69511
9.53688
9.40978
9.31376
9.19779
9.05332
8.94678
8.88054
8.80819
8.71707
1
1
1
1
1
1
1
1
1
1
1
1
1
1
1
1
1
1
1
1
1
1
1
1
1
1
1
1
1
1
1
1
1
1
1
1
1
1
1
1
1
1
1
1
1
1
1
1
1
1
1
1
1
1
1
1
1
1
1
1
1
1
1
1
1
1
1
1
1
1
1
1
1
1
1
1
1.00002
1.00421
1.17761
2.56832
8.36672
10.2317
10.2384
10.145
10.0395
9.91851
9.74149
9.5893
9.47746
9.39788
9.3109
9.18791
9.09492
9.03654
8.97454
8.88761
1
1
1
1
1
1
1
1
1
1
1
1
1
1
1
1
1
1
1
1
1
1
1
1
1
1
1
1
1
1
1
1
1
1
1
1
1
1
1
1
1
1
1
1
1
1
1
1
1
1
1
1
1
1
1
1
1
1
1
1
1
1
1
1
1
1
1
1
1
1
1
1
1
1
1
1
1
1.00001
1.00185
1.07547
7.45904
10.8001
10.4733
10.2678
10.0825
9.93046
9.80181
9.69249
9.59155
9.5054
9.40257
9.29835
9.21894
9.16253
9.10574
9.02487
1
1
1
1
1
1
1
1
1
1
1
1
1
1
1
1
1
1
1
1
1
1
1
1
1
1
1
1
1
1
1
1
1
1
1
1
1
1
1
1
1
1
1
1
1
1
1
1
1
1
1
1
1
1
1
1
1
1
1
1
1
1
1
1
1
1
1
1
1
1
1
1
1
1
1
1
1
1
1
1.0002
5.48957
10.1553
10.0905
10.0359
9.94689
9.87005
9.79527
9.71242
9.6328
9.56424
9.51592
9.47064
9.40518
9.33564
9.26935
9.18887
1
1
1
1
1
1
1
1
1
1
1
1
1
1
1
1
1
1
1
1
1
1
1
1
1
1
1
1
1
1
1
1
1
1
1
1
1
1
1
1
1
1
1
1
1
1
1
1
1
1
1
1
1
1
1
1
1
1
1
1
1
1
1
1
1
1
1
1
1
1
1
1
1
1
1
1
1
1
1
1
3.12686
9.14508
10.0472
10.0483
10.0184
9.98965
9.94084
9.88621
9.82817
9.77095
9.7121
9.64443
9.57037
9.49216
9.42081
9.34893
1
1
1
1
1
1
1
1
1
1
1
1
1
1
1
1
1
1
1
1
1
1
1
1
1
1
1
1
1
1
1
1
1
1
1
1
1
1
1
1
1
1
1
1
1
1
1
1
1
1
1
1
1
1
1
1
1
1
1
1
1
1
1
1
1
1
1
1
1
1
1
1
1
1
1
1
1
1
1
1
1.43063
7.74915
10.1881
10.0999
10.0684
10.0306
9.98171
9.92883
9.87624
9.82338
9.75846
9.68669
9.61491
9.54325
9.4715
9.39392
1
1
1
1
1
1
1
1
1
1
1
1
1
1
1
1
1
1
1
1
1
1
1
1
1
1
1
1
1
1
1
1
1
1
1
1
1
1
1
1
1
1
1
1
1
1
1
1
1
1
1
1
1
1
1
1
1
1
1
1
1
1
1
1
1
1
1
1
1
1
1
1
1
1
1
1
1
1
1
1
1.00716
5.60941
9.96517
10.0904
10.0674
10.033
9.99161
9.94613
9.89765
9.84604
9.79381
9.74114
9.68767
9.63742
9.5781
9.51727
1
1
1
1
1
1
1
1
1
1
1
1
1
1
1
1
1
1
1
1
1
1
1
1
1
1
1
1
1
1
1
1
1
1
1
1
1
1
1
1
1
1
1
1
1
1
1
1
1
1
1
1
1
1
1
1
1
1
1
1
1
1
1
1
1
1
1
1
1
1
1
1
1
1
1
1
1
1
1
1
0.999993
3.30063
9.29455
10.1383
10.0926
10.06
10.0204
9.9786
9.93551
9.88688
9.83443
9.78262
9.72884
9.67621
9.62508
9.57377
1
1
1
1
1
1
1
1
1
1
1
1
1
1
1
1
1
1
1
1
1
1
1
1
1
1
1
1
1
1
1
1
1
1
1
1
1
1
1
1
1
1
1
1
1
1
1
1
1
1
1
1
1
1
1
1
1
1
1
1
1
1
1
1
1
1
1
1
1
1
1
1
1
1
1
1
1
1
1
1
0.999999
1.6261
8.07172
10.2163
10.1236
10.0695
10.0271
9.98892
9.94961
9.91004
9.87038
9.82883
9.78412
9.73368
9.67903
9.62301
1
1
1
1
1
1
1
1
1
1
1
1
1
1
1
1
1
1
1
1
1
1
1
1
1
1
1
1
1
1
1
1
1
1
1
1
1
1
1
1
1
1
1
1
1
1
1
1
1
1
1
1
1
1
1
1
1
1
1
1
1
1
1
1
1
1
1
1
1
1
1
1
1
1
1
1
1
1
1
1
1
1.0159
6.27344
10.1402
10.1643
10.1117
10.0682
10.0229
9.97819
9.93457
9.89173
9.84835
9.80403
9.76036
9.71596
9.66991
1
1
1
1
1
1
1
1
1
1
1
1
1
1
1
1
1
1
1
1
1
1
1
1
1
1
1
1
1
1
1
1
1
1
1
1
1
1
1
1
1
1
1
1
1
1
1
1
1
1
1
1
1
1
1
1
1
1
1
1
1
1
1
1
1
1
1
1
1
1
1
1
1
1
1
1
1
1
1
1
1
0.999999
4.26378
9.69548
10.105
10.068
10.0498
10.0171
9.98201
9.94422
9.90372
9.86154
9.81759
9.77286
9.72646
9.67799
1
1
1
1
1
1
1
1
1
1
1
1
1
1
1
1
1
1
1
1
1
1
1
1
1
1
1
1
1
1
1
1
1
1
1
1
1
1
1
1
1
1
1
1
1
1
1
1
1
1
1
1
1
1
1
1
1
1
1
1
1
1
1
1
1
1
1
1
1
1
1
1
1
1
1
1
1
1
1
1
1
0.999999
2.53422
8.87109
10.2536
10.1807
10.139
10.0934
10.0501
10.0063
9.96106
9.91557
9.86951
9.82309
9.77564
9.72764
1
1
1
1
1
1
1
1
1
1
1
1
1
1
1
1
1
1
1
1
1
1
1
1
1
1
1
1
1
1
1
1
1
1
1
1
1
1
1
1
1
1
1
1
1
1
1
1
1
1
1
1
1
1
1
1
1
1
1
1
1
1
1
1
1
1
1
1
1
1
1
1
1
1
1
1
1
1
1
1
1
1
1.34612
7.64456
10.312
10.2127
10.1507
10.1082
10.0692
10.0288
9.98635
9.94255
9.89771
9.85205
9.80492
9.75839
1
1
1
1
1
1
1
1
1
1
1
1
1
1
1
1
1
1
1
1
1
1
1
1
1
1
1
1
1
1
1
1
1
1
1
1
1
1
1
1
1
1
1
1
1
1
1
1
1
1
1
1
1
1
1
1
1
1
1
1
1
1
1
1
1
1
1
1
1
1
1
1
1
1
1
1
1
1
1
1
1
1
1.00514
6.16066
10.2083
10.2341
10.1808
10.1422
10.0989
10.0553
10.0117
9.96784
9.92356
9.8788
9.83265
9.78753
1
1
1
1
1
1
1
1
1
1
1
1
1
1
1
1
1
1
1
1
1
1
1
1
1
1
1
1
1
1
1
1
1
1
1
1
1
1
1
1
1
1
1
1
1
1
1
1
1
1
1
1
1
1
1
1
1
1
1
1
1
1
1
1
1
1
1
1
1
1
1
1
1
1
1
1
1
1
1
1
1
1
1
4.58769
9.89031
10.2304
10.1821
10.1538
10.1156
10.0765
10.0359
9.9943
9.95145
9.90741
9.86178
9.81678
1
1
1
1
1
1
1
1
1
1
1
1
1
1
1
1
1
1
1
1
1
1
1
1
1
1
1
1
1
1
1
1
1
1
1
1
1
1
1
1
1
1
1
1
1
1
1
1
1
1
1
1
1
1
1
1
1
1
1
1
1
1
1
1
1
1
1
1
1
1
1
1
1
1
1
1
1
1
1
1
1
1
1
3.19282
9.37452
10.2949
10.2257
10.1911
10.1483
10.1068
10.0636
10.0185
9.97253
9.92697
9.88129
9.83625
1
1
1
1
1
1
1
1
1
1
1
1
1
1
1
1
1
1
1
1
1
1
1
1
1
1
1
1
1
1
1
1
1
1
1
1
1
1
1
1
1
1
1
1
1
1
1
1
1
1
1
1
1
1
1
1
1
1
1
1
1
1
1
1
1
1
1
1
1
1
1
1
1
1
1
1
1
1
1
1
1
1
1
2.07728
8.68146
10.3566
10.2716
10.23
10.1853
10.1422
10.0988
10.0543
10.0093
9.9642
9.91892
9.87318
1
1
1
1
1
1
1
1
1
1
1
1
1
1
1
1
1
1
1
1
1
1
1
1
1
1
1
1
1
1
1
1
1
1
1
1
1
1
1
1
1
1
1
1
1
1
1
1
1
1
1
1
1
1
1
1
1
1
1
1
1
1
1
1
1
1
1
1
1
1
1
1
1
1
1
1
1
1
1
1
1
1
1
1.35374
7.66496
10.404
10.309
10.2512
10.2021
10.1583
10.1147
10.0709
10.0267
9.98228
9.93771
9.89204
1
1
1
1
1
1
1
1
1
1
1
1
1
1
1
1
1
1
1
1
1
1
1
1
1
1
1
1
1
1
1
1
1
1
1
1
1
1
1
1
1
1
1
1
1
1
1
1
1
1
1
1
1
1
1
1
1
1
1
1
1
1
1
1
1
1
1
1
1
1
1
1
1
1
1
1
1
1
1
1
1
1
1
1.00754
6.58305
10.3254
10.3245
10.2621
10.2215
10.1789
10.1357
10.0922
10.0483
10.0037
9.95936
9.91377
1
1
1
1
1
1
1
1
1
1
1
1
1
1
1
1
1
1
1
1
1
1
1
1
1
1
1
1
1
1
1
1
1
1
1
1
1
1
1
1
1
1
1
1
1
1
1
1
1
1
1
1
1
1
1
1
1
1
1
1
1
1
1
1
1
1
1
1
1
1
1
1
1
1
1
1
1
1
1
1
1
1
1
1.00001
5.51374
10.163
10.3078
10.2554
10.2252
10.1861
10.1462
10.1051
10.0627
10.0193
9.97628
9.93219
1
1
1
1
1
1
1
1
1
1
1
1
1
1
1
1
1
1
1
1
1
1
1
1
1
1
1
1
1
1
1
1
1
1
1
1
1
1
1
1
1
1
1
1
1
1
1
1
1
1
1
1
1
1
1
1
1
1
1
1
1
1
1
1
1
1
1
1
1
1
1
1
1
1
1
1
1
1
1
1
1
1
1
1
4.48985
9.95332
10.3321
10.2732
10.2429
10.204
10.1656
10.1264
10.0858
10.0438
10.0015
9.95855
1
1
1
1
1
1
1
1
1
1
1
1
1
1
1
1
1
1
1
1
1
1
1
1
1
1
1
1
1
1
1
1
1
1
1
1
1
1
1
1
1
1
1
1
1
1
1
1
1
1
1
1
1
1
1
1
1
1
1
1
1
1
1
1
1
1
1
1
1
1
1
1
1
1
1
1
1
1
1
1
1
1
1
1
3.61431
9.66879
10.3637
10.29
10.2571
10.2192
10.1825
10.1437
10.1021
10.0588
10.0153
9.97181
1
1
1
1
1
1
1
1
1
1
1
1
1
1
1
1
1
1
1
1
1
1
1
1
1
1
1
1
1
1
1
1
1
1
1
1
1
1
1
1
1
1
1
1
1
1
1
1
1
1
1
1
1
1
1
1
1
1
1
1
1
1
1
1
1
1
1
1
1
1
1
1
1
1
1
1
1
1
1
1
1
1
1
1
2.8796
9.37468
10.3919
10.3088
10.2728
10.2323
10.193
10.1525
10.111
10.0693
10.0272
9.98474
1
1
1
1
1
1
1
1
1
1
1
1
1
1
1
1
1
1
1
1
1
1
1
1
1
1
1
1
1
1
1
1
1
1
1
1
1
1
1
1
1
1
1
1
1
1
1
1
1
1
1
1
1
1
1
1
1
1
1
1
1
1
1
1
1
1
1
1
1
1
1
1
1
1
1
1
1
1
1
1
1
1
1
1
2.32137
9.01448
10.4069
10.3223
10.2844
10.2426
10.2024
10.1615
10.1201
10.0789
10.0373
9.99501
1
1
1
1
1
1
1
1
1
1
1
1
1
1
1
1
1
1
1
1
1
1
1
1
1
1
1
1
1
1
1
1
1
1
1
1
1
1
1
1
1
1
1
1
1
1
1
1
1
1
1
1
1
1
1
1
1
1
1
1
1
1
1
1
1
1
1
1
1
1
1
1
1
1
1
1
1
1
1
1
1
1
1
1
1.93924
8.63348
10.409
10.33
10.2916
10.25
10.2102
10.1699
10.1293
10.0887
10.0473
10.0051
1
1
1
1
1
1
1
1
1
1
1
1
1
1
1
1
1
1
1
1
1
1
1
1
1
1
1
1
1
1
1
1
1
1
1
1
1
1
1
1
1
1
1
1
1
1
1
1
1
1
1
1
1
1
1
1
1
1
1
1
1
1
1
1
1
1
1
1
1
1
1
1
1
1
1
1
1
1
1
1
1
1
1
1
1.68122
8.26906
10.3964
10.3308
10.2936
10.254
10.2156
10.1763
10.1362
10.0957
10.054
10.0112
1
1
1
1
1
1
1
1
1
1
1
1
1
1
1
1
1
1
1
1
1
1
1
1
1
1
1
1
1
1
1
1
1
1
1
1
1
1
1
1
1
1
1
1
1
1
1
1
1
1
1
1
1
1
1
1
1
1
1
1
1
1
1
1
1
1
1
1
1
1
1
1
1
1
1
1
1
1
1
1
1
1
1
1
1.5032
7.94334
10.3798
10.3303
10.2942
10.2566
10.2188
10.1801
10.141
10.1019
10.0618
10.0204
1
1
1
1
1
1
1
1
1
1
1
1
1
1
1
1
1
1
1
1
1
1
1
1
1
1
1
1
1
1
1
1
1
1
1
1
1
1
1
1
1
1
1
1
1
1
1
1
1
1
1
1
1
1
1
1
1
1
1
1
1
1
1
1
1
1
1
1
1
1
1
1
1
1
1
1
1
1
1
1
1
1
1
1
1.3815
7.67289
10.3684
10.3311
10.2941
10.2593
10.2224
10.1844
10.145
10.1052
10.0647
10.0239
1
1
1
1
1
1
1
1
1
1
1
1
1
1
1
1
1
1
1
1
1
1
1
1
1
1
1
1
1
1
1
1
1
1
1
1
1
1
1
1
1
1
1
1
1
1
1
1
1
1
1
1
1
1
1
1
1
1
1
1
1
1
1
1
1
1
1
1
1
1
1
1
1
1
1
1
1
1
1
1
1
1
1
1
1.29913
7.46563
10.3741
10.342
10.2981
10.261
10.2209
10.1815
10.1422
10.104
10.0661
10.0279
1
1
1
1
1
1
1
1
1
1
1
1
1
1
1
1
1
1
1
1
1
1
1
1
1
1
1
1
1
1
1
1
1
1
1
1
1
1
1
1
1
1
1
1
1
1
1
1
1
1
1
1
1
1
1
1
1
1
1
1
1
1
1
1
1
1
1
1
1
1
1
1
1
1
1
1
1
1
1
1
1
1
1
1
1.24508
7.31606
10.3791
10.3406
10.2888
10.2552
10.2202
10.1835
10.1451
10.1068
10.0683
10.0292
1
1
1
1
1
1
1
1
1
1
1
1
1
1
1
1
1
1
1
1
1
1
1
1
1
1
1
1
1
1
1
1
1
1
1
1
1
1
1
1
1
1
1
1
1
1
1
1
1
1
1
1
1
1
1
1
1
1
1
1
1
1
1
1
1
1
1
1
1
1
1
1
1
1
1
1
1
1
1
1
1
1
1
1
1.21442
7.20665
10.3463
10.3346
10.2982
10.2665
10.228
10.1885
10.1487
10.1096
10.0706
10.0314