/*--------------------------------*- C++ -*----------------------------------*\
  =========                 |
  \\      /  F ield         | OpenFOAM: The Open Source CFD Toolbox
   \\    /   O peration     | Website:  https://openfoam.org
    \\  /    A nd           | Version:  7
     \\/     M anipulation  |
\*---------------------------------------------------------------------------*/
FoamFile
{
    version     2.0;
    format      ascii;
    class       volScalarField;
    location    "6.9";
    object      T;
}
// * * * * * * * * * * * * * * * * * * * * * * * * * * * * * * * * * * * * * //

dimensions      [0 0 0 1 0 0 0];

internalField   nonuniform List<scalar> 
19968
(
1
1
1
1
1
1
1
1
1
1
1
1
1
1
1
1
1
1
1
1
1
1
1
1
1
1
1
1
1
1
1
1
1
1
1
1
1
1
1
1
1
1
1
1
1
1
1
1
1.29323
2.47018
2.69225
2.69078
2.6947
2.69859
2.70373
2.70904
2.71402
2.71871
2.72324
2.72746
2.7311
2.73406
2.73646
2.7388
2.74167
2.74532
2.74944
2.75348
2.75701
2.75993
2.76243
2.7648
2.76722
2.76967
2.77207
2.77442
2.77685
2.77944
2.78213
2.78474
2.78708
2.78906
2.79077
2.79232
2.79381
2.79524
2.79656
2.79774
2.79878
2.79974
2.80063
2.80146
2.80217
2.80268
2.80302
2.80319
1
1
1
1
1
1
1
1
1
1
1
1
1
1
1
1
1
1
1
1
1
1
1
1
1
1
1
1
1
1
1
1
1
1
1
1
1
1
1
1
1
1
1
1
1
1
1
1
1.27785
2.46123
2.69208
2.6914
2.69431
2.69835
2.70351
2.70879
2.71381
2.71857
2.72316
2.72736
2.73092
2.73381
2.73618
2.73857
2.74147
2.74512
2.74921
2.75321
2.75674
2.7597
2.76225
2.76466
2.7671
2.76954
2.7719
2.77422
2.7766
2.77913
2.78178
2.78437
2.78671
2.78871
2.79044
2.79201
2.79349
2.7949
2.7962
2.79735
2.79837
2.79932
2.80021
2.80102
2.8017
2.8022
2.80253
2.80271
1
1
1
1
1
1
1
1
1
1
1
1
1
1
1
1
1
1
1
1
1
1
1
1
1
1
1
1
1
1
1
1
1
1
1
1
1
1
1
1
1
1
1
1
1
1
1
1
1.24198
2.44011
2.69208
2.69132
2.69402
2.69801
2.70299
2.70813
2.71316
2.71805
2.72272
2.72689
2.73032
2.73314
2.73552
2.73803
2.74104
2.74472
2.74874
2.75265
2.75614
2.75913
2.76177
2.76428
2.76677
2.76921
2.77155
2.77381
2.77612
2.77857
2.78116
2.78371
2.78604
2.78807
2.78984
2.79143
2.79292
2.79431
2.79558
2.79671
2.79773
2.79868
2.79956
2.80036
2.80103
2.80151
2.80183
2.80199
1
1
1
1
1
1
1
1
1
1
1
1
1
1
1
1
1
1
1
1
1
1
1
1
1
1
1
1
1
1
1
1
1
1
1
1
1
1
1
1
1
1
1
1
1
1
1
1
1.18908
2.40721
2.6908
2.69097
2.69398
2.6982
2.70292
2.70774
2.71256
2.71741
2.72209
2.72618
2.72947
2.73224
2.7347
2.7374
2.74056
2.74428
2.74819
2.75197
2.75537
2.75838
2.76112
2.76375
2.76632
2.76877
2.77105
2.77321
2.77541
2.77777
2.78026
2.78275
2.78507
2.78712
2.78892
2.79052
2.79199
2.79333
2.79454
2.79562
2.79662
2.79756
2.79845
2.79925
2.79993
2.80041
2.80073
2.8009
1
1
1
1
1
1
1
1
1
1
1
1
1
1
1
1
1
1
1
1
1
1
1
1
1
1
1
1
1
1
1
1
1
1
1
1
1
1
1
1
1
1
1
1
1
1
1
1
1.11971
2.36271
2.6884
2.69088
2.69458
2.69895
2.70333
2.70778
2.71226
2.71685
2.72133
2.72527
2.72849
2.73133
2.73396
2.7369
2.7402
2.74389
2.74762
2.75118
2.75444
2.75745
2.76031
2.76308
2.76575
2.76821
2.77043
2.7725
2.77458
2.77682
2.77922
2.78166
2.78397
2.78605
2.78789
2.78952
2.79096
2.79224
2.79337
2.79437
2.79529
2.79615
2.79697
2.7977
2.79829
2.79872
2.79898
2.79913
1
1
1
1
1
1
1
1
1
1
1
1
1
1
1
1
1
1
1
1
1
1
1
1
1
1
1
1
1
1
1
1
1
1
1
1
1
1
1
1
1
1
1
1
1
1
1
1
1.0047
2.29461
2.68449
2.69122
2.6956
2.70017
2.70432
2.70842
2.71253
2.71664
2.72064
2.7243
2.72754
2.7306
2.73356
2.73678
2.74017
2.7437
2.74707
2.75024
2.75324
2.75615
2.75905
2.76193
2.76465
2.76709
2.76922
2.77116
2.77309
2.77519
2.77746
2.77982
2.7821
2.7842
2.78607
2.78771
2.78915
2.79041
2.79151
2.79249
2.79341
2.79428
2.79509
2.7958
2.79636
2.79675
2.79697
2.79711
1
1
1
1
1
1
1
1
1
1
1
1
1
1
1
1
1
1
1
1
1
1
1
1
1
1
1
1
1
1
1
1
1
1
1
1
1
1
1
1
1
1
1
1
1
1
1
1
1.00002
2.20893
2.67731
2.68777
2.69218
2.69714
2.7017
2.70604
2.71008
2.71385
2.71746
2.72094
2.72434
2.72777
2.73118
2.73477
2.73831
2.74171
2.74477
2.74764
2.75046
2.75338
2.75642
2.75946
2.7623
2.76478
2.7669
2.76879
2.77066
2.77268
2.77488
2.77718
2.77945
2.78155
2.78344
2.7851
2.78655
2.7878
2.78889
2.78987
2.79079
2.79165
2.79245
2.79312
2.79363
2.79396
2.79413
2.79424
1
1
1
1
1
1
1
1
1
1
1
1
1
1
1
1
1
1
1
1
1
1
1
1
1
1
1
1
1
1
1
1
1
1
1
1
1
1
1
1
1
1
1
1
1
1
1
1
1
2.08815
2.66728
2.68356
2.68806
2.69345
2.69859
2.70332
2.70741
2.71101
2.71443
2.7178
2.72121
2.72475
2.72835
2.73212
2.73575
2.73908
2.742
2.74471
2.74746
2.75042
2.75356
2.75672
2.75964
2.76214
2.76425
2.76611
2.76792
2.76985
2.77197
2.7742
2.77643
2.77852
2.7804
2.78204
2.78346
2.78468
2.78574
2.78671
2.78761
2.78846
2.78921
2.78982
2.79025
2.7905
2.79059
2.79068
1
1
1
1
1
1
1
1
1
1
1
1
1
1
1
1
1
1
1
1
1
1
1
1
1
1
1
1
1
1
1
1
1
1
1
1
1
1
1
1
1
1
1
1
1
1
1
1
1
1.9191
2.64157
2.67569
2.68092
2.68713
2.69289
2.69829
2.70287
2.70673
2.71025
2.71363
2.71701
2.7205
2.72411
2.72792
2.73162
2.73497
2.7379
2.74059
2.74332
2.74628
2.74946
2.75267
2.75563
2.75818
2.76031
2.76219
2.76399
2.76588
2.76793
2.77012
2.77231
2.77437
2.7762
2.77779
2.77916
2.78035
2.78141
2.78239
2.78331
2.78415
2.78488
2.78544
2.7858
2.786
2.78604
2.7861
1
1
1
1
1
1
1
1
1
1
1
1
1
1
1
1
1
1
1
1
1
1
1
1
1
1
1
1
1
1
1
1
1
1
1
1
1
1
1
1
1
1
1
1
1
1
1
1
1
1.69251
2.58869
2.66951
2.67478
2.68095
2.68645
2.69214
2.69736
2.70177
2.70559
2.70905
2.71234
2.71567
2.71913
2.72288
2.72666
2.73012
2.7332
2.73598
2.73871
2.7416
2.74468
2.74781
2.75073
2.75325
2.75537
2.75721
2.75895
2.76077
2.76275
2.76488
2.76704
2.76908
2.77089
2.77244
2.77378
2.77495
2.776
2.77696
2.77783
2.7786
2.77922
2.77967
2.77993
2.78007
2.78006
2.78009
1
1
1
1
1
1
1
1
1
1
1
1
1
1
1
1
1
1
1
1
1
1
1
1
1
1
1
1
1
1
1
1
1
1
1
1
1
1
1
1
1
1
1
1
1
1
1
1
1
1.38243
2.48283
2.67061
2.67075
2.67615
2.68054
2.68592
2.69141
2.69627
2.70039
2.70393
2.70711
2.71021
2.71346
2.7171
2.72097
2.72464
2.72793
2.73084
2.73356
2.73633
2.73925
2.74226
2.74514
2.74766
2.7498
2.75163
2.75331
2.75502
2.75687
2.75886
2.76085
2.76269
2.76428
2.7656
2.76672
2.76771
2.76863
2.7695
2.77031
2.77102
2.7716
2.77201
2.77228
2.77247
2.77252
2.7726
1
1
1
1
1
1
1
1
1
1
1
1
1
1
1
1
1
1
1
1
1
1
1
1
1
1
1
1
1
1
1
1
1
1
1
1
1
1
1
1
1
1
1
1
1
1
1
1
1
1.01601
2.2984
2.67743
2.67663
2.67869
2.68145
2.68509
2.68909
2.69299
2.69655
2.69975
2.70255
2.70518
2.70792
2.71107
2.71463
2.7182
2.72148
2.72437
2.72696
2.72943
2.73203
2.73478
2.73753
2.74002
2.74217
2.74401
2.74569
2.74736
2.74916
2.75107
2.75297
2.7547
2.75616
2.75735
2.75834
2.75923
2.76007
2.76081
2.76139
2.76175
2.76189
2.76187
2.76178
2.76174
2.7617
2.76174
1
1
1
1
1
1
1
1
1
1
1
1
1
1
1
1
1
1
1
1
1
1
1
1
1
1
1
1
1
1
1
1
1
1
1
1
1
1
1
1
1
1
1
1
1
1
1
1
1
1.00003
2.01573
2.64558
2.66182
2.6663
2.67154
2.67618
2.68038
2.68425
2.68783
2.69107
2.69389
2.69645
2.69902
2.70189
2.70517
2.70866
2.71197
2.71489
2.71747
2.71984
2.72224
2.72481
2.72745
2.72996
2.73217
2.73409
2.7358
2.73747
2.73919
2.74098
2.74271
2.74421
2.74537
2.74618
2.74673
2.74713
2.74746
2.74769
2.74777
2.7477
2.74758
2.74752
2.74743
2.74743
2.74731
2.74736
1
1
1
1
1
1
1
1
1
1
1
1
1
1
1
1
1
1
1
1
1
1
1
1
1
1
1
1
1
1
1
1
1
1
1
1
1
1
1
1
1
1
1
1
1
1
1
1
1
1
1.54508
2.51578
2.64668
2.65464
2.66295
2.66831
2.67281
2.67674
2.68035
2.68373
2.68681
2.68964
2.69235
2.69512
2.69806
2.70114
2.70412
2.70676
2.70905
2.71109
2.71304
2.71512
2.71734
2.71954
2.72153
2.72329
2.72485
2.72628
2.7277
2.72912
2.73046
2.73159
2.73237
2.73266
2.73273
2.73269
2.73262
2.73251
2.73223
2.73175
2.73097
2.72989
2.72816
2.7258
2.7231
2.72096
1
1
1
1
1
1
1
1
1
1
1
1
1
1
1
1
1
1
1
1
1
1
1
1
1
1
1
1
1
1
1
1
1
1
1
1
1
1
1
1
1
1
1
1
1
1
1
1
1
1
1.02774
2.2521
2.65459
2.65372
2.65639
2.66078
2.66494
2.66822
2.67109
2.67398
2.67697
2.68001
2.68298
2.68579
2.68847
2.69107
2.69361
2.69599
2.6981
2.69996
2.70158
2.70311
2.70475
2.70645
2.70809
2.70959
2.71091
2.71205
2.71303
2.71398
2.71479
2.71529
2.7153
2.71495
2.71415
2.71295
2.7114
2.7095
2.70713
2.70423
2.70084
2.69714
2.69365
2.69003
2.68744
2.68619
1
1
1
1
1
1
1
1
1
1
1
1
1
1
1
1
1
1
1
1
1
1
1
1
1
1
1
1
1
1
1
1
1
1
1
1
1
1
1
1
1
1
1
1
1
1
1
1
1
1
1.00005
1.75566
2.55318
2.63253
2.64081
2.64723
2.65138
2.65463
2.65754
2.66058
2.6639
2.66742
2.67094
2.67408
2.67675
2.67907
2.68124
2.68343
2.6856
2.68755
2.68917
2.69039
2.69131
2.6922
2.69314
2.69407
2.69487
2.69546
2.69587
2.69607
2.696
2.69559
2.69462
2.69308
2.69092
2.6881
2.68462
2.6806
2.6762
2.67151
2.66639
2.66091
2.6554
2.65291
2.64975
2.66429
1
1
1
1
1
1
1
1
1
1
1
1
1
1
1
1
1
1
1
1
1
1
1
1
1
1
1
1
1
1
1
1
1
1
1
1
1
1
1
1
1
1
1
1
1
1
1
1
1
1
1
1.09922
2.32837
2.6323
2.63349
2.63741
2.64093
2.64422
2.64707
2.64973
2.65261
2.65592
2.65952
2.66286
2.66547
2.66748
2.6692
2.67099
2.67308
2.67531
2.67723
2.67829
2.67866
2.67889
2.67905
2.6792
2.67926
2.6792
2.67899
2.67846
2.67746
2.6759
2.67371
2.67083
2.66713
2.66238
2.65634
2.649
2.64014
2.6295
2.61523
2.59548
2.56572
2.52274
2.45864
2.3301
1
1
1
1
1
1
1
1
1
1
1
1
1
1
1
1
1
1
1
1
1
1
1
1
1
1
1
1
1
1
1
1
1
1
1
1
1
1
1
1
1
1
1
1
1
1
1
1
1
1
1
1.00079
1.99649
2.60057
2.61512
2.62058
2.62499
2.62926
2.63296
2.63612
2.63932
2.64293
2.64697
2.65085
2.65387
2.65588
2.65734
2.65874
2.66049
2.66282
2.66514
2.6665
2.66685
2.66681
2.66643
2.66579
2.66512
2.66444
2.66363
2.66244
2.66061
2.65802
2.65461
2.65038
2.6451
2.63849
2.6299
2.61926
2.60578
2.58956
2.56776
2.53864
2.49477
2.43606
2.32511
2.16237
1
1
1
1
1
1
1
1
1
1
1
1
1
1
1
1
1
1
1
1
1
1
1
1
1
1
1
1
1
1
1
1
1
1
1
1
1
1
1
1
1
1
1
1
1
1
1
1
1
1
1
0.999999
1.3858
2.4293
2.59861
2.60858
2.61437
2.61787
2.62086
2.62356
2.62658
2.63021
2.63443
2.63871
2.64217
2.64429
2.64567
2.6468
2.64813
2.65026
2.65265
2.65406
2.65448
2.65425
2.65338
2.65206
2.65069
2.64931
2.64775
2.64574
2.64301
2.6394
2.63473
2.62905
2.62202
2.61346
2.60246
2.58885
2.57162
2.55065
2.52394
2.48824
2.44051
2.36812
2.26296
2.1321
1
1
1
1
1
1
1
1
1
1
1
1
1
1
1
1
1
1
1
1
1
1
1
1
1
1
1
1
1
1
1
1
1
1
1
1
1
1
1
1
1
1
1
1
1
1
1
1
1
1
1
1
1.01473
2.11995
2.60266
2.60167
2.60281
2.60503
2.60767
2.61016
2.61311
2.61669
2.62088
2.62512
2.62858
2.63082
2.63227
2.63342
2.63468
2.6365
2.63867
2.64025
2.6407
2.6403
2.63914
2.63741
2.63553
2.63353
2.63119
2.62836
2.62469
2.62012
2.61432
2.60734
2.59874
2.58842
2.57554
2.55968
2.54003
2.51596
2.48641
2.44825
2.39861
2.33369
2.24894
2.14652
1
1
1
1
1
1
1
1
1
1
1
1
1
1
1
1
1
1
1
1
1
1
1
1
1
1
1
1
1
1
1
1
1
1
1
1
1
1
1
1
1
1
1
1
1
1
1
1
1
1
1
1
1.00001
1.47675
2.45477
2.58637
2.5911
2.5945
2.59639
2.59836
2.60094
2.60434
2.6085
2.61207
2.61511
2.61717
2.61836
2.61936
2.6206
2.6223
2.62427
2.62589
2.62618
2.62557
2.62414
2.62221
2.62002
2.61762
2.61467
2.61102
2.60639
2.6008
2.59397
2.58589
2.57617
2.56455
2.55041
2.53318
2.51233
2.48704
2.45689
2.41869
2.37243
2.31661
2.25122
2.17091
1
1
1
1
1
1
1
1
1
1
1
1
1
1
1
1
1
1
1
1
1
1
1
1
1
1
1
1
1
1
1
1
1
1
1
1
1
1
1
1
1
1
1
1
1
1
1
1
1
1
1
1
1
1.02258
2.13344
2.58789
2.58627
2.58613
2.58662
2.58788
2.58975
2.59293
2.59728
2.60067
2.60325
2.60462
2.60492
2.60522
2.60591
2.60723
2.60896
2.61049
2.61072
2.61005
2.60847
2.60637
2.60391
2.60122
2.5979
2.59374
2.58839
2.58186
2.57405
2.565
2.55446
2.54209
2.5273
2.50957
2.48859
2.46346
2.43427
2.39849
2.35702
2.30969
2.25708
2.19364
1
1
1
1
1
1
1
1
1
1
1
1
1
1
1
1
1
1
1
1
1
1
1
1
1
1
1
1
1
1
1
1
1
1
1
1
1
1
1
1
1
1
1
1
1
1
1
1
1
1
1
1
1
1.00003
1.42662
2.42266
2.57162
2.57491
2.57702
2.57799
2.57924
2.58191
2.58549
2.58855
2.59095
2.59213
2.59195
2.59164
2.59159
2.59206
2.59307
2.59412
2.59414
2.59349
2.59191
2.58974
2.58707
2.5841
2.58063
2.57633
2.57074
2.56362
2.55503
2.54524
2.53418
2.52151
2.50662
2.48899
2.46865
2.44428
2.41685
2.38468
2.3482
2.30719
2.26275
2.21111
1
1
1
1
1
1
1
1
1
1
1
1
1
1
1
1
1
1
1
1
1
1
1
1
1
1
1
1
1
1
1
1
1
1
1
1
1
1
1
1
1
1
1
1
1
1
1
1
1
1
1
1
1
1
1.01633
2.04748
2.55875
2.56593
2.56609
2.56772
2.56981
2.57311
2.57623
2.57877
2.58031
2.58078
2.58036
2.5795
2.57857
2.5782
2.57829
2.57842
2.57814
2.57727
2.57555
2.57315
2.57008
2.56659
2.56282
2.55851
2.55303
2.54585
2.53694
2.52674
2.51537
2.50256
2.4879
2.47065
2.45139
2.42814
2.40288
2.37436
2.34263
2.30717
2.26875
2.22631
1
1
1
1
1
1
1
1
1
1
1
1
1
1
1
1
1
1
1
1
1
1
1
1
1
1
1
1
1
1
1
1
1
1
1
1
1
1
1
1
1
1
1
1
1
1
1
1
1
1
1
1
1
1
1.00002
1.23364
2.34599
2.56009
2.55652
2.55771
2.55928
2.56234
2.56534
2.56769
2.56854
2.56851
2.56793
2.56674
2.56533
2.56444
2.56377
2.56303
2.56223
2.56108
2.55908
2.55643
2.55293
2.54888
2.54465
2.54018
2.53489
2.52806
2.51945
2.50945
2.49818
2.48546
2.4713
2.45448
2.43629
2.41443
2.39142
2.36604
2.33824
2.30681
2.27391
2.23777
1
1
1
1
1
1
1
1
1
1
1
1
1
1
1
1
1
1
1
1
1
1
1
1
1
1
1
1
1
1
1
1
1
1
1
1
1
1
1
1
1
1
1
1
1
1
1
1
1
1
1
1
1
1
1
1.0039
1.85947
2.50092
2.53416
2.54094
2.54602
2.54956
2.55239
2.55446
2.55521
2.55516
2.55463
2.55354
2.55215
2.55121
2.55038
2.54909
2.54776
2.54623
2.54381
2.54075
2.53671
2.532
2.52711
2.52217
2.51668
2.51009
2.50205
2.49263
2.48189
2.46948
2.45589
2.43967
2.42244
2.40239
2.38159
2.35857
2.33402
2.30634
2.27799
2.24649
1
1
1
1
1
1
1
1
1
1
1
1
1
1
1
1
1
1
1
1
1
1
1
1
1
1
1
1
1
1
1
1
1
1
1
1
1
1
1
1
1
1
1
1
1
1
1
1
1
1
1
1
1
1
1
1
1.10205
2.19881
2.53186
2.53233
2.53441
2.53636
2.53927
2.54135
2.54235
2.54232
2.54183
2.5409
2.53965
2.53872
2.53809
2.53671
2.53503
2.53302
2.53007
2.52637
2.5216
2.51622
2.51073
2.5051
2.49913
2.49257
2.48515
2.47624
2.46614
2.45421
2.4412
2.42588
2.40972
2.39168
2.37279
2.35173
2.33011
2.30577
2.2803
2.25234
1
1
1
1
1
1
1
1
1
1
1
1
1
1
1
1
1
1
1
1
1
1
1
1
1
1
1
1
1
1
1
1
1
1
1
1
1
1
1
1
1
1
1
1
1
1
1
1
1
1
1
1
1
1
1
1
1.00069
1.43861
2.35663
2.51434
2.51326
2.5181
2.52276
2.52609
2.52786
2.52832
2.52791
2.52705
2.52592
2.52504
2.52484
2.52393
2.52237
2.52009
2.51682
2.51262
2.5073
2.50149
2.49553
2.4894
2.48275
2.47623
2.46884
2.46012
2.45041
2.4391
2.4267
2.41258
2.39765
2.38148
2.3642
2.3452
2.32626
2.30445
2.2809
2.25664
1
1
1
1
1
1
1
1
1
1
1
1
1
1
1
1
1
1
1
1
1
1
1
1
1
1
1
1
1
1
1
1
1
1
1
1
1
1
1
1
1
1
1
1
1
1
1
1
1
1
1
1
1
1
1
1
1
1.01698
1.88621
2.4681
2.49952
2.50458
2.50914
2.51173
2.51346
2.51413
2.51384
2.51306
2.51204
2.51112
2.51094
2.51058
2.50929
2.50713
2.50395
2.49961
2.49411
2.48802
2.48171
2.47531
2.4684
2.46136
2.45388
2.44532
2.43578
2.42488
2.41297
2.39979
2.38595
2.37125
2.35563
2.33873
2.32153
2.30193
2.2806
2.2594
1
1
1
1
1
1
1
1
1
1
1
1
1
1
1
1
1
1
1
1
1
1
1
1
1
1
1
1
1
1
1
1
1
1
1
1
1
1
1
1
1
1
1
1
1
1
1
1
1
1
1
1
1
1
1
1
1
1.00003
1.1151
2.11885
2.48281
2.49927
2.49787
2.49923
2.50012
2.50014
2.49985
2.4992
2.49835
2.49742
2.49699
2.49671
2.49568
2.49376
2.49086
2.48676
2.48144
2.47528
2.46871
2.46212
2.45507
2.44795
2.44037
2.43187
2.42255
2.41195
2.40044
2.38794
2.3748
2.36097
2.34685
2.33157
2.3156
2.29817
2.27927
2.26023
1
1
1
1
1
1
1
1
1
1
1
1
1
1
1
1
1
1
1
1
1
1
1
1
1
1
1
1
1
1
1
1
1
1
1
1
1
1
1
1
1
1
1
1
1
1
1
1
1
1
1
1
1
1
1
1
1
1
1.00089
1.26272
2.2703
2.48269
2.48118
2.48229
2.4823
2.48246
2.4827
2.48303
2.48309
2.48271
2.4824
2.48206
2.48112
2.47942
2.47684
2.47333
2.46854
2.46273
2.45622
2.4496
2.44255
2.4356
2.42822
2.42012
2.41117
2.40105
2.38982
2.37781
2.36508
2.35163
2.33835
2.32403
2.30915
2.29346
2.27675
2.25938
1
1
1
1
1
1
1
1
1
1
1
1
1
1
1
1
1
1
1
1
1
1
1
1
1
1
1
1
1
1
1
1
1
1
1
1
1
1
1
1
1
1
1
1
1
1
1
1
1
1
1
1
1
1
1
1
1
1
1
1.00496
1.65583
2.37766
2.45822
2.45539
2.4567
2.45856
2.46079
2.46293
2.46471
2.46577
2.46666
2.46658
2.46585
2.46443
2.46208
2.45885
2.45475
2.44946
2.44347
2.43703
2.43063
2.42405
2.4171
2.40951
2.40102
2.39148
2.38068
2.36907
2.35666
2.34354
2.3306
2.3168
2.30268
2.28821
2.27316
2.25718
1
1
1
1
1
1
1
1
1
1
1
1
1
1
1
1
1
1
1
1
1
1
1
1
1
1
1
1
1
1
1
1
1
1
1
1
1
1
1
1
1
1
1
1
1
1
1
1
1
1
1
1
1
1
1
1
1
1
1
1.00001
1.04872
1.90735
2.41855
2.44363
2.44278
2.44439
2.44589
2.44747
2.44904
2.45026
2.45137
2.45131
2.45059
2.44917
2.44697
2.44377
2.43999
2.43557
2.43008
2.42436
2.41847
2.41258
2.40629
2.39939
2.39158
2.38271
2.37262
2.36147
2.34941
2.33681
2.32407
2.31066
2.29711
2.2835
2.26945
2.25456
1
1
1
1
1
1
1
1
1
1
1
1
1
1
1
1
1
1
1
1
1
1
1
1
1
1
1
1
1
1
1
1
1
1
1
1
1
1
1
1
1
1
1
1
1
1
1
1
1
1
1
1
1
1
1
1
1
1
1
1
1.00021
1.13155
2.02573
2.41295
2.43424
2.43596
2.43704
2.437
2.43706
2.43702
2.43693
2.43638
2.43527
2.43355
2.43121
2.42809
2.42426
2.42036
2.41563
2.41069
2.40557
2.40039
2.39492
2.38885
2.38183
2.37365
2.36437
2.35384
2.34238
2.33052
2.31809
2.30515
2.29219
2.27929
2.26596
2.25214
1
1
1
1
1
1
1
1
1
1
1
1
1
1
1
1
1
1
1
1
1
1
1
1
1
1
1
1
1
1
1
1
1
1
1
1
1
1
1
1
1
1
1
1
1
1
1
1
1
1
1
1
1
1
1
1
1
1
1
1
1
1.00121
1.21166
2.10332
2.39789
2.42827
2.42742
2.42732
2.42683
2.42584
2.42466
2.42331
2.42155
2.41918
2.41633
2.41297
2.40913
2.40527
2.40113
2.39676
2.39226
2.38768
2.38288
2.37754
2.37124
2.36375
2.35521
2.3454
2.33473
2.32367
2.31187
2.29973
2.28767
2.27553
2.26296
2.25014
1
1
1
1
1
1
1
1
1
1
1
1
1
1
1
1
1
1
1
1
1
1
1
1
1
1
1
1
1
1
1
1
1
1
1
1
1
1
1
1
1
1
1
1
1
1
1
1
1
1
1
1
1
1
1
1
1
1
1
1
1
1
1.00315
1.29439
2.15408
2.38922
2.40991
2.41299
2.41342
2.41312
2.41211
2.41066
2.40856
2.40589
2.40269
2.39905
2.39519
2.39127
2.38722
2.38304
2.37882
2.37457
2.37013
2.36516
2.35936
2.35245
2.34456
2.33553
2.32574
2.31567
2.30486
2.29375
2.28279
2.27152
2.25987
2.24805
1
1
1
1
1
1
1
1
1
1
1
1
1
1
1
1
1
1
1
1
1
1
1
1
1
1
1
1
1
1
1
1
1
1
1
1
1
1
1
1
1
1
1
1
1
1
1
1
1
1
1
1
1
1
1
1
1
1
1
1
1
1
1
1.00641
1.37616
2.19307
2.37576
2.39047
2.39494
2.39618
2.39633
2.39569
2.39421
2.39212
2.3893
2.38593
2.38232
2.3786
2.37473
2.37072
2.3666
2.36229
2.35768
2.35254
2.34676
2.34023
2.3329
2.32471
2.31604
2.30711
2.2973
2.28721
2.27734
2.26698
2.25629
2.24546
1
1
1
1
1
1
1
1
1
1
1
1
1
1
1
1
1
1
1
1
1
1
1
1
1
1
1
1
1
1
1
1
1
1
1
1
1
1
1
1
1
1
1
1
1
1
1
1
1
1
1
1
1
1
1
1
1
1
1
1
1
1
1
1.00001
1.0115
1.44868
2.2242
2.366
2.37027
2.37343
2.37483
2.37581
2.37565
2.37484
2.37325
2.3711
2.36852
2.36558
2.3623
2.35868
2.35472
2.35037
2.34555
2.34022
2.33443
2.32811
2.32121
2.31364
2.30572
2.29764
2.28878
2.27965
2.27073
2.26122
2.25143
2.24151
1
1
1
1
1
1
1
1
1
1
1
1
1
1
1
1
1
1
1
1
1
1
1
1
1
1
1
1
1
1
1
1
1
1
1
1
1
1
1
1
1
1
1
1
1
1
1
1
1
1
1
1
1
1
1
1
1
1
1
1
1
1
1
1
1.00003
1.01808
1.54519
2.24999
2.35353
2.35246
2.3538
2.35403
2.35434
2.35464
2.3545
2.35392
2.35274
2.35093
2.34852
2.34555
2.34204
2.33798
2.33341
2.32833
2.32273
2.31665
2.31008
2.30295
2.29552
2.28795
2.27973
2.27129
2.26299
2.25414
2.24504
2.23589
1
1
1
1
1
1
1
1
1
1
1
1
1
1
1
1
1
1
1
1
1
1
1
1
1
1
1
1
1
1
1
1
1
1
1
1
1
1
1
1
1
1
1
1
1
1
1
1
1
1
1
1
1
1
1
1
1
1
1
1
1
1
1
1
1
1.00005
1.03077
1.61164
2.26105
2.3406
2.33799
2.33653
2.33593
2.33565
2.33561
2.33545
2.33497
2.33406
2.33261
2.33055
2.32788
2.32457
2.32063
2.31609
2.31098
2.30536
2.29925
2.2926
2.2856
2.27839
2.27056
2.26255
2.25449
2.24613
2.23733
2.22877
1
1
1
1
1
1
1
1
1
1
1
1
1
1
1
1
1
1
1
1
1
1
1
1
1
1
1
1
1
1
1
1
1
1
1
1
1
1
1
1
1
1
1
1
1
1
1
1
1
1
1
1
1
1
1
1
1
1
1
1
1
1
1
1
1
1
1.00012
1.04328
1.63316
2.25468
2.32822
2.32546
2.32359
2.32208
2.32077
2.31952
2.31826
2.31686
2.31532
2.31357
2.31145
2.30888
2.30578
2.30216
2.29794
2.29315
2.28778
2.28177
2.2753
2.26847
2.26105
2.25332
2.24534
2.23731
2.22898
2.22099
1
1
1
1
1
1
1
1
1
1
1
1
1
1
1
1
1
1
1
1
1
1
1
1
1
1
1
1
1
1
1
1
1
1
1
1
1
1
1
1
1
1
1
1
1
1
1
1
1
1
1
1
1
1
1
1
1
1
1
1
1
1
1
1
1
1
1
1.00021
1.04886
1.62008
2.23776
2.31733
2.31517
2.31301
2.31042
2.30772
2.30501
2.30227
2.29961
2.29707
2.29456
2.29202
2.28934
2.28641
2.28306
2.27917
2.27472
2.26956
2.26385
2.25742
2.25058
2.24324
2.23591
2.22869
2.22213
2.2166
1
1
1
1
1
1
1
1
1
1
1
1
1
1
1
1
1
1
1
1
1
1
1
1
1
1
1
1
1
1
1
1
1
1
1
1
1
1
1
1
1
1
1
1
1
1
1
1
1
1
1
1
1
1
1
1
1
1
1
1
1
1
1
1
1
1
1
1
1.00026
1.04682
1.60177
2.21646
2.30537
2.30403
2.30112
2.29806
2.2945
2.291
2.28745
2.28381
2.28031
2.27698
2.27384
2.2707
2.26743
2.26388
2.25983
2.25513
2.2501
2.24432
2.2386
2.23249
2.22778
2.22558
2.2272
2.23199
1
1
1
1
1
1
1
1
1
1
1
1
1
1
1
1
1
1
1
1
1
1
1
1
1
1
1
1
1
1
1
1
1
1
1
1
1
1
1
1
1
1
1
1
1
1
1
1
1
1
1
1
1
1
1
1
1
1
1
1
1
1
1
1
1
1
1
1
1
1.00025
1.04319
1.57145
2.18796
2.29227
2.29181
2.28868
2.28535
2.28152
2.27767
2.27356
2.26943
2.26536
2.26135
2.25734
2.25316
2.24893
2.24452
2.23986
2.23547
2.23065
2.22863
2.23089
2.23507
2.24654
2.26392
2.2866
1
1
1
1
1
1
1
1
1
1
1
1
1
1
1
1
1
1
1
1
1
1
1
1
1
1
1
1
1
1
1
1
1
1
1
1
1
1
1
1
1
1
1
1
1
1
1
1
1
1
1
1
1
1
1
1
1
1
1
1
1
1
1
1
1
1
1
1
1
1
1.00022
1.03731
1.5264
2.15133
2.27473
2.27905
2.27582
2.27261
2.26877
2.26471
2.26051
2.25613
2.25153
2.24666
2.24155
2.23629
2.23129
2.22644
2.22685
2.23092
2.24003
2.25747
2.28195
2.30574
2.326
2.33943
1
1
1
1
1
1
1
1
1
1
1
1
1
1
1
1
1
1
1
1
1
1
1
1
1
1
1
1
1
1
1
1
1
1
1
1
1
1
1
1
1
1
1
1
1
1
1
1
1
1
1
1
1
1
1
1
1
1
1
1
1
1
1
1
1
1
1
1
1
1
1
1.00018
1.02962
1.46874
2.09868
2.25286
2.26723
2.26318
2.25988
2.25599
2.25218
2.24772
2.24274
2.23748
2.2319
2.22689
2.22777
2.23172
2.24489
2.26715
2.29547
2.32334
2.34669
2.3562
2.36421
2.36256
1
1
1
1
1
1
1
1
1
1
1
1
1
1
1
1
1
1
1
1
1
1
1
1
1
1
1
1
1
1
1
1
1
1
1
1
1
1
1
1
1
1
1
1
1
1
1
1
1
1
1
1
1
1
1
1
1
1
1
1
1
1
1
1
1
1
1
1
1
1
1
1
1.00012
1.02161
1.39686
2.02391
2.22636
2.25575
2.2494
2.24634
2.24249
2.23808
2.23332
2.22881
2.23008
2.23545
2.25295
2.28212
2.31445
2.34289
2.36076
2.36737
2.37313
2.37021
2.36616
2.35991
1
1
1
1
1
1
1
1
1
1
1
1
1
1
1
1
1
1
1
1
1
1
1
1
1
1
1
1
1
1
1
1
1
1
1
1
1
1
1
1
1
1
1
1
1
1
1
1
1
1
1
1
1
1
1
1
1
1
1
1
1
1
1
1
1
1
1
1
1
1
1
1
1
1.00008
1.01415
1.31287
1.91749
2.19603
2.23853
2.23399
2.2309
2.22627
2.22801
2.23761
2.26058
2.29553
2.33513
2.36692
2.38305
2.39295
2.39081
2.38359
2.37804
2.37278
2.36623
2.35808
1
1
1
1
1
1
1
1
1
1
1
1
1
1
1
1
1
1
1
1
1
1
1
1
1
1
1
1
1
1
1
1
1
1
1
1
1
1
1
1
1
1
1
1
1
1
1
1
1
1
1
1
1
1
1
1
1
1
1
1
1
1
1
1
1
1
1
1
1
1
1
1
1
1
1.00004
1.00822
1.21929
1.7927
2.15303
2.21736
2.21192
2.22791
2.25938
2.3035
2.34823
2.38202
2.39659
2.40233
2.39958
2.39658
2.39
2.38124
2.375
2.3708
2.3658
2.35938
1
1
1
1
1
1
1
1
1
1
1
1
1
1
1
1
1
1
1
1
1
1
1
1
1
1
1
1
1
1
1
1
1
1
1
1
1
1
1
1
1
1
1
1
1
1
1
1
1
1
1
1
1
1
1
1
1
1
1
1
1
1
1
1
1
1
1
1
1
1
1
1
1
1
1
1.00002
1.00402
1.13564
1.6608
2.0963
2.21653
2.29647
2.34555
2.37994
2.39709
2.40865
2.40227
2.39506
2.39028
2.38728
2.38218
2.37421
2.36875
2.36627
2.36333
2.35882
1
1
1
1
1
1
1
1
1
1
1
1
1
1
1
1
1
1
1
1
1
1
1
1
1
1
1
1
1
1
1
1
1
1
1
1
1
1
1
1
1
1
1
1
1
1
1
1
1
1
1
1
1
1
1
1
1
1
1
1
1
1
1
1
1
1
1
1
1
1
1
1
1
1
1
1
1.00001
1.00168
1.07559
1.49655
2.2526
2.41009
2.41649
2.41314
2.40893
2.40417
2.39535
2.38735
2.38196
2.37897
2.37557
2.36969
2.36623
2.36504
2.3634
2.35962
1
1
1
1
1
1
1
1
1
1
1
1
1
1
1
1
1
1
1
1
1
1
1
1
1
1
1
1
1
1
1
1
1
1
1
1
1
1
1
1
1
1
1
1
1
1
1
1
1
1
1
1
1
1
1
1
1
1
1
1
1
1
1
1
1
1
1
1
1
1
1
1
1
1
1
1
1
1
1.00068
1.03172
2.30193
2.56688
2.52961
2.49357
2.46197
2.43716
2.41952
2.40652
2.396
2.3879
2.37975
2.37268
2.36824
2.36564
2.36299
2.35884
1
1
1
1
1
1
1
1
1
1
1
1
1
1
1
1
1
1
1
1
1
1
1
1
1
1
1
1
1
1
1
1
1
1
1
1
1
1
1
1
1
1
1
1
1
1
1
1
1
1
1
1
1
1
1
1
1
1
1
1
1
1
1
1
1
1
1
1
1
1
1
1
1
1
1
1
1
1
1
1.00009
2.15706
2.6281
2.60304
2.57352
2.54141
2.51132
2.48394
2.45981
2.44002
2.42383
2.4119
2.40209
2.39247
2.38395
2.37677
2.36971
1
1
1
1
1
1
1
1
1
1
1
1
1
1
1
1
1
1
1
1
1
1
1
1
1
1
1
1
1
1
1
1
1
1
1
1
1
1
1
1
1
1
1
1
1
1
1
1
1
1
1
1
1
1
1
1
1
1
1
1
1
1
1
1
1
1
1
1
1
1
1
1
1
1
1
1
1
1
1
1
1.74272
2.57736
2.63744
2.62964
2.61504
2.59695
2.57499
2.55138
2.52779
2.50536
2.48438
2.4653
2.44794
2.43187
2.41825
2.40594
1
1
1
1
1
1
1
1
1
1
1
1
1
1
1
1
1
1
1
1
1
1
1
1
1
1
1
1
1
1
1
1
1
1
1
1
1
1
1
1
1
1
1
1
1
1
1
1
1
1
1
1
1
1
1
1
1
1
1
1
1
1
1
1
1
1
1
1
1
1
1
1
1
1
1
1
1
1
1
1
1.20258
2.4037
2.65463
2.64789
2.64311
2.63623
2.62603
2.61252
2.59671
2.57895
2.5588
2.5377
2.517
2.49708
2.4782
2.45966
1
1
1
1
1
1
1
1
1
1
1
1
1
1
1
1
1
1
1
1
1
1
1
1
1
1
1
1
1
1
1
1
1
1
1
1
1
1
1
1
1
1
1
1
1
1
1
1
1
1
1
1
1
1
1
1
1
1
1
1
1
1
1
1
1
1
1
1
1
1
1
1
1
1
1
1
1
1
1
1
1.0035
2.16179
2.64663
2.64888
2.64693
2.64381
2.63963
2.63428
2.62746
2.6187
2.60797
2.59544
2.58141
2.56676
2.55047
2.53327
1
1
1
1
1
1
1
1
1
1
1
1
1
1
1
1
1
1
1
1
1
1
1
1
1
1
1
1
1
1
1
1
1
1
1
1
1
1
1
1
1
1
1
1
1
1
1
1
1
1
1
1
1
1
1
1
1
1
1
1
1
1
1
1
1
1
1
1
1
1
1
1
1
1
1
1
1
1
1
1
1
1.7679
2.5746
2.64844
2.64521
2.64341
2.6411
2.63839
2.6351
2.63073
2.62567
2.62004
2.61332
2.60534
2.59603
2.58545
1
1
1
1
1
1
1
1
1
1
1
1
1
1
1
1
1
1
1
1
1
1
1
1
1
1
1
1
1
1
1
1
1
1
1
1
1
1
1
1
1
1
1
1
1
1
1
1
1
1
1
1
1
1
1
1
1
1
1
1
1
1
1
1
1
1
1
1
1
1
1
1
1
1
1
1
1
1
1
1
1
1.28288
2.42272
2.6457
2.64161
2.64041
2.63893
2.63701
2.63454
2.63207
2.6297
2.6271
2.62393
2.61971
2.61474
2.60926
1
1
1
1
1
1
1
1
1
1
1
1
1
1
1
1
1
1
1
1
1
1
1
1
1
1
1
1
1
1
1
1
1
1
1
1
1
1
1
1
1
1
1
1
1
1
1
1
1
1
1
1
1
1
1
1
1
1
1
1
1
1
1
1
1
1
1
1
1
1
1
1
1
1
1
1
1
1
1
1
1
1.00753
2.24237
2.65433
2.65226
2.64679
2.64294
2.63928
2.63578
2.63271
2.62984
2.62703
2.62427
2.62181
2.61936
2.61663
1
1
1
1
1
1
1
1
1
1
1
1
1
1
1
1
1
1
1
1
1
1
1
1
1
1
1
1
1
1
1
1
1
1
1
1
1
1
1
1
1
1
1
1
1
1
1
1
1
1
1
1
1
1
1
1
1
1
1
1
1
1
1
1
1
1
1
1
1
1
1
1
1
1
1
1
1
1
1
1
1
1
1.9591
2.62829
2.65194
2.64823
2.64533
2.6413
2.63731
2.63343
2.62977
2.62647
2.62351
2.62086
2.61828
2.61558
1
1
1
1
1
1
1
1
1
1
1
1
1
1
1
1
1
1
1
1
1
1
1
1
1
1
1
1
1
1
1
1
1
1
1
1
1
1
1
1
1
1
1
1
1
1
1
1
1
1
1
1
1
1
1
1
1
1
1
1
1
1
1
1
1
1
1
1
1
1
1
1
1
1
1
1
1
1
1
1
1
1
1.58442
2.5318
2.66122
2.65617
2.65307
2.64894
2.64448
2.63973
2.63504
2.63085
2.62715
2.62391
2.62093
2.61809
1
1
1
1
1
1
1
1
1
1
1
1
1
1
1
1
1
1
1
1
1
1
1
1
1
1
1
1
1
1
1
1
1
1
1
1
1
1
1
1
1
1
1
1
1
1
1
1
1
1
1
1
1
1
1
1
1
1
1
1
1
1
1
1
1
1
1
1
1
1
1
1
1
1
1
1
1
1
1
1
1
1
1.16931
2.38649
2.66178
2.65625
2.6535
2.65123
2.64843
2.64491
2.64082
2.6365
2.63226
2.62827
2.6245
2.62105
1
1
1
1
1
1
1
1
1
1
1
1
1
1
1
1
1
1
1
1
1
1
1
1
1
1
1
1
1
1
1
1
1
1
1
1
1
1
1
1
1
1
1
1
1
1
1
1
1
1
1
1
1
1
1
1
1
1
1
1
1
1
1
1
1
1
1
1
1
1
1
1
1
1
1
1
1
1
1
1
1
1
1.00257
2.23073
2.66654
2.66486
2.65989
2.65702
2.65386
2.65043
2.64662
2.64247
2.63815
2.63384
2.62957
2.62556
1
1
1
1
1
1
1
1
1
1
1
1
1
1
1
1
1
1
1
1
1
1
1
1
1
1
1
1
1
1
1
1
1
1
1
1
1
1
1
1
1
1
1
1
1
1
1
1
1
1
1
1
1
1
1
1
1
1
1
1
1
1
1
1
1
1
1
1
1
1
1
1
1
1
1
1
1
1
1
1
1
1
1
2.01248
2.64892
2.66994
2.66547
2.66237
2.6587
2.65497
2.65113
2.64716
2.64307
2.63889
2.63464
2.63053
1
1
1
1
1
1
1
1
1
1
1
1
1
1
1
1
1
1
1
1
1
1
1
1
1
1
1
1
1
1
1
1
1
1
1
1
1
1
1
1
1
1
1
1
1
1
1
1
1
1
1
1
1
1
1
1
1
1
1
1
1
1
1
1
1
1
1
1
1
1
1
1
1
1
1
1
1
1
1
1
1
1
1
1.75157
2.59522
2.67425
2.66858
2.66531
2.66147
2.65765
2.6537
2.64965
2.64561
2.64168
2.63782
2.63406
1
1
1
1
1
1
1
1
1
1
1
1
1
1
1
1
1
1
1
1
1
1
1
1
1
1
1
1
1
1
1
1
1
1
1
1
1
1
1
1
1
1
1
1
1
1
1
1
1
1
1
1
1
1
1
1
1
1
1
1
1
1
1
1
1
1
1
1
1
1
1
1
1
1
1
1
1
1
1
1
1
1
1
1.45444
2.51092
2.67253
2.66692
2.66467
2.66187
2.65892
2.65568
2.6522
2.64864
2.6451
2.64161
2.63816
1
1
1
1
1
1
1
1
1
1
1
1
1
1
1
1
1
1
1
1
1
1
1
1
1
1
1
1
1
1
1
1
1
1
1
1
1
1
1
1
1
1
1
1
1
1
1
1
1
1
1
1
1
1
1
1
1
1
1
1
1
1
1
1
1
1
1
1
1
1
1
1
1
1
1
1
1
1
1
1
1
1
1
1.179
2.40061
2.67601
2.66976
2.66621
2.66313
2.66026
2.6572
2.65397
2.65065
2.64732
2.64404
2.64076
1
1
1
1
1
1
1
1
1
1
1
1
1
1
1
1
1
1
1
1
1
1
1
1
1
1
1
1
1
1
1
1
1
1
1
1
1
1
1
1
1
1
1
1
1
1
1
1
1
1
1
1
1
1
1
1
1
1
1
1
1
1
1
1
1
1
1
1
1
1
1
1
1
1
1
1
1
1
1
1
1
1
1
1.00374
2.283
2.67846
2.67723
2.6715
2.66798
2.66453
2.66115
2.65781
2.65448
2.65116
2.64791
2.64465
1
1
1
1
1
1
1
1
1
1
1
1
1
1
1
1
1
1
1
1
1
1
1
1
1
1
1
1
1
1
1
1
1
1
1
1
1
1
1
1
1
1
1
1
1
1
1
1
1
1
1
1
1
1
1
1
1
1
1
1
1
1
1
1
1
1
1
1
1
1
1
1
1
1
1
1
1
1
1
1
1
1
1
1
2.14755
2.67085
2.67925
2.67507
2.67226
2.66884
2.66551
2.66223
2.65897
2.6557
2.65253
2.64929
1
1
1
1
1
1
1
1
1
1
1
1
1
1
1
1
1
1
1
1
1
1
1
1
1
1
1
1
1
1
1
1
1
1
1
1
1
1
1
1
1
1
1
1
1
1
1
1
1
1
1
1
1
1
1
1
1
1
1
1
1
1
1
1
1
1
1
1
1
1
1
1
1
1
1
1
1
1
1
1
1
1
1
1
1.99371
2.6506
2.68206
2.67759
2.67515
2.67206
2.66906
2.66603
2.66295
2.65979
2.65663
2.65339
1
1
1
1
1
1
1
1
1
1
1
1
1
1
1
1
1
1
1
1
1
1
1
1
1
1
1
1
1
1
1
1
1
1
1
1
1
1
1
1
1
1
1
1
1
1
1
1
1
1
1
1
1
1
1
1
1
1
1
1
1
1
1
1
1
1
1
1
1
1
1
1
1
1
1
1
1
1
1
1
1
1
1
1
1.83902
2.62278
2.68367
2.67814
2.67569
2.67293
2.67028
2.66745
2.6644
2.6612
2.65792
2.65458
1
1
1
1
1
1
1
1
1
1
1
1
1
1
1
1
1
1
1
1
1
1
1
1
1
1
1
1
1
1
1
1
1
1
1
1
1
1
1
1
1
1
1
1
1
1
1
1
1
1
1
1
1
1
1
1
1
1
1
1
1
1
1
1
1
1
1
1
1
1
1
1
1
1
1
1
1
1
1
1
1
1
1
1
1.68194
2.5938
2.68488
2.67867
2.67605
2.67319
2.67047
2.66766
2.66471
2.66164
2.65846
2.65515
1
1
1
1
1
1
1
1
1
1
1
1
1
1
1
1
1
1
1
1
1
1
1
1
1
1
1
1
1
1
1
1
1
1
1
1
1
1
1
1
1
1
1
1
1
1
1
1
1
1
1
1
1
1
1
1
1
1
1
1
1
1
1
1
1
1
1
1
1
1
1
1
1
1
1
1
1
1
1
1
1
1
1
1
1.53548
2.55744
2.68616
2.67985
2.67709
2.67408
2.67123
2.66831
2.66527
2.66212
2.65884
2.65546
1
1
1
1
1
1
1
1
1
1
1
1
1
1
1
1
1
1
1
1
1
1
1
1
1
1
1
1
1
1
1
1
1
1
1
1
1
1
1
1
1
1
1
1
1
1
1
1
1
1
1
1
1
1
1
1
1
1
1
1
1
1
1
1
1
1
1
1
1
1
1
1
1
1
1
1
1
1
1
1
1
1
1
1
1.41636
2.51937
2.68726
2.68143
2.67857
2.67544
2.67239
2.66924
2.666
2.66271
2.65934
2.65592
1
1
1
1
1
1
1
1
1
1
1
1
1
1
1
1
1
1
1
1
1
1
1
1
1
1
1
1
1
1
1
1
1
1
1
1
1
1
1
1
1
1
1
1
1
1
1
1
1
1
1
1
1
1
1
1
1
1
1
1
1
1
1
1
1
1
1
1
1
1
1
1
1
1
1
1
1
1
1
1
1
1
1
1
1.32319
2.48158
2.68711
2.68221
2.6793
2.67615
2.67299
2.6697
2.66635
2.66302
2.65963
2.65618
1
1
1
1
1
1
1
1
1
1
1
1
1
1
1
1
1
1
1
1
1
1
1
1
1
1
1
1
1
1
1
1
1
1
1
1
1
1
1
1
1
1
1
1
1
1
1
1
1
1
1
1
1
1
1
1
1
1
1
1
1
1
1
1
1
1
1
1
1
1
1
1
1
1
1
1
1
1
1
1
1
1
1
1
1.25098
2.44603
2.68591
2.68207
2.67912
2.67596
2.67274
2.66949
2.66628
2.66316
2.66
2.65676
1
1
1
1
1
1
1
1
1
1
1
1
1
1
1
1
1
1
1
1
1
1
1
1
1
1
1
1
1
1
1
1
1
1
1
1
1
1
1
1
1
1
1
1
1
1
1
1
1
1
1
1
1
1
1
1
1
1
1
1
1
1
1
1
1
1
1
1
1
1
1
1
1
1
1
1
1
1
1
1
1
1
1
1
1.19734
2.41536
2.68431
2.68137
2.67833
2.67536
2.67226
2.66922
2.66619
2.66316
2.6601
2.65705
1
1
1
1
1
1
1
1
1
1
1
1
1
1
1
1
1
1
1
1
1
1
1
1
1
1
1
1
1
1
1
1
1
1
1
1
1
1
1
1
1
1
1
1
1
1
1
1
1
1
1
1
1
1
1
1
1
1
1
1
1
1
1
1
1
1
1
1
1
1
1
1
1
1
1
1
1
1
1
1
1
1
1
1
1.15881
2.39027
2.68394
2.68149
2.67797
2.67485
2.67165
2.6687
2.66586
2.66311
2.66038
2.65763
1
1
1
1
1
1
1
1
1
1
1
1
1
1
1
1
1
1
1
1
1
1
1
1
1
1
1
1
1
1
1
1
1
1
1
1
1
1
1
1
1
1
1
1
1
1
1
1
1
1
1
1
1
1
1
1
1
1
1
1
1
1
1
1
1
1
1
1
1
1
1
1
1
1
1
1
1
1
1
1
1
1
1
1
1.13175
2.37096
2.68459
2.68173
2.67724
2.67409
2.67133
2.66883
2.66626
2.66364
2.66095
2.65816
1
1
1
1
1
1
1
1
1
1
1
1
1
1
1
1
1
1
1
1
1
1
1
1
1
1
1
1
1
1
1
1
1
1
1
1
1
1
1
1
1
1
1
1
1
1
1
1
1
1
1
1
1
1
1
1
1
1
1
1
1
1
1
1
1
1
1
1
1
1
1
1
1
1
1
1
1
1
1
1
1
1
1
1
1.11587
2.35838
2.68387
2.68247
2.67813
2.67473
2.67178
2.66929
2.66675
2.6641
2.66135
2.65852
1.48764
0.945163
0.727795
0.510268