/*--------------------------------*- C++ -*----------------------------------*\
  =========                 |
  \\      /  F ield         | OpenFOAM: The Open Source CFD Toolbox
   \\    /   O peration     | Website:  https://openfoam.org
    \\  /    A nd           | Version:  7
     \\/     M anipulation  |
\*---------------------------------------------------------------------------*/
FoamFile
{
    version     2.0;
    format      ascii;
    class       volVectorField;
    location    "6.9";
    object      U;
}
// * * * * * * * * * * * * * * * * * * * * * * * * * * * * * * * * * * * * * //

dimensions      [0 1 -1 0 0 0 0];

internalField   nonuniform List<vector> 
19968
(
(3 1.49847e-17 0)
(3 1.60041e-16 0)
(3 1.96929e-16 0)
(3 3.51163e-17 0)
(3 -2.67173e-16 0)
(3 -2.42358e-16 0)
(3 -2.8471e-16 0)
(3 2.95111e-16 0)
(3 3.2734e-16 0)
(3 4.74952e-16 0)
(3 4.28207e-16 0)
(3 5.90778e-16 0)
(3 1.21491e-15 0)
(3 1.29474e-15 0)
(3 2.87477e-16 0)
(3 -1.65085e-16 0)
(3 -3.68528e-16 0)
(3 -4.94568e-16 0)
(3 -1.72853e-16 0)
(3 2.13669e-16 0)
(3 3.19932e-17 0)
(3 -1.61828e-16 0)
(3 -3.8463e-16 0)
(3 7.2417e-17 0)
(3 5.74494e-16 0)
(3 6.18605e-16 0)
(3 3.49558e-16 0)
(3 9.22584e-18 0)
(3 -1.03613e-15 0)
(3 -1.49097e-15 0)
(3 -1.23742e-15 0)
(3 -6.90987e-16 0)
(3 -2.2412e-16 0)
(3 3.97582e-17 0)
(3 -1.7338e-16 0)
(3 -5.60584e-16 0)
(3 -3.47041e-16 0)
(3 1.0585e-15 0)
(3 1.12278e-15 0)
(3 9.69349e-16 0)
(3 3.05486e-16 0)
(3 -2.01341e-16 0)
(3 1.86004e-16 0)
(3 9.10533e-16 0)
(3 1.33049e-15 0)
(3 2.14659e-15 0)
(3 1.91768e-15 0)
(3 2.04101e-16 0)
(2.78013 0.00258858 0)
(0.961508 0.00803212 0)
(0.758685 0.00344063 0)
(0.747981 0.00838357 0)
(0.73011 0.00942779 0)
(0.713629 0.0101915 0)
(0.696675 0.00981842 0)
(0.681138 0.00870699 0)
(0.666862 0.00807636 0)
(0.652803 0.00829976 0)
(0.638031 0.00906485 0)
(0.622285 0.00983524 0)
(0.606152 0.00987738 0)
(0.590787 0.00908785 0)
(0.57647 0.0085508 0)
(0.562212 0.00890947 0)
(0.547017 0.00959037 0)
(0.53099 0.00987641 0)
(0.514834 0.00978289 0)
(0.498829 0.00969971 0)
(0.482894 0.00972742 0)
(0.466967 0.00983661 0)
(0.451038 0.0100252 0)
(0.435131 0.0102367 0)
(0.419315 0.0104044 0)
(0.403616 0.0105317 0)
(0.387946 0.0106565 0)
(0.372146 0.0107875 0)
(0.356107 0.0109052 0)
(0.339825 0.0110026 0)
(0.32336 0.0110953 0)
(0.306761 0.0111937 0)
(0.290033 0.0112942 0)
(0.273148 0.0113962 0)
(0.256076 0.0115047 0)
(0.238802 0.0116231 0)
(0.221333 0.0117553 0)
(0.203684 0.0119076 0)
(0.185869 0.0120865 0)
(0.16789 0.0122954 0)
(0.14973 0.0125346 0)
(0.131355 0.0128017 0)
(0.112691 0.0130993 0)
(0.0936258 0.0134214 0)
(0.0740247 0.013782 0)
(0.0537061 0.0141917 0)
(0.0326866 0.014476 0)
(0.0111577 0.0149027 0)
(3 -2.31795e-17 0)
(3 -1.01951e-16 0)
(3 -1.00922e-16 0)
(3 -2.49805e-16 0)
(3 6.15635e-17 0)
(3 3.49076e-16 0)
(3 3.83666e-16 0)
(3 5.66365e-16 0)
(3 6.50063e-16 0)
(3 3.57754e-16 0)
(3 -4.73763e-17 0)
(3 6.97664e-16 0)
(3 1.53104e-15 0)
(3 2.22523e-15 0)
(3 -2.22335e-16 0)
(3 -1.8021e-15 0)
(3 -1.64989e-15 0)
(3 -1.19659e-15 0)
(3 -6.24725e-16 0)
(3 -1.09947e-15 0)
(3 -1.40633e-15 0)
(3 -1.58619e-15 0)
(3 -1.70064e-15 0)
(3 -7.53911e-16 0)
(3 -1.94685e-16 0)
(3 -3.06351e-16 0)
(3 -6.37839e-16 0)
(3 -1.62044e-15 0)
(3 -2.75189e-15 0)
(3 -3.11726e-15 0)
(3 -1.9855e-15 0)
(3 -6.80122e-16 0)
(3 -8.65875e-17 0)
(3 -1.54889e-16 0)
(3 -7.63091e-16 0)
(3 -1.67294e-15 0)
(3 -1.47223e-15 0)
(3 2.00116e-16 0)
(3 1.45155e-15 0)
(3 9.87598e-16 0)
(3 2.89298e-18 0)
(3 -7.39474e-16 0)
(3 -6.32312e-16 0)
(3 -1.27331e-16 0)
(3 4.41771e-16 0)
(3 1.15743e-15 0)
(3 1.23531e-15 0)
(3 -2.93067e-17 0)
(2.79637 0.0141818 0)
(0.967257 0.0337312 0)
(0.755414 0.0191819 0)
(0.741458 0.0233245 0)
(0.725146 0.0267526 0)
(0.709315 0.0290444 0)
(0.69314 0.0286518 0)
(0.677959 0.026366 0)
(0.663456 0.0247263 0)
(0.649079 0.0251188 0)
(0.634283 0.0270756 0)
(0.618799 0.0291693 0)
(0.602997 0.0294634 0)
(0.587845 0.0276432 0)
(0.573306 0.0262712 0)
(0.558755 0.0271806 0)
(0.54347 0.0290369 0)
(0.527467 0.0297994 0)
(0.511426 0.0295969 0)
(0.495497 0.0294893 0)
(0.479567 0.029662 0)
(0.463588 0.029976 0)
(0.447595 0.0304578 0)
(0.431633 0.0310218 0)
(0.415757 0.0315181 0)
(0.399971 0.0319383 0)
(0.384187 0.0323517 0)
(0.368264 0.032771 0)
(0.352107 0.0331481 0)
(0.33572 0.0334654 0)
(0.319174 0.0337621 0)
(0.302533 0.0340625 0)
(0.285805 0.0343567 0)
(0.268954 0.0346491 0)
(0.251934 0.0349655 0)
(0.234712 0.0353259 0)
(0.217288 0.035743 0)
(0.199685 0.0362284 0)
(0.181934 0.0367919 0)
(0.164056 0.0374381 0)
(0.146048 0.0381692 0)
(0.12788 0.0389815 0)
(0.109487 0.0398813 0)
(0.0907665 0.0408506 0)
(0.0716029 0.0419168 0)
(0.0518405 0.04312 0)
(0.0314735 0.0439318 0)
(0.010728 0.0451195 0)
(3 2.94567e-16 0)
(3 8.47436e-17 0)
(3 -1.29942e-16 0)
(3 -2.95952e-16 0)
(3 -3.2274e-16 0)
(3 -5.28551e-16 0)
(3 -2.47002e-16 0)
(3 1.84059e-16 0)
(3 -3.88135e-16 0)
(3 -8.54822e-16 0)
(3 -1.01861e-15 0)
(3 -8.96401e-16 0)
(3 -1.01479e-15 0)
(3 -1.18608e-15 0)
(3 -1.13457e-15 0)
(3 -2.0567e-15 0)
(3 -2.70683e-15 0)
(3 -1.20835e-15 0)
(3 -7.10012e-16 0)
(3 -1.02503e-15 0)
(3 -2.11149e-15 0)
(3 -2.50133e-15 0)
(3 -2.18961e-15 0)
(3 -1.73784e-15 0)
(3 -1.3394e-15 0)
(3 -9.50584e-16 0)
(3 -9.428e-16 0)
(3 -7.77224e-16 0)
(3 -9.39418e-16 0)
(3 -1.2747e-15 0)
(3 -2.75841e-15 0)
(3 -2.64661e-15 0)
(3 -2.45953e-15 0)
(3 -2.41158e-15 0)
(3 -2.19874e-15 0)
(3 -1.74652e-15 0)
(3 -5.31242e-16 0)
(3 -7.53386e-16 0)
(3 -1.73336e-16 0)
(3 -1.0132e-15 0)
(3 -2.53686e-16 0)
(3 3.56533e-16 0)
(3 4.77373e-16 0)
(3 3.71727e-16 0)
(3 -2.50717e-16 0)
(3 -1.13232e-15 0)
(3 -7.70555e-16 0)
(3 -1.38861e-16 0)
(2.83633 0.0228024 0)
(0.985009 0.0552164 0)
(0.760137 0.0373919 0)
(0.744321 0.0411798 0)
(0.727548 0.0456911 0)
(0.711538 0.0485216 0)
(0.695693 0.0479884 0)
(0.680612 0.0451933 0)
(0.665657 0.0431984 0)
(0.650642 0.0438293 0)
(0.635507 0.046624 0)
(0.62002 0.049548 0)
(0.604326 0.0499344 0)
(0.589231 0.0474293 0)
(0.574327 0.0455753 0)
(0.559327 0.0470175 0)
(0.5438 0.0498293 0)
(0.527647 0.0508982 0)
(0.511578 0.0505677 0)
(0.495624 0.0505593 0)
(0.479642 0.0510415 0)
(0.463561 0.0516619 0)
(0.44743 0.0524307 0)
(0.431316 0.0532833 0)
(0.415267 0.0540627 0)
(0.399276 0.0547686 0)
(0.383258 0.0554724 0)
(0.367086 0.0561667 0)
(0.350675 0.0567781 0)
(0.334033 0.0572877 0)
(0.317248 0.0577625 0)
(0.300412 0.0582454 0)
(0.283556 0.0587211 0)
(0.266651 0.0591939 0)
(0.24963 0.0597046 0)
(0.232438 0.0602884 0)
(0.21505 0.0609691 0)
(0.19748 0.0617637 0)
(0.179762 0.0626812 0)
(0.161928 0.0637207 0)
(0.143984 0.0648826 0)
(0.125901 0.0661596 0)
(0.107623 0.0675608 0)
(0.0890601 0.0690614 0)
(0.0701178 0.0706939 0)
(0.0506787 0.0725557 0)
(0.0306988 0.0737608 0)
(0.0104623 0.0755768 0)
(3 1.74564e-16 0)
(3 2.15071e-16 0)
(3 2.40241e-16 0)
(3 1.27909e-17 0)
(3 -7.00229e-16 0)
(3 -6.13228e-16 0)
(3 -3.30184e-16 0)
(3 -1.74128e-16 0)
(3 -4.37956e-16 0)
(3 -6.44181e-16 0)
(3 -1.19821e-15 0)
(3 -2.27998e-15 0)
(3 -2.85812e-15 0)
(3 -3.52756e-15 0)
(3 -1.24945e-15 0)
(3 -2.66644e-16 0)
(3 -1.75168e-16 0)
(3 -5.13098e-16 0)
(3 -6.4402e-16 0)
(3 -7.13877e-16 0)
(3 -1.03171e-15 0)
(3 -1.07123e-15 0)
(3 -4.42584e-16 0)
(3 7.40512e-16 0)
(3 1.24595e-15 0)
(3 1.27367e-15 0)
(3 1.2012e-15 0)
(3 1.30016e-15 0)
(3 1.68647e-15 0)
(3 1.98986e-15 0)
(3 5.11149e-16 0)
(3 -4.52423e-16 0)
(3 -9.82935e-16 0)
(3 -1.24624e-15 0)
(3 -1.77853e-15 0)
(3 -9.25718e-16 0)
(3 -7.49532e-16 0)
(3 -1.27146e-15 0)
(3 -2.14511e-15 0)
(3 -2.09159e-16 0)
(3 1.60774e-15 0)
(3 2.23728e-15 0)
(3 2.32186e-15 0)
(3 2.08735e-15 0)
(3 1.09029e-15 0)
(3 -5.82597e-16 0)
(3 -8.53526e-16 0)
(3 7.51498e-16 0)
(2.88878 0.0267865 0)
(1.00984 0.0742152 0)
(0.761897 0.057341 0)
(0.744869 0.0602227 0)
(0.72879 0.0650681 0)
(0.71341 0.0676744 0)
(0.69842 0.0671749 0)
(0.683669 0.0646673 0)
(0.668579 0.0629327 0)
(0.653224 0.0637628 0)
(0.637992 0.0669404 0)
(0.622769 0.0702656 0)
(0.607418 0.0708151 0)
(0.592486 0.0681807 0)
(0.577341 0.0662638 0)
(0.561995 0.0682187 0)
(0.54627 0.071766 0)
(0.529979 0.0730034 0)
(0.513868 0.0725422 0)
(0.497879 0.0727322 0)
(0.481857 0.073679 0)
(0.465669 0.0747334 0)
(0.449365 0.0758226 0)
(0.43304 0.0769393 0)
(0.416751 0.0779956 0)
(0.400482 0.079017 0)
(0.384147 0.0800447 0)
(0.367628 0.0810332 0)
(0.350838 0.0818915 0)
(0.33378 0.0826013 0)
(0.316556 0.0832507 0)
(0.299287 0.0838991 0)
(0.282039 0.0845267 0)
(0.264799 0.0851343 0)
(0.247507 0.0857763 0)
(0.230099 0.0865095 0)
(0.212548 0.0873807 0)
(0.19488 0.0884234 0)
(0.177149 0.0896513 0)
(0.1594 0.0910583 0)
(0.141638 0.0926406 0)
(0.123816 0.094384 0)
(0.105846 0.0962932 0)
(0.0876109 0.0983387 0)
(0.068992 0.10053 0)
(0.0498946 0.103045 0)
(0.0302022 0.104614 0)
(0.0103312 0.107016 0)
(3 -4.22919e-16 0)
(3 -3.61629e-16 0)
(3 1.51855e-16 0)
(3 1.01644e-16 0)
(3 4.2048e-16 0)
(3 6.88172e-16 0)
(3 -4.0484e-17 0)
(3 -9.06819e-16 0)
(3 1.22847e-16 0)
(3 2.02975e-16 0)
(3 -4.77123e-16 0)
(3 -7.76625e-16 0)
(3 -7.13338e-16 0)
(3 -7.33655e-16 0)
(3 8.24509e-16 0)
(3 1.20185e-15 0)
(3 9.38467e-16 0)
(3 3.275e-17 0)
(3 -1.23802e-15 0)
(3 -1.8438e-15 0)
(3 -1.2005e-15 0)
(3 -2.34288e-16 0)
(3 9.72353e-16 0)
(3 1.2813e-15 0)
(3 1.41714e-15 0)
(3 7.7932e-16 0)
(3 5.19154e-16 0)
(3 6.38323e-16 0)
(3 1.02026e-15 0)
(3 2.06453e-15 0)
(3 2.43056e-15 0)
(3 2.0673e-15 0)
(3 1.44593e-15 0)
(3 4.77742e-16 0)
(3 -8.05549e-16 0)
(3 -1.48534e-15 0)
(3 -1.89994e-15 0)
(3 -1.64432e-15 0)
(3 -1.03591e-15 0)
(3 9.97979e-16 0)
(3 2.80604e-15 0)
(3 2.40454e-15 0)
(3 1.45355e-15 0)
(3 1.52726e-15 0)
(3 1.1302e-15 0)
(3 -9.01664e-16 0)
(3 -2.0471e-15 0)
(3 -2.2217e-15 0)
(2.94405 0.0321146 0)
(1.03989 0.0993081 0)
(0.765005 0.0796201 0)
(0.747505 0.079767 0)
(0.732906 0.0840557 0)
(0.718394 0.0861275 0)
(0.704104 0.0862813 0)
(0.689397 0.0850414 0)
(0.673963 0.0841871 0)
(0.658059 0.0852681 0)
(0.642466 0.0882365 0)
(0.627457 0.0913909 0)
(0.61265 0.0921345 0)
(0.598118 0.0898954 0)
(0.583069 0.088384 0)
(0.567709 0.0909126 0)
(0.552028 0.0950305 0)
(0.535806 0.0963651 0)
(0.519828 0.0957741 0)
(0.503989 0.0961995 0)
(0.488146 0.0977296 0)
(0.472056 0.0993792 0)
(0.455736 0.10088 0)
(0.439323 0.102273 0)
(0.422909 0.103618 0)
(0.406474 0.105012 0)
(0.389913 0.106448 0)
(0.373099 0.107828 0)
(0.35593 0.109051 0)
(0.338391 0.110098 0)
(0.320578 0.111057 0)
(0.302639 0.111989 0)
(0.284675 0.112862 0)
(0.266704 0.113657 0)
(0.248679 0.114428 0)
(0.230539 0.115246 0)
(0.212266 0.11618 0)
(0.193905 0.117279 0)
(0.175545 0.118569 0)
(0.157273 0.120057 0)
(0.139136 0.121766 0)
(0.121114 0.123715 0)
(0.103132 0.125931 0)
(0.085074 0.12841 0)
(0.0667963 0.131101 0)
(0.0482278 0.134284 0)
(0.0291139 0.136239 0)
(0.00997994 0.139237 0)
(3 1.7865e-17 0)
(3 4.28576e-16 0)
(3 6.931e-16 0)
(3 5.08859e-16 0)
(3 6.19809e-16 0)
(3 4.717e-16 0)
(3 -7.10962e-17 0)
(3 -3.23678e-16 0)
(3 -1.59932e-16 0)
(3 1.02302e-15 0)
(3 1.3218e-15 0)
(3 4.54861e-16 0)
(3 -3.85532e-16 0)
(3 -7.94672e-16 0)
(3 1.60095e-16 0)
(3 5.97386e-16 0)
(3 6.87513e-16 0)
(3 6.66554e-16 0)
(3 -1.57122e-16 0)
(3 -3.4839e-16 0)
(3 -1.57553e-16 0)
(3 7.49633e-16 0)
(3 6.23032e-16 0)
(3 3.58693e-16 0)
(3 -6.73843e-16 0)
(3 -1.27396e-15 0)
(3 -1.55631e-15 0)
(3 -1.43203e-15 0)
(3 -1.54192e-15 0)
(3 -6.65156e-16 0)
(3 -4.55506e-16 0)
(3 5.34859e-16 0)
(3 9.86762e-16 0)
(3 1.02488e-15 0)
(3 4.75614e-16 0)
(3 -1.41851e-15 0)
(3 -2.09643e-15 0)
(3 -1.70688e-15 0)
(3 -4.26526e-16 0)
(3 6.63722e-16 0)
(3 5.85958e-16 0)
(3 2.40854e-16 0)
(3 -2.55637e-16 0)
(3 7.47885e-17 0)
(3 1.14025e-16 0)
(3 -1.12392e-16 0)
(3 -1.6227e-15 0)
(3 -2.72199e-15 0)
(3.00107 0.00323511 0)
(1.11206 0.113838 0)
(0.775863 0.0961046 0)
(0.756858 0.0977925 0)
(0.742935 0.101384 0)
(0.728804 0.103114 0)
(0.715014 0.104403 0)
(0.700419 0.105245 0)
(0.68473 0.106267 0)
(0.668297 0.107876 0)
(0.652182 0.109976 0)
(0.637153 0.112048 0)
(0.622854 0.112617 0)
(0.608798 0.111053 0)
(0.594068 0.110381 0)
(0.578947 0.113633 0)
(0.563442 0.118284 0)
(0.547339 0.119672 0)
(0.531542 0.118873 0)
(0.51594 0.119394 0)
(0.500433 0.121473 0)
(0.484634 0.123849 0)
(0.468474 0.12591 0)
(0.452129 0.127628 0)
(0.43576 0.129271 0)
(0.419359 0.13109 0)
(0.402799 0.133036 0)
(0.385926 0.134938 0)
(0.368617 0.136701 0)
(0.350819 0.138309 0)
(0.332608 0.139833 0)
(0.314141 0.141326 0)
(0.295551 0.142736 0)
(0.276889 0.144015 0)
(0.258127 0.14519 0)
(0.239208 0.146332 0)
(0.220098 0.147516 0)
(0.200825 0.148799 0)
(0.18148 0.150205 0)
(0.162178 0.151739 0)
(0.143013 0.153448 0)
(0.124021 0.1554 0)
(0.105183 0.157655 0)
(0.0864227 0.160296 0)
(0.0675948 0.163206 0)
(0.0486807 0.16685 0)
(0.0292868 0.169056 0)
(0.0100484 0.172538 0)
(3 1.10216e-16 0)
(3 4.03732e-16 0)
(3 2.61165e-16 0)
(3 4.4686e-16 0)
(3 5.01686e-16 0)
(3 3.24814e-16 0)
(3 3.09135e-16 0)
(3 3.93484e-16 0)
(3 7.71127e-17 0)
(3 -2.73313e-17 0)
(3 7.10936e-16 0)
(3 3.78858e-16 0)
(3 -1.12668e-15 0)
(3 -1.67605e-15 0)
(3 -1.59697e-15 0)
(3 -1.16259e-15 0)
(3 -4.82565e-16 0)
(3 1.58089e-16 0)
(3 2.38572e-17 0)
(3 -3.00883e-16 0)
(3 -3.22039e-16 0)
(3 -2.52439e-16 0)
(3 -6.51584e-17 0)
(3 -2.24149e-16 0)
(3 -5.30135e-16 0)
(3 -4.87024e-16 0)
(3 -1.17768e-15 0)
(3 -1.2005e-15 0)
(3 -1.1295e-15 0)
(3 -8.86609e-16 0)
(3 -6.47807e-16 0)
(3 -4.57841e-16 0)
(3 5.57766e-16 0)
(3 1.35914e-15 0)
(3 4.85753e-17 0)
(3 -6.90989e-16 0)
(3 -1.29771e-15 0)
(3 -2.31094e-15 0)
(3 -2.23084e-15 0)
(3 -2.11442e-15 0)
(3 -2.82627e-15 0)
(3 -2.015e-15 0)
(3 -5.7435e-16 0)
(3 3.22708e-16 0)
(3 7.32738e-16 0)
(3 5.54321e-16 0)
(3 1.63195e-16 0)
(3 -8.50196e-16 0)
(3.00004 8.58715e-06 0)
(1.22609 0.136472 0)
(0.776251 0.121261 0)
(0.75162 0.119866 0)
(0.738193 0.121458 0)
(0.724302 0.122806 0)
(0.710636 0.12535 0)
(0.69604 0.128489 0)
(0.680375 0.131688 0)
(0.663966 0.133858 0)
(0.64799 0.134559 0)
(0.633333 0.134936 0)
(0.619674 0.135057 0)
(0.606185 0.134221 0)
(0.591913 0.134651 0)
(0.577237 0.138862 0)
(0.562093 0.144172 0)
(0.54628 0.145744 0)
(0.53085 0.144727 0)
(0.515683 0.14521 0)
(0.500778 0.147771 0)
(0.485633 0.150978 0)
(0.470014 0.153785 0)
(0.454094 0.155936 0)
(0.438131 0.157896 0)
(0.42218 0.160156 0)
(0.406097 0.162657 0)
(0.389679 0.16514 0)
(0.372765 0.1675 0)
(0.355262 0.169726 0)
(0.337218 0.171859 0)
(0.318799 0.173935 0)
(0.300173 0.175901 0)
(0.28143 0.177686 0)
(0.262577 0.179293 0)
(0.243561 0.180776 0)
(0.224325 0.182213 0)
(0.20485 0.183657 0)
(0.185189 0.185128 0)
(0.165446 0.186628 0)
(0.145744 0.188223 0)
(0.126175 0.190041 0)
(0.106772 0.192168 0)
(0.0875168 0.194814 0)
(0.0682658 0.197767 0)
(0.0490847 0.201763 0)
(0.029447 0.204156 0)
(0.0101164 0.208067 0)
(3 4.80352e-17 0)
(3 -1.91517e-16 0)
(3 -7.31176e-16 0)
(3 -3.81769e-16 0)
(3 -1.00391e-16 0)
(3 -1.78363e-16 0)
(3 -3.71885e-16 0)
(3 -3.51021e-16 0)
(3 -4.78533e-16 0)
(3 -6.34982e-16 0)
(3 -4.02897e-16 0)
(3 2.61071e-16 0)
(3 9.81796e-16 0)
(3 8.82357e-16 0)
(3 8.96762e-16 0)
(3 1.77719e-16 0)
(3 1.86903e-16 0)
(3 1.48954e-16 0)
(3 -1.54057e-16 0)
(3 -7.50821e-16 0)
(3 -1.18497e-15 0)
(3 -1.63016e-15 0)
(3 -1.75705e-15 0)
(3 -2.34405e-15 0)
(3 -2.10584e-15 0)
(3 -1.49478e-15 0)
(3 -1.11931e-15 0)
(3 -9.94763e-16 0)
(3 -6.03548e-16 0)
(3 -4.68152e-16 0)
(3 -2.36433e-16 0)
(3 5.21144e-17 0)
(3 2.34046e-16 0)
(3 -2.70762e-16 0)
(3 -6.65415e-17 0)
(3 5.63755e-16 0)
(3 1.62865e-16 0)
(3 -1.31671e-15 0)
(3 -3.23212e-15 0)
(3 -3.60815e-15 0)
(3 -3.78375e-15 0)
(3 -3.20361e-15 0)
(3 -1.78126e-15 0)
(3 -8.32001e-16 0)
(3 -7.95117e-16 0)
(3 2.65128e-16 0)
(3 8.2478e-16 0)
(3 5.93793e-16 0)
(3 1.55947e-08 0)
(1.42046 0.167611 0)
(0.788757 0.151806 0)
(0.753375 0.143503 0)
(0.738899 0.142056 0)
(0.724238 0.142973 0)
(0.710135 0.146712 0)
(0.695431 0.152012 0)
(0.679859 0.157059 0)
(0.663581 0.159456 0)
(0.647864 0.158597 0)
(0.633423 0.157055 0)
(0.620064 0.156537 0)
(0.606959 0.156454 0)
(0.593168 0.158092 0)
(0.579085 0.163277 0)
(0.564505 0.16919 0)
(0.549215 0.171005 0)
(0.534375 0.169736 0)
(0.519849 0.169931 0)
(0.505761 0.17269 0)
(0.491568 0.176642 0)
(0.476783 0.180334 0)
(0.461487 0.183063 0)
(0.446053 0.185378 0)
(0.430651 0.188118 0)
(0.415147 0.191305 0)
(0.399275 0.194559 0)
(0.382825 0.197733 0)
(0.36566 0.200821 0)
(0.347787 0.203834 0)
(0.329362 0.206781 0)
(0.310585 0.209616 0)
(0.29159 0.212258 0)
(0.272422 0.214675 0)
(0.253043 0.216884 0)
(0.233381 0.218936 0)
(0.213382 0.220865 0)
(0.19306 0.222666 0)
(0.172507 0.224337 0)
(0.151872 0.225947 0)
(0.1313 0.227691 0)
(0.110883 0.229661 0)
(0.0906686 0.232241 0)
(0.0705221 0.23509 0)
(0.050611 0.239331 0)
(0.030285 0.241859 0)
(0.0103962 0.24614 0)
(3 1.38291e-18 0)
(3 3.45278e-17 0)
(3 3.96599e-17 0)
(3 -3.64029e-17 0)
(3 1.64932e-17 0)
(3 2.28137e-16 0)
(3 3.74106e-16 0)
(3 2.02349e-16 0)
(3 1.10596e-16 0)
(3 -8.129e-17 0)
(3 -6.35713e-16 0)
(3 -6.84778e-16 0)
(3 1.91598e-15 0)
(3 2.51803e-15 0)
(3 2.77603e-15 0)
(3 2.07387e-15 0)
(3 1.20522e-15 0)
(3 7.95683e-16 0)
(3 4.91715e-16 0)
(3 2.75088e-18 0)
(3 -5.32174e-16 0)
(3 -1.9251e-15 0)
(3 -2.66107e-15 0)
(3 -2.91949e-15 0)
(3 -2.95466e-15 0)
(3 -2.33291e-15 0)
(3 -1.06646e-15 0)
(3 -1.25404e-15 0)
(3 -1.22922e-15 0)
(3 -9.3428e-16 0)
(3 -8.63498e-16 0)
(3 -8.59145e-16 0)
(3 -1.31832e-15 0)
(3 -2.50811e-15 0)
(3 -1.75077e-15 0)
(3 -4.45854e-16 0)
(3 -1.51915e-16 0)
(3 9.33877e-17 0)
(3 -9.9074e-16 0)
(3 -2.15167e-15 0)
(3 -2.77529e-15 0)
(3 -2.97767e-15 0)
(3 -2.75985e-15 0)
(3 -2.30058e-15 0)
(3 -2.00564e-15 0)
(3 -2.02304e-15 0)
(3 -1.26287e-15 0)
(3 -4.39942e-16 0)
(3 2.10099e-11 0)
(1.72254 0.191991 0)
(0.817585 0.183313 0)
(0.760519 0.17188 0)
(0.744744 0.165717 0)
(0.72848 0.165874 0)
(0.713395 0.17031 0)
(0.698277 0.177274 0)
(0.682596 0.183647 0)
(0.666191 0.186068 0)
(0.650265 0.184086 0)
(0.635311 0.180902 0)
(0.621265 0.179505 0)
(0.607676 0.179814 0)
(0.593691 0.182353 0)
(0.579675 0.188303 0)
(0.565299 0.194724 0)
(0.550227 0.196914 0)
(0.535595 0.195573 0)
(0.521297 0.195345 0)
(0.507572 0.198038 0)
(0.49405 0.202663 0)
(0.480028 0.207454 0)
(0.46537 0.211047 0)
(0.450536 0.213817 0)
(0.43585 0.217055 0)
(0.421207 0.221015 0)
(0.40624 0.2252 0)
(0.390654 0.22935 0)
(0.374269 0.233466 0)
(0.357034 0.237541 0)
(0.339073 0.241559 0)
(0.320606 0.245477 0)
(0.301812 0.249216 0)
(0.282764 0.252704 0)
(0.263426 0.255904 0)
(0.243697 0.258825 0)
(0.223478 0.26147 0)
(0.202735 0.263819 0)
(0.181533 0.265861 0)
(0.160029 0.267655 0)
(0.138417 0.269455 0)
(0.116841 0.271314 0)
(0.095434 0.273817 0)
(0.0740906 0.276436 0)
(0.0531046 0.280808 0)
(0.0317305 0.283419 0)
(0.0108788 0.288017 0)
(3 -7.20183e-17 0)
(3 -2.87118e-17 0)
(3 4.66609e-16 0)
(3 6.38738e-16 0)
(3 3.09261e-16 0)
(3 -9.0367e-17 0)
(3 -3.54776e-16 0)
(3 -3.34315e-16 0)
(3 -1.12835e-16 0)
(3 2.36492e-16 0)
(3 -3.66623e-16 0)
(3 -2.2725e-16 0)
(3 2.44934e-16 0)
(3 8.11602e-16 0)
(3 6.07123e-16 0)
(3 1.00458e-15 0)
(3 1.10942e-15 0)
(3 1.27394e-15 0)
(3 1.04692e-15 0)
(3 8.45977e-16 0)
(3 7.88116e-16 0)
(3 2.11285e-16 0)
(3 -7.43878e-16 0)
(3 -9.8981e-16 0)
(3 -9.59796e-16 0)
(3 -9.39109e-16 0)
(3 -1.63652e-16 0)
(3 -3.62959e-16 0)
(3 -5.47508e-16 0)
(3 -6.59747e-16 0)
(3 -6.58167e-16 0)
(3 -1.64411e-15 0)
(3 -3.5993e-15 0)
(3 -3.58177e-15 0)
(3 -3.55428e-15 0)
(3 -3.17938e-15 0)
(3 -1.56649e-15 0)
(3 -1.20767e-16 0)
(3 2.55436e-16 0)
(3 -8.77345e-17 0)
(3 -7.9633e-16 0)
(3 -1.42495e-15 0)
(3 -1.65074e-15 0)
(3 -1.71314e-15 0)
(3 -1.54533e-15 0)
(3 -1.33464e-15 0)
(3 -1.27245e-15 0)
(3 -1.39516e-15 0)
(3 1.21508e-14 0)
(2.13713 0.200564 0)
(0.858803 0.220584 0)
(0.759058 0.205634 0)
(0.74437 0.195265 0)
(0.728093 0.193703 0)
(0.714092 0.197945 0)
(0.700594 0.205339 0)
(0.686722 0.212214 0)
(0.671706 0.214808 0)
(0.656392 0.21267 0)
(0.64131 0.208616 0)
(0.626618 0.206277 0)
(0.61239 0.206433 0)
(0.598052 0.209192 0)
(0.583949 0.215309 0)
(0.569706 0.221983 0)
(0.55466 0.224733 0)
(0.539732 0.223676 0)
(0.525012 0.222939 0)
(0.510786 0.22498 0)
(0.497062 0.229649 0)
(0.483171 0.235264 0)
(0.468625 0.239738 0)
(0.453853 0.242834 0)
(0.439363 0.24627 0)
(0.425178 0.250808 0)
(0.410869 0.255907 0)
(0.396048 0.261088 0)
(0.380511 0.266309 0)
(0.364158 0.271578 0)
(0.34705 0.276856 0)
(0.329372 0.282105 0)
(0.311285 0.287259 0)
(0.292827 0.292224 0)
(0.273906 0.296899 0)
(0.254379 0.30122 0)
(0.23412 0.305133 0)
(0.213092 0.308569 0)
(0.191365 0.311478 0)
(0.169104 0.31387 0)
(0.146523 0.316045 0)
(0.123788 0.317985 0)
(0.101102 0.320493 0)
(0.0784104 0.322785 0)
(0.0561502 0.32714 0)
(0.033534 0.329741 0)
(0.011469 0.334597 0)
(3 -5.65197e-18 0)
(3 -4.45936e-17 0)
(3 -2.47338e-16 0)
(3 -1.56053e-16 0)
(3 -9.12878e-16 0)
(3 -1.47734e-15 0)
(3 -1.83869e-15 0)
(3 -1.58282e-15 0)
(3 -1.14296e-15 0)
(3 -5.40634e-16 0)
(3 -4.04376e-16 0)
(3 -7.51252e-16 0)
(3 -1.52033e-15 0)
(3 -1.66961e-15 0)
(3 1.6031e-18 0)
(3 6.69689e-16 0)
(3 9.84653e-16 0)
(3 1.36608e-15 0)
(3 2.00682e-15 0)
(3 2.07429e-15 0)
(3 1.92285e-15 0)
(3 1.53044e-15 0)
(3 1.43585e-15 0)
(3 1.25023e-15 0)
(3 6.1518e-16 0)
(3 1.23218e-16 0)
(3 -3.61298e-17 0)
(3 7.21837e-17 0)
(3 -1.82039e-18 0)
(3 -4.44605e-16 0)
(3 -1.01771e-15 0)
(3 -2.01932e-15 0)
(3 -2.07593e-15 0)
(3 -1.61609e-15 0)
(3 -1.26547e-15 0)
(3 -1.08044e-15 0)
(3 3.0292e-16 0)
(3 6.88169e-16 0)
(3 1.30913e-15 0)
(3 1.27093e-15 0)
(3 4.74759e-16 0)
(3 -6.82847e-17 0)
(3 -5.04283e-16 0)
(3 -8.59894e-16 0)
(3 -1.5663e-15 0)
(3 -1.87979e-15 0)
(3 -1.5648e-15 0)
(3 -9.33154e-16 0)
(3 -2.03756e-15 0)
(2.67047 0.178236 0)
(0.960285 0.262268 0)
(0.783673 0.236179 0)
(0.775261 0.221109 0)
(0.755703 0.217926 0)
(0.739573 0.220846 0)
(0.72444 0.228184 0)
(0.709833 0.235881 0)
(0.694523 0.240217 0)
(0.678684 0.240027 0)
(0.662934 0.236864 0)
(0.647373 0.234428 0)
(0.63219 0.234506 0)
(0.617071 0.237196 0)
(0.602313 0.243132 0)
(0.587746 0.250201 0)
(0.572366 0.25435 0)
(0.556607 0.254718 0)
(0.540817 0.254213 0)
(0.525286 0.255558 0)
(0.510347 0.259783 0)
(0.495739 0.265888 0)
(0.480619 0.271354 0)
(0.465067 0.274906 0)
(0.449736 0.278292 0)
(0.434885 0.283009 0)
(0.420178 0.288717 0)
(0.405128 0.294677 0)
(0.389516 0.300736 0)
(0.373265 0.306971 0)
(0.356422 0.313385 0)
(0.339156 0.319945 0)
(0.321618 0.326592 0)
(0.303803 0.333207 0)
(0.285548 0.339612 0)
(0.266638 0.345651 0)
(0.246888 0.351205 0)
(0.226191 0.356158 0)
(0.204528 0.360457 0)
(0.181947 0.364068 0)
(0.158596 0.367321 0)
(0.134601 0.370046 0)
(0.110267 0.373167 0)
(0.0856139 0.375499 0)
(0.0612877 0.379924 0)
(0.0366054 0.382507 0)
(0.0125227 0.387648 0)
(3 3.46808e-17 0)
(3 -4.66398e-17 0)
(3 -3.31932e-16 0)
(3 -6.84931e-16 0)
(3 -4.57404e-16 0)
(3 -2.52888e-16 0)
(3 -3.23599e-16 0)
(3 -1.90219e-16 0)
(3 -2.46122e-16 0)
(3 -5.29323e-16 0)
(3 -8.55958e-16 0)
(3 -1.02226e-15 0)
(3 -9.16345e-16 0)
(3 -8.55983e-16 0)
(3 -6.20652e-16 0)
(3 -4.82045e-16 0)
(3 -1.32473e-16 0)
(3 3.95882e-16 0)
(3 5.80015e-16 0)
(3 1.07654e-15 0)
(3 1.31713e-15 0)
(3 1.46179e-15 0)
(3 1.83138e-15 0)
(3 2.02362e-15 0)
(3 1.25449e-15 0)
(3 6.48707e-16 0)
(3 5.93695e-17 0)
(3 2.19752e-16 0)
(3 6.10039e-16 0)
(3 9.76149e-17 0)
(3 -6.84746e-16 0)
(3 -8.70607e-16 0)
(3 -8.13237e-16 0)
(3 1.22168e-16 0)
(3 5.79607e-16 0)
(3 1.34818e-15 0)
(3 1.41823e-15 0)
(3 1.3981e-15 0)
(3 1.74369e-15 0)
(3 1.85766e-15 0)
(3 1.35394e-15 0)
(3 1.47759e-15 0)
(3 9.99629e-16 0)
(3 1.24894e-15 0)
(3 -2.04638e-16 0)
(3 -1.03057e-15 0)
(3 -1.39316e-15 0)
(3 -9.13497e-16 0)
(3 -6.46211e-16 0)
(3.02141 0.010889 0)
(1.14744 0.281471 0)
(0.811329 0.234685 0)
(0.798324 0.245652 0)
(0.781344 0.248491 0)
(0.764699 0.251703 0)
(0.748823 0.257548 0)
(0.733974 0.263729 0)
(0.719417 0.267526 0)
(0.704719 0.267911 0)
(0.689878 0.265634 0)
(0.674866 0.263452 0)
(0.659886 0.263473 0)
(0.644852 0.265764 0)
(0.629987 0.270793 0)
(0.615568 0.277558 0)
(0.600691 0.282983 0)
(0.585065 0.285526 0)
(0.568964 0.286308 0)
(0.55273 0.287253 0)
(0.536761 0.290475 0)
(0.52135 0.296522 0)
(0.50575 0.303229 0)
(0.489414 0.308094 0)
(0.47298 0.311872 0)
(0.456975 0.316787 0)
(0.441302 0.323122 0)
(0.425423 0.329967 0)
(0.409048 0.336886 0)
(0.392147 0.344 0)
(0.374807 0.351443 0)
(0.357185 0.359249 0)
(0.339376 0.367384 0)
(0.32131 0.375757 0)
(0.302741 0.384172 0)
(0.283388 0.392433 0)
(0.263035 0.400388 0)
(0.241548 0.407846 0)
(0.218916 0.414673 0)
(0.195183 0.420644 0)
(0.170542 0.425973 0)
(0.145116 0.430242 0)
(0.119219 0.434528 0)
(0.0927061 0.437305 0)
(0.0662407 0.441674 0)
(0.0395244 0.443977 0)
(0.0134106 0.449117 0)
(3 -1.30064e-16 0)
(3 1.13214e-16 0)
(3 3.56609e-16 0)
(3 1.76766e-16 0)
(3 3.35213e-16 0)
(3 9.63762e-16 0)
(3 1.39661e-15 0)
(3 1.20795e-15 0)
(3 -1.56267e-16 0)
(3 -5.25849e-16 0)
(3 -1.15243e-15 0)
(3 -1.12861e-15 0)
(3 -1.0159e-15 0)
(3 -5.76806e-16 0)
(3 -7.77117e-16 0)
(3 -8.69228e-16 0)
(3 -3.64728e-16 0)
(3 -2.92816e-16 0)
(3 -5.43589e-16 0)
(3 -5.68787e-16 0)
(3 1.07299e-16 0)
(3 1.18685e-15 0)
(3 1.69061e-15 0)
(3 1.12034e-15 0)
(3 9.48678e-16 0)
(3 6.63613e-16 0)
(3 5.27031e-16 0)
(3 2.70451e-16 0)
(3 -2.23766e-16 0)
(3 -7.71413e-16 0)
(3 -9.30046e-16 0)
(3 -4.62257e-16 0)
(3 3.22563e-16 0)
(3 4.45746e-16 0)
(3 5.8154e-16 0)
(3 9.14722e-16 0)
(3 9.3701e-16 0)
(3 6.97904e-16 0)
(3 6.86194e-16 0)
(3 1.29933e-15 0)
(3 2.01555e-15 0)
(3 2.31592e-15 0)
(3 2.26623e-15 0)
(3 1.87812e-15 0)
(3 1.39768e-15 0)
(3 4.32989e-16 0)
(3 3.83888e-17 0)
(3 2.00033e-16 0)
(3 6.40342e-16 0)
(3.00032 1.08485e-05 0)
(1.5601 0.311365 0)
(0.824672 0.275992 0)
(0.782 0.278488 0)
(0.767451 0.28338 0)
(0.752986 0.285477 0)
(0.739971 0.289426 0)
(0.727599 0.293645 0)
(0.715383 0.296635 0)
(0.70289 0.297925 0)
(0.689909 0.29759 0)
(0.676493 0.297161 0)
(0.662897 0.298454 0)
(0.649142 0.301402 0)
(0.635258 0.305829 0)
(0.621734 0.311821 0)
(0.608321 0.317911 0)
(0.594486 0.32246 0)
(0.580129 0.325128 0)
(0.565391 0.326525 0)
(0.550479 0.328719 0)
(0.535893 0.333884 0)
(0.521542 0.341157 0)
(0.506388 0.347464 0)
(0.490647 0.351883 0)
(0.475024 0.356697 0)
(0.459725 0.363149 0)
(0.44428 0.370565 0)
(0.428239 0.378157 0)
(0.411586 0.385933 0)
(0.394494 0.39416 0)
(0.377182 0.403012 0)
(0.359718 0.412492 0)
(0.341994 0.422498 0)
(0.323786 0.432895 0)
(0.304844 0.443415 0)
(0.285033 0.453865 0)
(0.264232 0.463929 0)
(0.242376 0.473376 0)
(0.219157 0.481805 0)
(0.19458 0.489517 0)
(0.168291 0.496167 0)
(0.140433 0.503338 0)
(0.110432 0.509285 0)
(0.0791776 0.515604 0)
(0.0470707 0.518586 0)
(0.0157915 0.523493 0)
(3 -5.88663e-18 0)
(3 2.60716e-16 0)
(3 2.66703e-16 0)
(3 4.92605e-16 0)
(3 9.78566e-16 0)
(3 1.08034e-15 0)
(3 1.28184e-15 0)
(3 1.31177e-15 0)
(3 8.08448e-16 0)
(3 3.65231e-16 0)
(3 2.75452e-16 0)
(3 6.10508e-17 0)
(3 -4.25591e-16 0)
(3 -5.34266e-16 0)
(3 -2.76408e-16 0)
(3 -5.65575e-17 0)
(3 -1.53096e-16 0)
(3 -2.46331e-16 0)
(3 -3.00805e-17 0)
(3 1.97283e-16 0)
(3 5.6792e-16 0)
(3 8.62369e-16 0)
(3 7.39358e-16 0)
(3 2.25471e-16 0)
(3 1.66411e-16 0)
(3 3.09477e-16 0)
(3 7.10011e-17 0)
(3 -5.56475e-16 0)
(3 -1.14991e-15 0)
(3 -7.73326e-16 0)
(3 -4.31721e-18 0)
(3 4.07626e-16 0)
(3 7.28169e-16 0)
(3 8.02018e-16 0)
(3 8.13521e-16 0)
(3 4.18507e-16 0)
(3 -9.31677e-17 0)
(3 -5.80112e-16 0)
(3 -6.85271e-16 0)
(3 -3.65056e-16 0)
(3 6.10641e-16 0)
(3 1.08256e-15 0)
(3 1.05198e-15 0)
(3 8.87295e-16 0)
(3 1.15756e-15 0)
(3 1.57836e-15 0)
(3 1.26978e-15 0)
(3 1.27113e-15 0)
(3 1.63793e-15 0)
(3 1.79061e-08 0)
(2.38602 0.281095 0)
(0.918152 0.335698 0)
(0.792354 0.314535 0)
(0.780597 0.311606 0)
(0.766261 0.313862 0)
(0.753946 0.317198 0)
(0.741716 0.320466 0)
(0.729484 0.322923 0)
(0.717079 0.324907 0)
(0.70433 0.326337 0)
(0.69132 0.327704 0)
(0.678345 0.330334 0)
(0.665385 0.334078 0)
(0.652154 0.338039 0)
(0.638919 0.342751 0)
(0.625957 0.348386 0)
(0.613142 0.354145 0)
(0.600133 0.358992 0)
(0.586641 0.36207 0)
(0.572696 0.364272 0)
(0.558611 0.368618 0)
(0.544939 0.376094 0)
(0.530934 0.384266 0)
(0.516045 0.390588 0)
(0.500922 0.396168 0)
(0.486031 0.40307 0)
(0.471152 0.411403 0)
(0.455672 0.420209 0)
(0.439457 0.429199 0)
(0.422722 0.438621 0)
(0.405772 0.44879 0)
(0.388715 0.459882 0)
(0.371146 0.471716 0)
(0.353137 0.484331 0)
(0.334132 0.497487 0)
(0.314032 0.511064 0)
(0.292659 0.524842 0)
(0.269775 0.538666 0)
(0.244887 0.552184 0)
(0.217733 0.565652 0)
(0.187937 0.578473 0)
(0.156408 0.591553 0)
(0.123612 0.603383 0)
(0.0898519 0.612821 0)
(0.0547828 0.617511 0)
(0.0176036 0.62054 0)
(3 1.23212e-16 0)
(3 1.08004e-16 0)
(3 1.38754e-16 0)
(3 3.95198e-16 0)
(3 6.88294e-16 0)
(3 8.19708e-16 0)
(3 5.55463e-16 0)
(3 4.19477e-16 0)
(3 6.04564e-16 0)
(3 7.80636e-16 0)
(3 8.32486e-16 0)
(3 1.06384e-15 0)
(3 1.58845e-15 0)
(3 1.75476e-15 0)
(3 1.18889e-15 0)
(3 5.89512e-16 0)
(3 1.13028e-16 0)
(3 1.88439e-17 0)
(3 4.79799e-16 0)
(3 1.02711e-15 0)
(3 1.07601e-15 0)
(3 1.50163e-16 0)
(3 -4.63045e-16 0)
(3 -5.1527e-16 0)
(3 -4.92648e-16 0)
(3 -3.48889e-16 0)
(3 -1.67201e-16 0)
(3 1.55301e-17 0)
(3 2.06894e-16 0)
(3 3.04954e-16 0)
(3 1.38461e-15 0)
(3 1.4505e-15 0)
(3 1.15601e-15 0)
(3 7.884e-16 0)
(3 5.78315e-16 0)
(3 4.74622e-16 0)
(3 1.46004e-16 0)
(3 3.75552e-17 0)
(3 -4.3732e-17 0)
(3 -2.43984e-16 0)
(3 -1.97299e-16 0)
(3 -4.25719e-16 0)
(3 -3.54472e-16 0)
(3 -2.68565e-16 0)
(3 -7.19011e-17 0)
(3 6.03326e-16 0)
(3 1.52046e-15 0)
(3 1.67366e-15 0)
(3 1.4306e-15 0)
(3 -7.26615e-09 0)
(3.02917 0.017847 0)
(1.24901 0.379187 0)
(0.839806 0.321489 0)
(0.821897 0.332799 0)
(0.8066 0.336216 0)
(0.792325 0.340517 0)
(0.7782 0.344253 0)
(0.764182 0.346671 0)
(0.750328 0.34903 0)
(0.736511 0.351854 0)
(0.72267 0.355161 0)
(0.70907 0.359562 0)
(0.695756 0.364793 0)
(0.68226 0.369395 0)
(0.668573 0.373304 0)
(0.655053 0.377877 0)
(0.642012 0.383732 0)
(0.62944 0.390292 0)
(0.616639 0.395964 0)
(0.60322 0.399786 0)
(0.589351 0.403912 0)
(0.57571 0.411055 0)
(0.562407 0.42054 0)
(0.548492 0.429396 0)
(0.534078 0.436668 0)
(0.519748 0.444201 0)
(0.50565 0.453299 0)
(0.49118 0.463461 0)
(0.47598 0.474071 0)
(0.460101 0.485115 0)
(0.443914 0.49693 0)
(0.427684 0.509946 0)
(0.410937 0.524052 0)
(0.393722 0.53944 0)
(0.37549 0.555991 0)
(0.356181 0.573666 0)
(0.3359 0.592409 0)
(0.314645 0.61208 0)
(0.292018 0.632212 0)
(0.267527 0.652244 0)
(0.240661 0.670928 0)
(0.210981 0.687084 0)
(0.178966 0.702831 0)
(0.141513 0.721314 0)
(0.0954115 0.743191 0)
(0.0367501 0.762666 0)
(3 -1.36807e-16 0)
(3 -3.81049e-16 0)
(3 -3.9322e-16 0)
(3 -3.51666e-16 0)
(3 -3.61787e-16 0)