/*--------------------------------*- C++ -*----------------------------------*\
  =========                 |
  \\      /  F ield         | OpenFOAM: The Open Source CFD Toolbox
   \\    /   O peration     | Website:  https://openfoam.org
    \\  /    A nd           | Version:  7
     \\/     M anipulation  |
\*---------------------------------------------------------------------------*/
FoamFile
{
    version     2.0;
    format      ascii;
    class       volScalarField;
    location    "3.99";
    object      T;
}
// * * * * * * * * * * * * * * * * * * * * * * * * * * * * * * * * * * * * * //

dimensions      [0 0 0 1 0 0 0];

internalField   nonuniform List<scalar> 
1000
(
0.0595178
0.0595194
0.0595225
0.0595272
0.0595334
0.0595412
0.0595505
0.0595614
0.0595738
0.0595878
0.0596033
0.0596204
0.0596391
0.0596593
0.059681
0.0597044
0.0597292
0.0597556
0.0597835
0.059813
0.0598441
0.0598767
0.0599108
0.0599464
0.0599837
0.0600224
0.0600627
0.0601045
0.0601479
0.0601927
0.0602392
0.0602871
0.0603366
0.0603876
0.0604401
0.0604942
0.0605498
0.0606068
0.0606655
0.0607256
0.0607872
0.0608504
0.060915
0.0609812
0.0610489
0.061118
0.0611887
0.0612609
0.0613345
0.0614097
0.0614863
0.0615644
0.061644
0.0617251
0.0618077
0.0618917
0.0619773
0.0620642
0.0621527
0.0622426
0.062334
0.0624268
0.0625211
0.0626168
0.062714
0.0628126
0.0629126
0.0630141
0.0631171
0.0632214
0.0633272
0.0634344
0.063543
0.063653
0.0637644
0.0638773
0.0639915
0.0641072
0.0642242
0.0643426
0.0644624
0.0645836
0.0647062
0.0648301
0.0649554
0.0650821
0.0652101
0.0653395
0.0654702
0.0656023
0.0657357
0.0658704
0.0660065
0.0661439
0.0662826
0.0664226
0.066564
0.0667066
0.0668506
0.0669958
0.0671423
0.0672902
0.0674392
0.0675896
0.0677413
0.0678942
0.0680483
0.0682037
0.0683604
0.0685183
0.0686774
0.0688377
0.0689993
0.0691621
0.0693261
0.0694913
0.0696578
0.0698254
0.0699942
0.0701641
0.0703353
0.0705076
0.0706811
0.0708557
0.0710315
0.0712084
0.0713865
0.0715657
0.071746
0.0719275
0.07211
0.0722937
0.0724784
0.0726642
0.0728512
0.0730392
0.0732282
0.0734184
0.0736096
0.0738018
0.0739951
0.0741894
0.0743847
0.0745811
0.0747785
0.0749769
0.0751763
0.0753766
0.075578
0.0757803
0.0759836
0.0761879
0.0763931
0.0765993
0.0768064
0.0770144
0.0772234
0.0774332
0.077644
0.0778557
0.0780683
0.0782817
0.0784961
0.0787113
0.0789273
0.0791442
0.079362
0.0795806
0.0798
0.0800203
0.0802413
0.0804632
0.0806858
0.0809093
0.0811335
0.0813585
0.0815842
0.0818107
0.082038
0.0822659
0.0824946
0.0827241
0.0829542
0.083185
0.0834166
0.0836488
0.0838817
0.0841152
0.0843494
0.0845843
0.0848198
0.0850559
0.0852927
0.08553
0.085768
0.0860066
0.0862457
0.0864854
0.0867257
0.0869666
0.087208
0.0874499
0.0876924
0.0879354
0.0881789
0.0884229
0.0886674
0.0889123
0.0891578
0.0894037
0.0896501
0.0898969
0.0901442
0.0903918
0.0906399
0.0908885
0.0911374
0.0913867
0.0916363
0.0918864
0.0921368
0.0923876
0.0926387
0.0928901
0.0931418
0.0933939
0.0936463
0.0938989
0.0941518
0.094405
0.0946585
0.0949122
0.0951662
0.0954204
0.0956748
0.0959295
0.0961843
0.0964393
0.0966945
0.0969499
0.0972055
0.0974612
0.097717
0.097973
0.0982291
0.0984853
0.0987416
0.098998
0.0992545
0.099511
0.0997677
0.100024
0.100281
0.100538
0.100795
0.101051
0.101308
0.101565
0.101822
0.102078
0.102335
0.102592
0.102848
0.103105
0.103361
0.103617
0.103874
0.10413
0.104386
0.104642
0.104897
0.105153
0.105408
0.105664
0.105919
0.106174
0.106428
0.106683
0.106937
0.107191
0.107445
0.107698
0.107951
0.108204
0.108457
0.108709
0.108961
0.109213
0.109465
0.109716
0.109966
0.110217
0.110467
0.110716
0.110966
0.111215
0.111463
0.111711
0.111959
0.112206
0.112453
0.112699
0.112945
0.11319
0.113435
0.113679
0.113923
0.114166
0.114409
0.114651
0.114893
0.115134
0.115375
0.115615
0.115854
0.116093
0.116331
0.116569
0.116806
0.117042
0.117278
0.117513
0.117747
0.117981
0.118214
0.118446
0.118678
0.118909
0.119139
0.119368
0.119597
0.119825
0.120052
0.120279
0.120504
0.120729
0.120953
0.121176
0.121399
0.121621
0.121841
0.122061
0.12228
0.122499
0.122716
0.122932
0.123148
0.123363
0.123576
0.123789
0.124001
0.124212
0.124422
0.124631
0.124839
0.125047
0.125253
0.125458
0.125662
0.125865
0.126067
0.126269
0.126469
0.126668
0.126866
0.127063
0.127259
0.127454
0.127647
0.12784
0.128032
0.128222
0.128412
0.1286
0.128787
0.128973
0.129158
0.129342
0.129524
0.129705
0.129886
0.130065
0.130243
0.130419
0.130595
0.130769
0.130942
0.131114
0.131284
0.131453
0.131621
0.131788
0.131954
0.132118
0.132281
0.132443
0.132603
0.132762
0.13292
0.133076
0.133231
0.133385
0.133538
0.133689
0.133839
0.133987
0.134134
0.13428
0.134424
0.134567
0.134709
0.134849
0.134988
0.135125
0.135261
0.135396
0.135529
0.135661
0.135791
0.13592
0.136048
0.136174
0.136298
0.136421
0.136543
0.136663
0.136782
0.136899
0.137015
0.137129
0.137242
0.137353
0.137463
0.137571
0.137678
0.137783
0.137887
0.137989
0.13809
0.138189
0.138286
0.138382
0.138477
0.13857
0.138661
0.138751
0.138839
0.138926
0.139011
0.139095
0.139177
0.139257
0.139336
0.139413
0.139489
0.139563
0.139635
0.139706
0.139775
0.139843
0.139909
0.139973
0.140036
0.140097
0.140157
0.140214
0.140271
0.140325
0.140378
0.14043
0.14048
0.140528
0.140574
0.140619
0.140662
0.140704
0.140744
0.140782
0.140819
0.140853
0.140887
0.140918
0.140948
0.140977
0.141003
0.141028
0.141052
0.141073
0.141093
0.141112
0.141128
0.141143
0.141157
0.141168
0.141178
0.141187
0.141193
0.141198
0.141202
0.141203
0.141203
0.141202
0.141198
0.141193
0.141187
0.141178
0.141168
0.141157
0.141143
0.141128
0.141112
0.141093
0.141073
0.141052
0.141028
0.141003
0.140977
0.140948
0.140918
0.140887
0.140853
0.140819
0.140782
0.140744
0.140704
0.140662
0.140619
0.140574
0.140528
0.14048
0.14043
0.140378
0.140325
0.140271
0.140214
0.140157
0.140097
0.140036
0.139973
0.139909
0.139843
0.139775
0.139706
0.139635
0.139563
0.139489
0.139413
0.139336
0.139257
0.139177
0.139095
0.139011
0.138926
0.138839
0.138751
0.138661
0.13857
0.138477
0.138382
0.138286
0.138189
0.13809
0.137989
0.137887
0.137783
0.137678
0.137571
0.137463
0.137353
0.137242
0.137129
0.137015
0.136899
0.136782
0.136663
0.136543
0.136421
0.136298
0.136174
0.136048
0.13592
0.135791
0.135661
0.135529
0.135396
0.135261
0.135125
0.134988
0.134849
0.134709
0.134567
0.134424
0.13428
0.134134
0.133987
0.133839
0.133689
0.133538
0.133385
0.133231
0.133076
0.13292
0.132762
0.132603
0.132443
0.132281
0.132118
0.131954
0.131788
0.131621
0.131453
0.131284
0.131114
0.130942
0.130769
0.130595
0.130419
0.130243
0.130065
0.129886
0.129705
0.129524
0.129342
0.129158
0.128973
0.128787
0.1286
0.128412
0.128222
0.128032
0.12784
0.127647
0.127454
0.127259
0.127063
0.126866
0.126668
0.126469
0.126269
0.126067
0.125865
0.125662
0.125458
0.125253
0.125047
0.124839
0.124631
0.124422
0.124212
0.124001
0.123789
0.123576
0.123363
0.123148
0.122932
0.122716
0.122499
0.12228
0.122061
0.121841
0.121621
0.121399
0.121176
0.120953
0.120729
0.120504
0.120279
0.120052
0.119825
0.119597
0.119368
0.119139
0.118909
0.118678
0.118446
0.118214
0.117981
0.117747
0.117513
0.117278
0.117042
0.116806
0.116569
0.116331
0.116093
0.115854
0.115615
0.115375
0.115134
0.114893
0.114651
0.114409
0.114166
0.113923
0.113679
0.113435
0.11319
0.112945
0.112699
0.112453
0.112206
0.111959
0.111711
0.111463
0.111215
0.110966
0.110716
0.110467
0.110217
0.109966
0.109716
0.109465
0.109213
0.108961
0.108709
0.108457
0.108204
0.107951
0.107698
0.107445
0.107191
0.106937
0.106683
0.106428
0.106174
0.105919
0.105664
0.105408
0.105153
0.104897
0.104642
0.104386
0.10413
0.103874
0.103617
0.103361
0.103105
0.102848
0.102592
0.102335
0.102078
0.101822
0.101565
0.101308
0.101051
0.100795
0.100538
0.100281
0.100024
0.0997677
0.099511
0.0992545
0.098998
0.0987416
0.0984853
0.0982291
0.097973
0.097717
0.0974612
0.0972055
0.0969499
0.0966945
0.0964393
0.0961843
0.0959295
0.0956748
0.0954204
0.0951662
0.0949122
0.0946585
0.094405
0.0941518
0.0938989
0.0936463
0.0933939
0.0931418
0.0928901
0.0926387
0.0923876
0.0921368
0.0918864
0.0916363
0.0913867
0.0911374
0.0908885
0.0906399
0.0903918
0.0901442
0.0898969
0.0896501
0.0894037
0.0891578
0.0889123
0.0886674
0.0884229
0.0881789
0.0879354
0.0876924
0.0874499
0.087208
0.0869666
0.0867257
0.0864854
0.0862457
0.0860066
0.085768
0.08553
0.0852927
0.0850559
0.0848198
0.0845843
0.0843494
0.0841152
0.0838817
0.0836488
0.0834166
0.083185
0.0829542
0.0827241
0.0824946
0.0822659
0.082038
0.0818107
0.0815842
0.0813585
0.0811335
0.0809093
0.0806858
0.0804632
0.0802413
0.0800203
0.0798
0.0795806
0.079362
0.0791442
0.0789273
0.0787113
0.0784961
0.0782817
0.0780683
0.0778557
0.077644
0.0774332
0.0772234
0.0770144
0.0768064
0.0765993
0.0763931
0.0761879
0.0759836
0.0757803
0.075578
0.0753766
0.0751763
0.0749769
0.0747785
0.0745811
0.0743847
0.0741894
0.0739951
0.0738018
0.0736096
0.0734184
0.0732282
0.0730392
0.0728512
0.0726642
0.0724784
0.0722937
0.07211
0.0719275
0.071746
0.0715657
0.0713865
0.0712084
0.0710315
0.0708557
0.0706811
0.0705076
0.0703353
0.0701641
0.0699942
0.0698254
0.0696578
0.0694913
0.0693261
0.0691621
0.0689993
0.0688377
0.0686774
0.0685183
0.0683604
0.0682037
0.0680483
0.0678942
0.0677413
0.0675896
0.0674392
0.0672902
0.0671423
0.0669958
0.0668506
0.0667066
0.066564
0.0664226
0.0662826
0.0661439
0.0660065
0.0658704
0.0657357
0.0656023
0.0654702
0.0653395
0.0652101
0.0650821
0.0649554
0.0648301
0.0647062
0.0645836
0.0644624
0.0643426
0.0642242
0.0641072
0.0639915
0.0638773
0.0637644
0.063653
0.063543
0.0634344
0.0633272
0.0632214
0.0631171
0.0630141
0.0629126
0.0628126
0.062714
0.0626168
0.0625211
0.0624268
0.062334
0.0622426
0.0621527
0.0620642
0.0619773
0.0618917
0.0618077
0.0617251
0.061644
0.0615644
0.0614863
0.0614097
0.0613345
0.0612609
0.0611887
0.061118
0.0610489
0.0609812
0.060915
0.0608504
0.0607872
0.0607256
0.0606655
0.0606068
0.0605498
0.0604942
0.0604401
0.0603876
0.0603366
0.0602871
0.0602392
0.0601927
0.0601479
0.0601045
0.0600627
0.0600224
0.0599837
0.0599464
0.0599108
0.0598767
0.0598441
0.059813
0.0597835
0.0597556
0.0597292
0.0597044
0.059681
0.0596593
0.0596391
0.0596204
0.0596033
0.0595878
0.0595738
0.0595614
0.0595505
0.0595412
0.0595334
0.0595272
0.0595225
0.0595194
0.0595178
)
;

boundaryField
{
    sides
    {
        type            zeroGradient;
    }
    empty
    {
        type            empty;
    }
}


// ************************************************************************* //
