/*--------------------------------*- C++ -*----------------------------------*\
  =========                 |
  \\      /  F ield         | OpenFOAM: The Open Source CFD Toolbox
   \\    /   O peration     | Website:  https://openfoam.org
    \\  /    A nd           | Version:  7
     \\/     M anipulation  |
\*---------------------------------------------------------------------------*/
FoamFile
{
    version     2.0;
    format      ascii;
    class       volScalarField;
    location    "8.8";
    object      p;
}
// * * * * * * * * * * * * * * * * * * * * * * * * * * * * * * * * * * * * * //

dimensions      [1 -1 -2 0 0 0 0];

internalField   nonuniform List<scalar> 
19968
(
1
1
1
1
1
1
1
1
1
1
1
1
1
1
1
1
1
1
1
1
1
1
1
1
1
1
1
1
1
1
1
1
1
1
1
1
1
1
1
1
1
1
1
1
1
1
1
1
1.59581
8.11635
10.4256
10.4428
10.508
10.5628
10.626
10.6905
10.7541
10.813
10.8664
10.9154
10.9634
11.0131
11.0636
11.113
11.1614
11.209
11.255
11.2994
11.343
11.3863
11.4288
11.4702
11.5102
11.549
11.587
11.6244
11.6608
11.6952
11.727
11.7565
11.7849
11.8135
11.8428
11.8724
11.9008
11.9265
11.9481
11.965
11.9775
11.9867
11.9946
12.0032
12.0133
12.0242
12.0341
12.0404
1
1
1
1
1
1
1
1
1
1
1
1
1
1
1
1
1
1
1
1
1
1
1
1
1
1
1
1
1
1
1
1
1
1
1
1
1
1
1
1
1
1
1
1
1
1
1
1
1.5586
8.03493
10.4147
10.448
10.5047
10.5604
10.623
10.687
10.7504
10.8096
10.8634
10.9132
10.9612
11.0108
11.0608
11.1103
11.1589
11.2068
11.253
11.2976
11.3414
11.3847
11.4269
11.4677
11.507
11.545
11.5823
11.619
11.6549
11.6892
11.7214
11.7515
11.7804
11.8092
11.8384
11.8677
11.8959
11.9213
11.9428
11.9595
11.9716
11.9807
11.9885
11.9968
12.0067
12.0171
12.0267
12.0328
1
1
1
1
1
1
1
1
1
1
1
1
1
1
1
1
1
1
1
1
1
1
1
1
1
1
1
1
1
1
1
1
1
1
1
1
1
1
1
1
1
1
1
1
1
1
1
1
1.48054
7.87059
10.4121
10.4385
10.4949
10.5516
10.6139
10.6779
10.7416
10.8015
10.8561
10.9069
10.955
11.0045
11.0539
11.1035
11.1524
11.2006
11.2471
11.2921
11.3363
11.3797
11.4217
11.4621
11.5007
11.5378
11.574
11.6096
11.6446
11.6786
11.7111
11.7419
11.7716
11.8008
11.83
11.859
11.8868
11.9121
11.9334
11.95
11.9623
11.9715
11.9794
11.9877
11.9972
12.0069
12.0157
12.0214
1
1
1
1
1
1
1
1
1
1
1
1
1
1
1
1
1
1
1
1
1
1
1
1
1
1
1
1
1
1
1
1
1
1
1
1
1
1
1
1
1
1
1
1
1
1
1
1
1.37225
7.61147
10.3993
10.4285
10.4839
10.5418
10.6042
10.6682
10.7322
10.7926
10.8478
10.8994
10.9471
10.9961
11.0446
11.0943
11.1434
11.1919
11.2386
11.2838
11.3282
11.3717
11.4136
11.4535
11.4912
11.5273
11.5621
11.5963
11.6303
11.6638
11.6965
11.728
11.7584
11.7879
11.8168
11.8452
11.8722
11.8967
11.9174
11.9336
11.9458
11.9551
11.9634
11.9719
11.9813
11.9906
11.9989
12.0045
1
1
1
1
1
1
1
1
1
1
1
1
1
1
1
1
1
1
1
1
1
1
1
1
1
1
1
1
1
1
1
1
1
1
1
1
1
1
1
1
1
1
1
1
1
1
1
1
1.23495
7.26314
10.3972
10.4244
10.4775
10.5353
10.5962
10.6591
10.7223
10.7824
10.8375
10.8891
10.9365
10.9848
11.0328
11.0827
11.1321
11.1808
11.2274
11.2725
11.3169
11.3605
11.4025
11.4421
11.4793
11.5144
11.5479
11.5808
11.6136
11.6466
11.6793
11.7114
11.7424
11.7724
11.8014
11.8295
11.8559
11.8795
11.8992
11.9145
11.9257
11.9342
11.9416
11.9492
11.9575
11.9657
11.9728
11.9779
1
1
1
1
1
1
1
1
1
1
1
1
1
1
1
1
1
1
1
1
1
1
1
1
1
1
1
1
1
1
1
1
1
1
1
1
1
1
1
1
1
1
1
1
1
1
1
1
1.01712
6.73016
10.3869
10.428
10.4735
10.5319
10.5917
10.6543
10.717
10.7769
10.8317
10.8825
10.9287
10.9753
11.0219
11.0709
11.1198
11.1677
11.2129
11.2566
11.2996
11.3423
11.3837
11.4228
11.4591
11.493
11.5251
11.5564
11.5876
11.6194
11.6515
11.6834
11.7145
11.7447
11.7738
11.8017
11.8277
11.851
11.8704
11.8855
11.8969
11.9056
11.9133
11.921
11.9292
11.9372
11.9438
11.9487
1
1
1
1
1
1
1
1
1
1
1
1
1
1
1
1
1
1
1
1
1
1
1
1
1
1
1
1
1
1
1
1
1
1
1
1
1
1
1
1
1
1
1
1
1
1
1
1
1.0001
6.00398
10.2908
10.3832
10.4292
10.4942
10.5559
10.6202
10.6834
10.7433
10.7978
10.8476
10.8935
10.9393
10.9854
11.034
11.0826
11.1303
11.1749
11.218
11.2608
11.3035
11.3452
11.3846
11.4215
11.4558
11.488
11.519
11.5496
11.5806
11.612
11.6436
11.6747
11.7052
11.7346
11.7626
11.7886
11.8115
11.8305
11.8452
11.8563
11.8649
11.8725
11.8803
11.8884
11.8964
11.903
11.9081
1
1
1
1
1
1
1
1
1
1
1
1
1
1
1
1
1
1
1
1
1
1
1
1
1
1
1
1
1
1
1
1
1
1
1
1
1
1
1
1
1
1
1
1
1
1
1
1
1
5.07568
10.1502
10.3539
10.4011
10.4701
10.5325
10.5972
10.6595
10.7183
10.7721
10.8203
10.8652
10.9094
10.9543
11.0018
11.0494
11.0963
11.1399
11.1819
11.2239
11.2658
11.307
11.3461
11.3826
11.4166
11.4484
11.4787
11.5083
11.5381
11.5684
11.5991
11.6298
11.6599
11.6891
11.7167
11.7421
11.7642
11.7824
11.7964
11.8067
11.8147
11.822
11.8296
11.8379
11.8465
11.8535
11.8592
1
1
1
1
1
1
1
1
1
1
1
1
1
1
1
1
1
1
1
1
1
1
1
1
1
1
1
1
1
1
1
1
1
1
1
1
1
1
1
1
1
1
1
1
1
1
1
1
1
4.0229
9.85985
10.3171
10.3706
10.4395
10.5015
10.5649
10.6256
10.683
10.7369
10.785
10.8297
10.8728
10.9163
10.9623
11.0082
11.0537
11.0959
11.136
11.1763
11.2163
11.256
11.2939
11.3294
11.3627
11.3938
11.4231
11.4514
11.4799
11.5092
11.5391
11.5692
11.5987
11.627
11.6537
11.6782
11.6997
11.7173
11.7307
11.7404
11.7479
11.755
11.7628
11.7718
11.7815
11.7894
11.7959
1
1
1
1
1
1
1
1
1
1
1
1
1
1
1
1
1
1
1
1
1
1
1
1
1
1
1
1
1
1
1
1
1
1
1
1
1
1
1
1
1
1
1
1
1
1
1
1
1
2.92357
9.3233
10.2938
10.3575
10.4239
10.4817
10.5402
10.5965
10.6503
10.7025
10.7503
10.7942
10.8357
10.8773
10.9212
10.9651
11.009
11.0502
11.0887
11.1268
11.1646
11.2019
11.2377
11.271
11.3019
11.3302
11.3565
11.3818
11.4079
11.4355
11.4644
11.4935
11.5219
11.5491
11.5747
11.5985
11.6194
11.6363
11.6486
11.657
11.663
11.6688
11.6761
11.685
11.6953
11.7037
11.7106
1
1
1
1
1
1
1
1
1
1
1
1
1
1
1
1
1
1
1
1
1
1
1
1
1
1
1
1
1
1
1
1
1
1
1
1
1
1
1
1
1
1
1
1
1
1
1
1
1
1.8627
8.39468
10.3314
10.3241
10.3898
10.4387
10.4936
10.5494
10.6034
10.6558
10.7044
10.7481
10.7888
10.8295
10.8724
10.9153
10.9581
10.999
11.0366
11.0732
11.1091
11.1442
11.1783
11.2099
11.2385
11.2638
11.2865
11.3082
11.3306
11.3549
11.3804
11.4059
11.4302
11.4531
11.4748
11.4951
11.5132
11.5277
11.538
11.5449
11.5501
11.5559
11.5636
11.5735
11.5845
11.5933
11.6006
1
1
1
1
1
1
1
1
1
1
1
1
1
1
1
1
1
1
1
1
1
1
1
1
1
1
1
1
1
1
1
1
1
1
1
1
1
1
1
1
1
1
1
1
1
1
1
1
1
1.03433
6.74992
10.3529
10.3553
10.3938
10.4336
10.4788
10.5264
10.5735
10.6202
10.666
10.707
10.7439
10.7802
10.8183
10.857
10.8957
10.9337
10.9684
11.0012
11.0337
11.0653
11.0966
11.1257
11.1515
11.1738
11.1933
11.2119
11.2312
11.2521
11.2742
11.2962
11.3171
11.337
11.3561
11.3744
11.3906
11.4029
11.4106
11.414
11.4149
11.4157
11.4181
11.4227
11.4289
11.4339
11.4385
1
1
1
1
1
1
1
1
1
1
1
1
1
1
1
1
1
1
1
1
1
1
1
1
1
1
1
1
1
1
1
1
1
1
1
1
1
1
1
1
1
1
1
1
1
1
1
1
1
1.00006
4.62854
9.92991
10.1992
10.2626
10.323
10.3768
10.4275
10.4754
10.5218
10.5671
10.609
10.6462
10.6815
10.7173
10.7538
10.7907
10.8274
10.8615
10.8928
10.9231
10.9529
10.9823
11.0105
11.0355
11.0568
11.0748
11.0907
11.1064
11.1227
11.1397
11.1564
11.172
11.1863
11.1993
11.2106
11.2186
11.2228
11.2226
11.2187
11.2145
11.2126
11.2146
11.2188
11.2243
11.2274
11.2306
1
1
1
1
1
1
1
1
1
1
1
1
1
1
1
1
1
1
1
1
1
1
1
1
1
1
1
1
1
1
1
1
1
1
1
1
1
1
1
1
1
1
1
1
1
1
1
1
1
1
2.40107
8.80164
10.1575
10.1991
10.2713
10.325
10.3727
10.4175
10.4616
10.5051
10.5462
10.5822
10.6144
10.6452
10.6762
10.7084
10.7412
10.7727
10.801
10.8267
10.8512
10.8748
10.8977
10.9182
10.9356
10.9492
10.9598
10.9686
10.9769
10.9856
10.9946
11.0029
11.01
11.0153
11.0184
11.019
11.0158
11.0087
10.9995
10.9897
10.9789
10.9669
10.9492
10.9267
10.9016
10.8796
1
1
1
1
1
1
1
1
1
1
1
1
1
1
1
1
1
1
1
1
1
1
1
1
1
1
1
1
1
1
1
1
1
1
1
1
1
1
1
1
1
1
1
1
1
1
1
1
1
1
1.05941
6.39519
10.2378
10.2337
10.2648
10.2925
10.3204
10.3492
10.3815
10.4175
10.455
10.4894
10.5189
10.5445
10.569
10.595
10.623
10.6514
10.6774
10.6992
10.718
10.7358
10.7528
10.7681
10.7803
10.7887
10.7934
10.7941
10.7925
10.7909
10.7899
10.7891
10.7869
10.781
10.7694
10.7511
10.7251
10.6922
10.654
10.6115
10.5654
10.5168
10.4738
10.4348
10.4145
10.4035
1
1
1
1
1
1
1
1
1
1
1
1
1
1
1
1
1
1
1
1
1
1
1
1
1
1
1
1
1
1
1
1
1
1
1
1
1
1
1
1
1
1
1
1
1
1
1
1
1
1
1.00009
3.29153
9.33533
10.0772
10.1145
10.1513
10.1859
10.2207
10.2566
10.2961
10.3369
10.375
10.407
10.432
10.4519
10.4701
10.4899
10.512
10.5348
10.5554
10.5721
10.5854
10.5961
10.6043
10.6095
10.6105
10.6068
10.5973
10.5825
10.5652
10.5485
10.5332
10.5172
10.4961
10.4657
10.4234
10.3697
10.3079
10.242
10.1747
10.1054
10.0341
9.94869
9.86624
9.75116
9.83945
1
1
1
1
1
1
1
1
1
1
1
1
1
1
1
1
1
1
1
1
1
1
1
1
1
1
1
1
1
1
1
1
1
1
1
1
1
1
1
1
1
1
1
1
1
1
1
1
1
1
1
1.25583
7.37313
10.0861
10.0686
10.0855
10.1133
10.1409
10.1696
10.2038
10.2431
10.2817
10.3139
10.3366
10.3509
10.3603
10.37
10.3836
10.4011
10.4191
10.4334
10.4423
10.4472
10.448
10.4455
10.4382
10.4261
10.4076
10.3814
10.3491
10.3148
10.2817
10.2487
10.2105
10.1601
10.0922
10.0044
9.899
9.77495
9.63045
9.44449
9.19882
8.82903
8.27995
7.35423
5.46795
1
1
1
1
1
1
1
1
1
1
1
1
1
1
1
1
1
1
1
1
1
1
1
1
1
1
1
1
1
1
1
1
1
1
1
1
1
1
1
1
1
1
1
1
1
1
1
1
1
1
1
1.0022
4.70937
9.69679
9.90748
9.95649
10.0021
10.0356
10.0637
10.0929
10.1298
10.1696
10.2058
10.2328
10.2488
10.2558
10.259
10.2647
10.276
10.2899
10.3016
10.3088
10.3098
10.3061
10.2969
10.2822
10.2625
10.237
10.2034
10.1608
10.1119
10.0608
10.0085
9.95167
9.88174
9.79134
9.67244
9.52659
9.34537
9.13219
8.85476
8.5057
8.0025
7.34672
6.14094
4.51308
1
1
1
1
1
1
1
1
1
1
1
1
1
1
1
1
1
1
1
1
1
1
1
1
1
1
1
1
1
1
1
1
1
1
1
1
1
1
1
1
1
1
1
1
1
1
1
1
1
1
1
0.999996
2.00347
8.29848
9.85574
9.8891
9.94076
9.97049
9.9973
10.0223
10.0526
10.0849
10.1182
10.1451
10.1613
10.1646
10.1617
10.1596
10.1632
10.1711
10.178
10.1801
10.1764
10.1673
10.1509
10.1276
10.0979
10.0627
10.0205
9.96921
9.90783
9.83936
9.76558
9.68701
9.59534
9.48386
9.3394
9.16123
8.93872
8.67251
8.34444
7.93028
7.39959
6.65837
5.63666
4.57699
1
1
1
1
1
1
1
1
1
1
1
1
1
1
1
1
1
1
1
1
1
1
1
1
1
1
1
1
1
1
1
1
1
1
1
1
1
1
1
1
1
1
1
1
1
1
1
1
1
1
1
0.999999
1.03623
5.44282
9.67198
9.82668
9.87029
9.90582
9.93834
9.96613
9.9855
9.99817
10.0183
10.0384
10.0523
10.0558
10.0526
10.0484
10.0466
10.0468
10.0462
10.0413
10.0322
10.0179
9.99657
9.96693
9.92835
9.88296
9.83134
9.772
9.70091
9.61906
9.52661
9.42745
9.31516
9.18442
9.02189
8.82267
8.57899
8.28515
7.93487
7.50252
6.97939
6.31561
5.53362
4.73529
1
1
1
1
1
1
1
1
1
1
1
1
1
1
1
1
1
1
1
1
1
1
1
1
1
1
1
1
1
1
1
1
1
1
1
1
1
1
1
1
1
1
1
1
1
1
1
1
1
1
1
1
1.00001
2.22012
8.41308
9.78966
9.78674
9.83162
9.86395
9.89481
9.91229
9.92286
9.93476
9.94479
9.95129
9.95118
9.9466
9.94038
9.93386
9.92613
9.91695
9.90419
9.88797
9.86695
9.83945
9.80416
9.75922
9.70629
9.64591
9.57801
9.49778
9.40555
9.29956
9.18365
9.05402
8.90638
8.73128
8.52221
8.27354
7.97652
7.63316
7.21266
6.73131
6.18119
5.57373
4.91799
1
1
1
1
1
1
1
1
1
1
1
1
1
1
1
1
1
1
1
1
1
1
1
1
1
1
1
1
1
1
1
1
1
1
1
1
1
1
1
1
1
1
1
1
1
1
1
1
1
1
1
1
1
1.04871
5.47448
9.6625
9.73865
9.76827
9.79059
9.81214
9.82555
9.83282
9.84077
9.84619
9.84914
9.848
9.84342
9.83575
9.82553
9.81089
9.7936
9.77308
9.74788
9.71728
9.68039
9.6382
9.58875
9.53185
9.46569
9.38997
9.30118
9.20085
9.08677
8.96025
8.81833
8.65816
8.47432
8.26185
8.01696
7.73028
7.40952
7.02192
6.60382
6.14714
5.63216
5.11223
1
1
1
1
1
1
1
1
1
1
1
1
1
1
1
1
1
1
1
1
1
1
1
1
1
1
1
1
1
1
1
1
1
1
1
1
1
1
1
1
1
1
1
1
1
1
1
1
1
1
1
1
1
1.00005
2.03212
8.18845
9.74464
9.70593
9.72458
9.7395
9.7438
9.74352
9.74384
9.74323
9.74299
9.74035
9.73525
9.72509
9.70944
9.68986
9.66722
9.64141
9.6103
9.57195
9.52568
9.47546
9.42093
9.36041
9.28966
9.20711
9.11156
9.00665
8.89029
8.76006
8.61213
8.44476
8.25563
8.04276
7.80672
7.53224
7.23887
6.89702
6.53398
6.14019
5.71219
5.28314
1
1
1
1
1
1
1
1
1
1
1
1
1
1
1
1
1
1
1
1
1
1
1
1
1
1
1
1
1
1
1
1
1
1
1
1
1
1
1
1
1
1
1
1
1
1
1
1
1
1
1
1
1
1
1.03313
4.84679
9.39494
9.6368
9.63158
9.64603
9.66113
9.6665
9.66738
9.66498
9.65946
9.65313
9.64538
9.63085
9.60674
9.58018
9.55022
9.52011
9.48341
9.43883
9.3844
9.32557
9.26438
9.19887
9.12261
9.03322
8.93248
8.825
8.70905
8.57998
8.43251
8.2642
8.07544
7.86452
7.63744
7.37433
7.11049
6.80452
6.48341
6.14789
5.79488
5.41763
1
1
1
1
1
1
1
1
1
1
1
1
1
1
1
1
1
1
1
1
1
1
1
1
1
1
1
1
1
1
1
1
1
1
1
1
1
1
1
1
1
1
1
1
1
1
1
1
1
1
1
1
1
1
1.00003
1.51992
7.56222
9.65351
9.60247
9.59361
9.58316
9.57893
9.5736
9.56692
9.55672
9.54648
9.53588
9.51823
9.48954
9.45623
9.4229
9.38993
9.34998
9.3037
9.2472
9.18462
9.1184
9.04695
8.96366
8.86868
8.76561
8.65729
8.54258
8.41673
8.27365
8.10901
7.92653
7.71995
7.50012
7.25697
7.01319
6.73139
6.45281
6.16078
5.85208
5.51477
1
1
1
1
1
1
1
1
1
1
1
1
1
1
1
1
1
1
1
1
1
1
1
1
1
1
1
1
1
1
1
1
1
1
1
1
1
1
1
1
1
1
1
1
1
1
1
1
1
1
1
1
1
1
1
1.00805
3.83712
8.9575
9.42917
9.46469
9.47632
9.47448
9.46972
9.46101
9.44671
9.43036
9.41631
9.40051
9.37353
9.33823
9.30174
9.26494
9.2198
9.17166
9.1152
9.05248
8.98304
8.90665
8.81662
8.71816
8.61512
8.50592
8.39091
8.26668
8.12876
7.97094
7.79956
7.601
7.39223
7.17086
6.93784
6.68588
6.44224
6.1707
5.88887
5.59715
1
1
1
1
1
1
1
1
1
1
1
1
1
1
1
1
1
1
1
1
1
1
1
1
1
1
1
1
1
1
1
1
1
1
1
1
1
1
1
1
1
1
1
1
1
1
1
1
1
1
1
1
1
1
1
1
1.21474
6.236
9.39764
9.41155
9.39097
9.38052
9.37653
9.36836
9.35507
9.3356
9.31484
9.29752
9.26788
9.23015
9.18981
9.14798
9.0971
9.04487
8.98791
8.92738
8.85727
8.77734
8.68567
8.5855
8.48391
8.37447
8.25885
8.13356
7.99759
7.84576
7.68548
7.49845
7.30491
7.10081
6.88333
6.66324
6.43531
6.17428
5.9288
5.6745
1
1
1
1
1
1
1
1
1
1
1
1
1
1
1
1
1
1
1
1
1
1
1
1
1
1
1
1
1
1
1
1
1
1
1
1
1
1
1
1
1
1
1
1
1
1
1
1
1
1
1
1
1
1
1
1
1.0014
2.19217
8.04664
9.30133
9.25351
9.26138
9.26387
9.26157
9.25469
9.23769
9.21372
9.19357
9.16324
9.12312
9.07998
9.03396
8.97973
8.92409
8.86596
8.8065
8.73604
8.653
8.56363
8.46365
8.36571
8.25712
8.1416
8.01624
7.88195
7.73326
7.58132
7.40806
7.22936
7.04139
6.84475
6.64406
6.42256
6.1908
5.97614
5.74213
1
1
1
1
1
1
1
1
1
1
1
1
1
1
1
1
1
1
1
1
1
1
1
1
1
1
1
1
1
1
1
1
1
1
1
1
1
1
1
1
1
1
1
1
1
1
1
1
1
1
1
1
1
1
1
1
1
1.04047
4.18964
8.89303
9.16746
9.17845
9.17736
9.17297
9.16548
9.14767
9.12153
9.0971
9.06493
9.02146
8.97579
8.92852
8.87434
8.81863
8.75899
8.69577
8.62476
8.5407
8.4507
8.35615
8.25635
8.15353
8.04107
7.91871
7.78669
7.63896
7.49191
7.33114
7.16314
6.99116
6.81128
6.62003
6.41646
6.21505
6.01416
5.79514
1
1
1
1
1
1
1
1
1
1
1
1
1
1
1
1
1
1
1
1
1
1
1
1
1
1
1
1
1
1
1
1
1
1
1
1
1
1
1
1
1
1
1
1
1
1
1
1
1
1
1
1
1
1
1
1
1
1.00008
1.26026
5.74865
9.01641
9.15248
9.12664
9.11502
9.10014
9.0744
9.0431
9.01286
8.97644
8.92968
8.87986
8.83096
8.77779
8.72306
8.66215
8.59455
8.52401
8.43903
8.34998
8.25549
8.15585
8.0541
7.94558
7.82816
7.70008
7.56
7.41792
7.26682
7.10731
6.94791
6.777
6.59579
6.41524
6.23188
6.03969
5.8377
1
1
1
1
1
1
1
1
1
1
1
1
1
1
1
1
1
1
1
1
1
1
1
1
1
1
1
1
1
1
1
1
1
1
1
1
1
1
1
1
1
1
1
1
1
1
1
1
1
1
1
1
1
1
1
1
1
1
1.00212
1.63347
7.26468
9.1727
9.12092
9.06829
9.02308
8.98316
8.94571
8.91278
8.87637
8.83205
8.78311
8.73348
8.68401
8.6299
8.56917
8.49941
8.42723
8.34346
8.25442
8.16144
8.06384
7.96336
7.85631
7.74371
7.62381
7.49493
7.36014
7.21651
7.06545
6.91356
6.74839
6.57778
6.41397
6.24049
6.05878
5.87513
1
1
1
1
1
1
1
1
1
1
1
1
1
1
1
1
1
1
1
1
1
1
1
1
1
1
1
1
1
1
1
1
1
1
1
1
1
1
1
1
1
1
1
1
1
1
1
1
1
1
1
1
1
1
1
1
1
1
1
1.01155
3.05147
8.33471
8.95289
8.89562
8.86486
8.83637
8.81378
8.7919
8.76557
8.73234
8.69209
8.64596
8.59577
8.54309
8.48096
8.40985
8.33676
8.25535
8.16803
8.07694
7.98161
7.88243
7.7763
7.66697
7.55337
7.43336
7.30581
7.1696
7.02803
6.88247
6.72418
6.56578
6.41184
6.24599
6.07634
5.90938
1
1
1
1
1
1
1
1
1
1
1
1
1
1
1
1
1
1
1
1
1
1
1
1
1
1
1
1
1
1
1
1
1
1
1
1
1
1
1
1
1
1
1
1
1
1
1
1
1
1
1
1
1
1
1
1
1
1
1
1.00002
1.10936
4.37582
8.60363
8.79501
8.77108
8.76875
8.752
8.72873
8.6987
8.66326
8.62269
8.57731
8.52548
8.47109
8.40941
8.33535
8.26127
8.18014
8.09339
8.00351
7.91002
7.81289
7.70969
7.60212
7.49292
7.37867
7.25668
7.1276
6.99487
6.8557
6.70636
6.55957
6.41256
6.25548
6.09992
5.9477
1
1
1
1
1
1
1
1
1
1
1
1
1
1
1
1
1
1
1
1
1
1
1
1
1
1
1
1
1
1
1
1
1
1
1
1
1
1
1
1
1
1
1
1
1
1
1
1
1
1
1
1
1
1
1
1
1
1
1
1
1.00051
1.29532
5.19002
8.58476
8.71817
8.72019
8.70736
8.67847
8.64282
8.60308
8.55918
8.51084
8.45663
8.39929
8.33642
8.26411
8.18941
8.10904
8.02423
7.93608
7.84464
7.74956
7.64906
7.54368
7.4374
7.32736
7.20999
7.08744
6.96234
6.82983
6.6899
6.5552
6.41831
6.27479
6.13902
6.00498
1
1
1
1
1
1
1
1
1
1
1
1
1
1
1
1
1
1
1
1
1
1
1
1
1
1
1
1
1
1
1
1
1
1
1
1
1
1
1
1
1
1
1
1
1
1
1
1
1
1
1
1
1
1
1
1
1
1
1
1
1
1.00284
1.49086
5.8712
8.58567
8.69476
8.66731
8.63233
8.59273
8.548
8.50054
8.4491
8.39302
8.33368
8.27052
8.20142
8.12789
8.0492
7.96625
7.87968
7.78976
7.69623
7.5973
7.49399
7.38991
7.28242
7.16971
7.05321
6.93343
6.80779
6.68089
6.56294
6.44479
6.32625
6.21856
6.11613
1
1
1
1
1
1
1
1
1
1
1
1
1
1
1
1
1
1
1
1
1
1
1
1
1
1
1
1
1
1
1
1
1
1
1
1
1
1
1
1
1
1
1
1
1
1
1
1
1
1
1
1
1
1
1
1
1
1
1
1
1
1
1.00722
1.71988
6.45675
8.5678
8.61629
8.5864
8.54246
8.4958
8.44423
8.38922
8.33004
8.26935
8.20598
8.13822
8.06575
7.9892
7.90893
7.82493
7.73692
7.64514
7.54806
7.44749
7.34587
7.24046
7.13298
7.0236
6.91276
6.80245
6.70249
6.61671
6.52918
6.4534
6.38799
6.32552
1
1
1
1
1
1
1
1
1
1
1
1
1
1
1
1
1
1
1
1
1
1
1
1
1
1
1
1
1
1
1
1
1
1
1
1
1
1
1
1
1
1
1
1
1
1
1
1
1
1
1
1
1
1
1
1
1
1
1
1
1
1
1.00001
1.01466
1.98347
6.90308
8.53972
8.54717
8.50776
8.45457
8.39979
8.34056
8.27594
8.21184
8.14639
8.07815
8.00704
7.93268
7.85562
7.77437
7.68809
7.59806
7.50388
7.40741
7.30752
7.20714
7.11069
7.01804
6.93571
6.8642
6.80695
6.76658
6.72269
6.69041
6.64885
6.59911
1
1
1
1
1
1
1
1
1
1
1
1
1
1
1
1
1
1
1
1
1
1
1
1
1
1
1
1
1
1
1
1
1
1
1
1
1
1
1
1
1
1
1
1
1
1
1
1
1
1
1
1
1
1
1
1
1
1
1
1
1
1
1
1.00003
1.02647
2.24676
7.2992
8.50175
8.46038
8.41137
8.34731
8.2847
8.2202
8.15522
8.08796
8.01961
7.94964
7.8767
7.80106
7.72104
7.6361
7.54835
7.4575
7.36809
7.27913
7.19846
7.13563
7.08909
7.05705
7.03824
7.03653
7.02754
7.00044
6.97108
6.91082
6.83871
1
1
1
1
1
1
1
1
1
1
1
1
1
1
1
1
1
1
1
1
1
1
1
1
1
1
1
1
1
1
1
1
1
1
1
1
1
1
1
1
1
1
1
1
1
1
1
1
1
1
1
1
1
1
1
1
1
1
1
1
1
1
1
1
1.00008
1.04185
2.65811
7.53342
8.38711
8.33353
8.28876
8.22843
8.16445
8.10027
8.03607
7.97135
7.90245
7.82996
7.75236
7.66965
7.58631
7.5018
7.42113
7.34967
7.2989
7.27327
7.27209
7.28386
7.30909
7.32833
7.34065
7.30837
7.26141
7.2039
7.11265
7.01974
1
1
1
1
1
1
1
1
1
1
1
1
1
1
1
1
1
1
1
1
1
1
1
1
1
1
1
1
1
1
1
1
1
1
1
1
1
1
1
1
1
1
1
1
1
1
1
1
1
1
1
1
1
1
1
1
1
1
1
1
1
1
1
1
1
1.00015
1.07263
2.94438
7.57756
8.2705
8.21863
8.16278
8.10901
8.05235
7.99286
7.92793
7.8585
7.7821
7.70376
7.62132
7.54667
7.47662
7.4341
7.42424
7.44092
7.4958
7.56175
7.60486
7.63907
7.63993
7.5981
7.52433
7.45417
7.37164
7.26341
7.16694
1
1
1
1
1
1
1
1
1
1
1
1
1
1
1
1
1
1
1
1
1
1
1
1
1
1
1
1
1
1
1
1
1
1
1
1
1
1
1
1
1
1
1
1
1
1
1
1
1
1
1
1
1
1
1
1
1
1
1
1
1
1
1
1
1
1
1.00034
1.10089
3.03632
7.49997
8.16065
8.11113
8.06257
8.01121
7.95622
7.89172
7.82009
7.74131
7.66499
7.59526
7.55018
7.54033
7.57496
7.65804
7.75821
7.86162
7.91482
7.92548
7.91647
7.86115
7.77187
7.6804
7.6032
7.51085
7.40186
7.31354
1
1
1
1
1
1
1
1
1
1
1
1
1
1
1
1
1
1
1
1
1
1
1
1
1
1
1
1
1
1
1
1
1
1
1
1
1
1
1
1
1
1
1
1
1
1
1
1
1
1
1
1
1
1
1
1
1
1
1
1
1
1
1
1
1
1
1
1.00058
1.11302
2.9738
7.36889
8.07598
8.03164
7.9813
7.92095
7.85247
7.78229
7.70452
7.65355
7.63572
7.6727
7.78012
7.92382
8.07254
8.17555
8.23029
8.20828
8.15903
8.10184
8.01118
7.90077
7.81385
7.74098
7.64703
7.54521
7.46832
1
1
1
1
1
1
1
1
1
1
1
1
1
1
1
1
1
1
1
1
1
1
1
1
1
1
1
1
1
1
1
1
1
1
1
1
1
1
1
1
1
1
1
1
1
1
1
1
1
1
1
1
1
1
1
1
1
1
1
1
1
1
1
1
1
1
1
1
1.00072
1.108
2.89048
7.18827
7.98278
7.94666
7.88201
7.80704
7.74507
7.70907
7.73196
7.84616
8.0241
8.24483
8.40491
8.48604
8.52195
8.47901
8.38904
8.31298
8.2384
8.13822
8.02857
7.95144
7.88392
7.79191
7.699
7.62937
1
1
1
1
1
1
1
1
1
1
1
1
1
1
1
1
1
1
1
1
1
1
1
1
1
1
1
1
1
1
1
1
1
1
1
1
1
1
1
1
1
1
1
1
1
1
1
1
1
1
1
1
1
1
1
1
1
1
1
1
1
1
1
1
1
1
1
1
1
1.00068
1.09941
2.75665
6.94117
7.87537
7.82633
7.77587
7.76824
7.87048
8.07803
8.35966
8.60481
8.74588
8.78329
8.77814
8.72494
8.62607
8.51932
8.44024
8.36583
8.26669
8.16373
8.09655
8.03397
7.9443
7.85818
7.79074
1
1
1
1
1
1
1
1
1
1
1
1
1
1
1
1
1
1
1
1
1
1
1
1
1
1
1
1
1
1
1
1
1
1
1
1
1
1
1
1
1
1
1
1
1
1
1
1
1
1
1
1
1
1
1
1
1
1
1
1
1
1
1
1
1
1
1
1
1
1
1.0006
1.08594
2.56506
6.59555
7.74341
7.86115
8.03529
8.43535
8.76945
8.99083
9.07593
9.05199
8.98827
8.93165
8.84369
8.73042
8.63679
8.57186
8.50288
8.40619
8.31491
8.25661
8.19453
8.10275
8.01628
7.9467
1
1
1
1
1
1
1
1
1
1
1
1
1
1
1
1
1
1
1
1
1
1
1
1
1
1
1
1
1
1
1
1
1
1
1
1
1
1
1
1
1
1
1
1
1
1
1
1
1
1
1
1
1
1
1
1
1
1
1
1
1
1
1
1
1
1
1
1
1
1
1
1.00049
1.06835
2.3157
6.18946
8.20426
8.85278
9.19065
9.33299
9.3703
9.30742
9.21376
9.12582
9.04928
8.94737
8.83678
8.76225
8.7105
8.63902
8.54082
8.46487
8.41591
8.35062
8.2538
8.17015
8.10451
1
1
1
1
1
1
1
1
1
1
1
1
1
1
1
1
1
1
1
1
1
1
1
1
1
1
1
1
1
1
1
1
1
1
1
1
1
1
1
1
1
1
1
1
1
1
1
1
1
1
1
1
1
1
1
1
1
1
1
1
1
1
1
1
1
1
1
1
1
1
1
1
1.00035
1.04886
2.05445
7.80164
9.86072
9.69409
9.60072
9.50924
9.39856
9.30446
9.22845
9.16103
9.06989
8.98128
8.92104
8.86982
8.78834
8.68681
8.61734
8.56902
8.49455
8.38955
8.31229
8.25284
1
1
1
1
1
1
1
1
1
1
1
1
1
1
1
1
1
1
1
1
1
1
1
1
1
1
1
1
1
1
1
1
1
1
1
1
1
1
1
1
1
1
1
1
1
1
1
1
1
1
1
1
1
1
1
1
1
1
1
1
1
1
1
1
1
1
1
1
1
1
1
1
1
1.00025
1.03147
5.33135
9.90711
9.77944
9.67991
9.58636
9.50521
9.43225
9.35356
9.27557
9.18639
9.10964
9.05338
9.00229
8.9206
8.83545
8.77548
8.72689
8.64474
8.53956
8.46897
8.40881
1
1
1
1
1
1
1
1
1
1
1
1
1
1
1
1
1
1
1
1
1
1
1
1
1
1
1
1
1
1
1
1
1
1
1
1
1
1
1
1
1
1
1
1
1
1
1
1
1
1
1
1
1
1
1
1
1
1
1
1
1
1
1
1
1
1
1
1
1
1
1
1
1
1
1.00005
2.23697
8.54425
9.82477
9.72287
9.67769
9.60319
9.5234
9.44737
9.38175
9.32313
9.26148
9.20025
9.13916
9.05754
8.97798
8.91571
8.86011
8.77058
8.67733
8.61611
8.55812
1
1
1
1
1
1
1
1
1
1
1
1
1
1
1
1
1
1
1
1
1
1
1
1
1
1
1
1
1
1
1
1
1
1
1
1
1
1
1
1
1
1
1
1
1
1
1
1
1
1
1
1
1
1
1
1
1
1
1
1
1
1
1
1
1
1
1
1
1
1
1
1
1
1
1
1.04515
5.82415
9.80033
9.80854
9.75048
9.68728
9.63077
9.57109
9.51229
9.45002
9.38547
9.3195
9.25695
9.19276
9.12117
9.05563
8.98701
8.90055
8.82256
8.76272
8.6996
1
1
1
1
1
1
1
1
1
1
1
1
1
1
1
1
1
1
1
1
1
1
1
1
1
1
1
1
1
1
1
1
1
1
1
1
1
1
1
1
1
1
1
1
1
1
1
1
1
1
1
1
1
1
1
1
1
1
1
1
1
1
1
1
1
1
1
1
1
1
1
1
1
1
1
1.00007
2.65053
8.73718
9.81071
9.77704
9.73001
9.68917
9.65123
9.60447
9.55066
9.49241
9.43135
9.367
9.29754
9.22678
9.16176
9.09412
9.03189
8.97183
8.91094
8.84144
1
1
1
1
1
1
1
1
1
1
1
1
1
1
1
1
1
1
1
1
1
1
1
1
1
1
1
1
1
1
1
1
1
1
1
1
1
1
1
1
1
1
1
1
1
1
1
1
1
1
1
1
1
1
1
1
1
1
1
1
1
1
1
1
1
1
1
1
1
1
1
1
1
1
1
1
1.08785
6.37964
9.8589
9.88911
9.83051
9.78695
9.73024
9.67613
9.62318
9.57016
9.51614
9.46054
9.4045
9.34692
9.28874
9.22928
9.16846
9.10228
9.03462
8.96407
1
1
1
1
1
1
1
1
1
1
1
1
1
1
1
1
1
1
1
1
1
1
1
1
1
1
1
1
1
1
1
1
1
1
1
1
1
1
1
1
1
1
1
1
1
1
1
1
1
1
1
1
1
1
1
1
1
1
1
1
1
1
1
1
1
1
1
1
1
1
1
1
1
1
1
1
1.00017
3.38199
9.15948
9.90565
9.84532
9.80862
9.76292
9.71935
9.67281
9.62519
9.57627
9.5266
9.47753
9.4285
9.37836
9.32449
9.26354
9.20148
9.13683
9.07355
1
1
1
1
1
1
1
1
1
1
1
1
1
1
1
1
1
1
1
1
1
1
1
1
1
1
1
1
1
1
1
1
1
1
1
1
1
1
1
1
1
1
1
1
1
1
1
1
1
1
1
1
1
1
1
1
1
1
1
1
1
1
1
1
1
1
1
1
1
1
1
1
1
1
1
1
1
1.33917
7.62801
10.0456
9.92717
9.85575
9.80639
9.76669
9.72832
9.68865
9.64686
9.60189
9.55234
9.49991
9.44622
9.39254
9.33604
9.2794
9.22092
9.16277
1
1
1
1
1
1
1
1
1
1
1
1
1
1
1
1
1
1
1
1
1
1
1
1
1
1
1
1
1
1
1
1
1
1
1
1
1
1
1
1
1
1
1
1
1
1
1
1
1
1
1
1
1
1
1
1
1
1
1
1
1
1
1
1
1
1
1
1
1
1
1
1
1
1
1
1
1
1.00352
5.16803
9.74492
9.91507
9.89662
9.867
9.82326
9.78117
9.73803
9.69337
9.64712
9.59958
9.55125
9.49938
9.44639
9.39351
9.34104
9.28783
9.23363
1
1
1
1
1
1
1
1
1
1
1
1
1
1
1
1
1
1
1
1
1
1
1
1
1
1
1
1
1
1
1
1
1
1
1
1
1
1
1
1
1
1
1
1
1
1
1
1
1
1
1
1
1
1
1
1
1
1
1
1
1
1
1
1
1
1
1
1
1
1
1
1
1
1
1
1
1
0.999998
2.64598
8.82709
10.0371
9.97486
9.93521
9.88388
9.83833
9.79218
9.7455
9.69879
9.65195
9.60501
9.55817
9.51136
9.464
9.41619
9.36702
9.31652
1
1
1
1
1
1
1
1
1
1
1
1
1
1
1
1
1
1
1
1
1
1
1
1
1
1
1
1
1
1
1
1
1
1
1
1
1
1
1
1
1
1
1
1
1
1
1
1
1
1
1
1
1
1
1
1
1
1
1
1
1
1
1
1
1
1
1
1
1
1
1
1
1
1
1
1
1
1
1.11017
7.16861
10.1498
10.0543
9.97671
9.92444
9.87993
9.83597
9.79067
9.74485
9.69836
9.65136
9.60452
9.55719
9.50911
9.46042
9.41097
9.36004
1
1
1
1
1
1
1
1
1
1
1
1
1
1
1
1
1
1
1
1
1
1
1
1
1
1
1
1
1
1
1
1
1
1
1
1
1
1
1
1
1
1
1
1
1
1
1
1
1
1
1
1
1
1
1
1
1
1
1
1
1
1
1
1
1
1
1
1
1
1
1
1
1
1
1
1
1
1
1.00033
4.99897
9.79839
10.0086
9.98863
9.96138
9.91962
9.87723
9.83306
9.78835
9.74289
9.69661
9.65011
9.60281
9.55484
9.50627
9.45709
9.40737
1
1
1
1
1
1
1
1
1
1
1
1
1
1
1
1
1
1
1
1
1
1
1
1
1
1
1
1
1
1
1
1
1
1
1
1
1
1
1
1
1
1
1
1
1
1
1
1
1
1
1
1
1
1
1
1
1
1
1
1
1
1
1
1
1
1
1
1
1
1
1
1
1
1
1
1
1
1
0.999999
2.8799
9.07499
10.1463
10.0814
10.0371
9.98656
9.93968
9.89295
9.84635
9.79957
9.75231
9.70501
9.65691
9.60846
9.55956
9.51011
9.46033
1
1
1
1
1
1
1
1
1
1
1
1
1
1
1
1
1
1
1
1
1
1
1
1
1
1
1
1
1
1
1
1
1
1
1
1
1
1
1
1
1
1
1
1
1
1
1
1
1
1
1
1
1
1
1
1
1
1
1
1
1
1
1
1
1
1
1
1
1
1
1
1
1
1
1
1
1
1
1
1.42273
7.77156
10.2276
10.1184
10.0616
10.0159
9.97113
9.9261
9.88081
9.83569
9.79011
9.74413
9.69715
9.64971
9.60175
9.55316
9.50409
1
1
1
1
1
1
1
1
1
1
1
1
1
1
1
1
1
1
1
1
1
1
1
1
1
1
1
1
1
1
1
1
1
1
1
1
1
1
1
1
1
1
1
1
1
1
1
1
1
1
1
1
1
1
1
1
1
1
1
1
1
1
1
1
1
1
1
1
1
1
1
1
1
1
1
1
1
1
1
1.00706
6.10589
10.1265
10.1503
10.0981
10.0564
10.0098
9.9632
9.91686
9.87122
9.82562
9.77979
9.73325
9.68633
9.63898
9.59115
9.54275
1
1
1
1
1
1
1
1
1
1
1
1
1
1
1
1
1
1
1
1
1
1
1
1
1
1
1
1
1
1
1
1
1
1
1
1
1
1
1
1
1
1
1
1
1
1
1
1
1
1
1
1
1
1
1
1
1
1
1
1
1
1
1
1
1
1
1
1
1
1
1
1
1
1
1
1
1
1
1
0.999998
4.29263
9.7255
10.1288
10.089
10.0625
10.0258
9.98753
9.94683
9.90393
9.85987
9.81505
9.7694
9.7232
9.67642
9.62914
9.58125
1
1
1
1
1
1
1
1
1
1
1
1
1
1
1
1
1
1
1
1
1
1
1
1
1
1
1
1
1
1
1
1
1
1
1
1
1
1
1
1
1
1
1
1
1
1
1
1
1
1
1
1
1
1
1
1
1
1
1
1
1
1
1
1
1
1
1
1
1
1
1
1
1
1
1
1
1
1
1
0.999999
2.73172
9.0271
10.242
10.1647
10.126
10.0812
10.0374
9.99274
9.94677
9.90029
9.85394
9.80759
9.76105
9.71416
9.66681
9.61902
1
1
1
1
1
1
1
1
1
1
1
1
1
1
1
1
1
1
1
1
1
1
1
1
1
1
1
1
1
1
1
1
1
1
1
1
1
1
1
1
1
1
1
1
1
1
1
1
1
1
1
1
1
1
1
1
1
1
1
1
1
1
1
1
1
1
1
1
1
1
1
1
1
1
1
1
1
1
1
1
1.58187
8.03029
10.3185
10.2141
10.1612
10.1121
10.0661
10.021
9.97583
9.93038
9.88529
9.84008
9.79444
9.74829
9.70159
9.65447
1
1
1
1
1
1
1
1
1
1
1
1
1
1
1
1
1
1
1
1
1
1
1
1
1
1
1
1
1
1
1
1
1
1
1
1
1
1
1
1
1
1
1
1
1
1
1
1
1
1
1
1
1
1
1
1
1
1
1
1
1
1
1
1
1
1
1
1
1
1
1
1
1
1
1
1
1
1
1
1
1.01708
6.80242
10.3108
10.2517
10.1883
10.1357
10.0871
10.0411
9.99632
9.95193
9.90797
9.86387
9.81922
9.77393
9.72792
9.68152
1
1
1
1
1
1
1
1
1
1
1
1
1
1
1
1
1
1
1
1
1
1
1
1
1
1
1
1
1
1
1
1
1
1
1
1
1
1
1
1
1
1
1
1
1
1
1
1
1
1
1
1
1
1
1
1
1
1
1
1
1
1
1
1
1
1
1
1
1
1
1
1
1
1
1
1
1
1
1
1
1.00001
5.45872
10.0928
10.2126
10.1648
10.1329
10.095
10.0559
10.0153
9.97345
9.93049
9.88694
9.84283
9.79809
9.75242
9.70649
1
1
1
1
1
1
1
1
1
1
1
1
1
1
1
1
1
1
1
1
1
1
1
1
1
1
1
1
1
1
1
1
1
1
1
1
1
1
1
1
1
1
1
1
1
1
1
1
1
1
1
1
1
1
1
1
1
1
1
1
1
1
1
1
1
1
1
1
1
1
1
1
1
1
1
1
1
1
1
1
1
4.19539
9.77615
10.2374
10.1847
10.1581
10.1214
10.0838
10.0439
10.0025
9.95948
9.91546
9.87101
9.82603
9.78007
9.73409
1
1
1
1
1
1
1
1
1
1
1
1
1
1
1
1
1
1
1
1
1
1
1
1
1
1
1
1
1
1
1
1
1
1
1
1
1
1
1
1
1
1
1
1
1
1
1
1
1
1
1
1
1
1
1
1
1
1
1
1
1
1
1
1
1
1
1
1
1
1
1
1
1
1
1
1
1
1
1
1
1
3.09394
9.35859
10.2706
10.2039
10.173
10.1327
10.0934
10.0524
10.0109
9.96847
9.92489
9.88124
9.8374
9.79256
9.74746
1
1
1
1
1
1
1
1
1
1
1
1
1
1
1
1
1
1
1
1
1
1
1
1
1
1
1
1
1
1
1
1
1
1
1
1
1
1
1
1
1
1
1
1
1
1
1
1
1
1
1
1
1
1
1
1
1
1
1
1
1
1
1
1
1
1
1
1
1
1
1
1
1
1
1
1
1
1
1
1
1
2.20364
8.80625
10.3213
10.2433
10.206
10.1639
10.124
10.0834
10.0422
10.0005
9.95757
9.91461
9.87079
9.82627
9.78144
1
1
1
1
1
1
1
1
1
1
1
1
1
1
1
1
1
1
1
1
1
1
1
1
1
1
1
1
1
1
1
1
1
1
1
1
1
1
1
1
1
1
1
1
1
1
1
1
1
1
1
1
1
1
1
1
1
1
1
1
1
1
1
1
1
1
1
1
1
1
1
1
1
1
1
1
1
1
1
1
1
1.58611
8.06915
10.3602
10.2714
10.2248
10.1803
10.1384
10.0968
10.0553
10.0141
9.9716
9.92932
9.88601
9.84225
9.7979
1
1
1
1
1
1
1
1
1
1
1
1
1
1
1
1
1
1
1
1
1
1
1
1
1
1
1
1
1
1
1
1
1
1
1
1
1
1
1
1
1
1
1
1
1
1
1
1
1
1
1
1
1
1
1
1
1
1
1
1
1
1
1
1
1
1
1
1
1
1
1
1
1
1
1
1
1
1
1
1
1
1.24121
7.36235
10.3593
10.2928
10.2431
10.1987
10.1558
10.1134
10.0712
10.0294
9.98679
9.94437
9.90088
9.85736
9.81307
1
1
1
1
1
1
1
1
1
1
1
1
1
1
1
1
1
1
1
1
1
1
1
1
1
1
1
1
1
1
1
1
1
1
1
1
1
1
1
1
1
1
1
1
1
1
1
1
1
1
1
1
1
1
1
1
1
1
1
1
1
1
1
1
1
1
1
1
1
1
1
1
1
1
1
1
1
1
1
1
1
1.00566
6.61738
10.2982
10.3081
10.2485
10.2099
10.1677
10.1262
10.0846
10.043
10.0009
9.95846
9.91532
9.87205
9.82784
1
1
1
1
1
1
1
1
1
1
1
1
1
1
1
1
1
1
1
1
1
1
1
1
1
1
1
1
1
1
1
1
1
1
1
1
1
1
1
1
1
1
1
1
1
1
1
1
1
1
1
1
1
1
1
1
1
1
1
1
1
1
1
1
1
1
1
1
1
1
1
1
1
1
1
1
1
1
1
1
1
1.00001
5.87462
10.2106
10.2976
10.2409
10.2086
10.1694
10.1301
10.09
10.0493
10.0085
9.96677
9.92466
9.88209
9.83861
1
1
1
1
1
1
1
1
1
1
1
1
1
1
1
1
1
1
1
1
1
1
1
1
1
1
1
1
1
1
1
1
1
1
1
1
1
1
1
1
1
1
1
1
1
1
1
1
1
1
1
1
1
1
1
1
1
1
1
1
1
1
1
1
1
1
1
1
1
1
1
1
1
1
1
1
1
1
1
1
1
1
5.18877
10.1175
10.3107
10.2533
10.2223
10.1843
10.1461
10.1069
10.0666
10.0262
9.9844
9.94256
9.89982
9.85661
1
1
1
1
1
1
1
1
1
1
1
1
1
1
1
1
1
1
1
1
1
1
1
1
1
1
1
1
1
1
1
1
1
1
1
1
1
1
1
1
1
1
1
1
1
1
1
1
1
1
1
1
1
1
1
1
1
1
1
1
1
1
1
1
1
1
1
1
1
1
1
1
1
1
1
1
1
1
1
1
1
1
4.61597
10.004
10.3269
10.2633
10.2305
10.1918
10.1535
10.1143
10.074
10.0339
9.99214
9.95049
9.9076
9.86451
1
1
1
1
1
1
1
1
1
1
1
1
1
1
1
1
1
1
1
1
1
1
1
1
1
1
1
1
1
1
1
1
1
1
1
1
1
1
1
1
1
1
1
1
1
1
1
1
1
1
1
1
1
1
1
1
1
1
1
1
1
1
1
1
1
1
1
1
1
1
1
1
1
1
1
1
1
1
1
1
1
1
4.16501
9.87738
10.3419
10.2734
10.2395
10.2
10.1613
10.1217
10.0812
10.0408
9.99913
9.95747
9.91461
9.87183
1
1
1
1
1
1
1
1
1
1
1
1
1
1
1
1
1
1
1
1
1
1
1
1
1
1
1
1
1
1
1
1
1
1
1
1
1
1
1
1
1
1
1
1
1
1
1
1
1
1
1
1
1
1
1
1
1
1
1
1
1
1
1
1
1
1
1
1
1
1
1
1
1
1
1
1
1
1
1
1
1
1
3.82279
9.75414
10.3555
10.2821
10.2475
10.2072
10.1681
10.1281
10.0874
10.0466
10.0051
9.96336
9.92048
9.87763
1
1
1
1
1
1
1
1
1
1
1
1
1
1
1
1
1
1
1
1
1
1
1
1
1
1
1
1
1
1
1
1
1
1
1
1
1
1
1
1
1
1
1
1
1
1
1
1
1
1
1
1
1
1
1
1
1
1
1
1
1
1
1
1
1
1
1
1
1
1
1
1
1
1
1
1
1
1
1
1
1
1
3.56368
9.64978
10.3686
10.29
10.2546
10.2137
10.1744
10.1344
10.0938
10.0529
10.0117
9.97015
9.92742
9.88461
1
1
1
1
1
1
1
1
1
1
1
1
1
1
1
1
1
1
1
1
1
1
1
1
1
1
1
1
1
1
1
1
1
1
1
1
1
1
1
1
1
1
1
1
1
1
1
1
1
1
1