/*--------------------------------*- C++ -*----------------------------------*\
  =========                 |
  \\      /  F ield         | OpenFOAM: The Open Source CFD Toolbox
   \\    /   O peration     | Website:  https://openfoam.org
    \\  /    A nd           | Version:  7
     \\/     M anipulation  |
\*---------------------------------------------------------------------------*/
FoamFile
{
    version     2.0;
    format      ascii;
    class       volVectorField;
    location    "8.8";
    object      U;
}
// * * * * * * * * * * * * * * * * * * * * * * * * * * * * * * * * * * * * * //

dimensions      [0 1 -1 0 0 0 0];

internalField   nonuniform List<vector> 
19968
(
(3 3.0976e-17 0)
(3 -6.38365e-17 0)
(3 1.56941e-17 0)
(3 9.3751e-17 0)
(3 4.7322e-17 0)
(3 2.80023e-16 0)
(3 6.69437e-16 0)
(3 1.21194e-15 0)
(3 1.90515e-15 0)
(3 1.88752e-15 0)
(3 5.18824e-16 0)
(3 3.98883e-16 0)
(3 5.59263e-16 0)
(3 7.83015e-16 0)
(3 1.34823e-15 0)
(3 1.35409e-15 0)
(3 1.16664e-15 0)
(3 1.24315e-15 0)
(3 5.57415e-16 0)
(3 2.19e-16 0)
(3 5.17062e-16 0)
(3 9.41571e-16 0)
(3 1.5823e-15 0)
(3 2.1886e-15 0)
(3 2.14164e-15 0)
(3 1.63139e-15 0)
(3 6.90705e-16 0)
(3 3.82356e-16 0)
(3 5.15023e-16 0)
(3 3.05385e-16 0)
(3 8.68097e-16 0)
(3 5.29681e-16 0)
(3 1.91654e-16 0)
(3 -7.75797e-16 0)
(3 -1.00493e-15 0)
(3 -7.31158e-16 0)
(3 -8.42771e-16 0)
(3 -1.16429e-15 0)
(3 -1.68636e-15 0)
(3 -1.88243e-15 0)
(3 -1.88532e-15 0)
(3 -1.46465e-15 0)
(3 -1.11995e-15 0)
(3 -9.39125e-16 0)
(3 -2.20663e-16 0)
(3 -2.52103e-16 0)
(3 -4.65017e-16 0)
(3 -7.60707e-16 0)
(2.78441 0.00247815 0)
(0.962762 0.00745668 0)
(0.758259 0.00424017 0)
(0.746902 0.00799398 0)
(0.730789 0.00860443 0)
(0.71525 0.00953578 0)
(0.698019 0.0100668 0)
(0.680818 0.0096261 0)
(0.664829 0.00868638 0)
(0.650312 0.00814921 0)
(0.636533 0.00836726 0)
(0.622444 0.00912618 0)
(0.607427 0.00970613 0)
(0.592011 0.00942964 0)
(0.576984 0.00890468 0)
(0.562049 0.00906804 0)
(0.546515 0.009641 0)
(0.530439 0.00988087 0)
(0.514403 0.00972574 0)
(0.498599 0.00964352 0)
(0.482839 0.00980406 0)
(0.467023 0.0100747 0)
(0.451218 0.0103052 0)
(0.435508 0.0104292 0)
(0.419879 0.0104891 0)
(0.404197 0.0105649 0)
(0.38831 0.0106665 0)
(0.372173 0.0107573 0)
(0.355829 0.0108364 0)
(0.339339 0.0109256 0)
(0.322762 0.0110265 0)
(0.30616 0.0111351 0)
(0.289561 0.0112554 0)
(0.272924 0.0113865 0)
(0.256142 0.0115199 0)
(0.239082 0.0116507 0)
(0.221642 0.0117838 0)
(0.203813 0.0119279 0)
(0.1857 0.0120926 0)
(0.167466 0.0122887 0)
(0.149226 0.0125225 0)
(0.130977 0.0127923 0)
(0.112592 0.0130971 0)
(0.0938432 0.0134229 0)
(0.0744943 0.0137798 0)
(0.0543034 0.0141665 0)
(0.0332336 0.0144427 0)
(0.0114616 0.0148521 0)
(3 2.00768e-16 0)
(3 5.74981e-16 0)
(3 9.98456e-16 0)
(3 1.33819e-15 0)
(3 1.19657e-15 0)
(3 1.32121e-15 0)
(3 1.4576e-15 0)
(3 1.73191e-15 0)
(3 1.82579e-15 0)
(3 1.53857e-15 0)
(3 5.93928e-16 0)
(3 8.40176e-16 0)
(3 8.54112e-16 0)
(3 9.06998e-16 0)
(3 1.61505e-15 0)
(3 1.94393e-15 0)
(3 1.88237e-15 0)
(3 1.53149e-15 0)
(3 4.64473e-16 0)
(3 -1.5278e-16 0)
(3 -5.30897e-16 0)
(3 -3.29028e-16 0)
(3 2.38543e-16 0)
(3 7.62823e-16 0)
(3 1.26606e-15 0)
(3 1.37834e-15 0)
(3 7.36384e-16 0)
(3 1.8132e-16 0)
(3 -4.00446e-16 0)
(3 1.40154e-16 0)
(3 5.84806e-16 0)
(3 3.02193e-16 0)
(3 -3.20714e-16 0)
(3 -2.07371e-15 0)
(3 -2.62084e-15 0)
(3 -2.09539e-15 0)
(3 -2.11863e-15 0)
(3 -2.07499e-15 0)
(3 -2.59986e-15 0)
(3 -2.93657e-15 0)
(3 -2.51652e-15 0)
(3 -1.95083e-15 0)
(3 -1.64517e-15 0)
(3 -1.39467e-15 0)
(3 -5.20185e-16 0)
(3 -1.40443e-16 0)
(3 -6.73328e-16 0)
(3 -1.0218e-15 0)
(2.80045 0.0133487 0)
(0.9684 0.0315993 0)
(0.755658 0.0217518 0)
(0.740801 0.0222357 0)
(0.725577 0.0247632 0)
(0.71045 0.0276125 0)
(0.693979 0.0293207 0)
(0.677474 0.0286354 0)
(0.661796 0.0265617 0)
(0.647077 0.0251617 0)
(0.632965 0.0255755 0)
(0.618825 0.0275181 0)
(0.603936 0.0290816 0)
(0.588687 0.0284421 0)
(0.573632 0.0271241 0)
(0.558519 0.0275455 0)
(0.542976 0.0291163 0)
(0.526977 0.0297688 0)
(0.511042 0.0293872 0)
(0.495234 0.0292329 0)
(0.4794 0.0297225 0)
(0.463512 0.0304816 0)
(0.447671 0.0311462 0)
(0.431938 0.031575 0)
(0.416252 0.0318602 0)
(0.400468 0.0321742 0)
(0.384459 0.0325305 0)
(0.368206 0.0328351 0)
(0.35177 0.0330903 0)
(0.335222 0.0333553 0)
(0.318622 0.0336326 0)
(0.302018 0.0339184 0)
(0.285421 0.0342404 0)
(0.268783 0.0346093 0)
(0.251997 0.0350032 0)
(0.234946 0.035402 0)
(0.217544 0.0358144 0)
(0.199791 0.0362654 0)
(0.181789 0.0367858 0)
(0.163693 0.0374061 0)
(0.14561 0.0381383 0)
(0.127543 0.0389684 0)
(0.109383 0.039887 0)
(0.0909309 0.0408547 0)
(0.0719848 0.0419026 0)
(0.0523334 0.0430361 0)
(0.031937 0.0438119 0)
(0.0109969 0.0449458 0)
(3 -1.42822e-16 0)
(3 1.28482e-16 0)
(3 1.27631e-16 0)
(3 2.04614e-16 0)
(3 5.81196e-16 0)
(3 5.3576e-16 0)
(3 -2.34478e-17 0)
(3 -1.90151e-16 0)
(3 -7.81784e-16 0)
(3 -1.02492e-15 0)
(3 -5.86079e-16 0)
(3 2.55388e-16 0)
(3 4.48034e-16 0)
(3 1.22442e-15 0)
(3 1.30022e-15 0)
(3 1.491e-15 0)
(3 2.38632e-15 0)
(3 2.26646e-15 0)
(3 2.16217e-15 0)
(3 2.10473e-15 0)
(3 2.08258e-15 0)
(3 2.34882e-15 0)
(3 1.93642e-15 0)
(3 1.19752e-15 0)
(3 6.72584e-16 0)
(3 6.48314e-16 0)
(3 9.67129e-16 0)
(3 2.19049e-16 0)
(3 -5.31189e-16 0)
(3 -1.07058e-15 0)
(3 -2.03429e-15 0)
(3 -2.00024e-15 0)
(3 -2.55672e-15 0)
(3 -2.33868e-15 0)
(3 -3.1853e-15 0)
(3 -3.09757e-15 0)
(3 -2.02808e-15 0)
(3 -5.54132e-16 0)
(3 -3.09413e-16 0)
(3 -1.33562e-16 0)
(3 4.31556e-16 0)
(3 -8.08554e-17 0)
(3 -9.2227e-16 0)
(3 -7.65483e-16 0)
(3 7.48946e-17 0)
(3 1.11806e-16 0)
(3 -3.42886e-16 0)
(3 -8.87281e-16 0)
(2.83761 0.0210376 0)
(0.985104 0.0521993 0)
(0.76061 0.0402984 0)
(0.74441 0.040122 0)
(0.728089 0.0429433 0)
(0.712582 0.0469105 0)
(0.696199 0.0491929 0)
(0.679929 0.0482205 0)
(0.664263 0.0455495 0)
(0.649118 0.0437961 0)
(0.634414 0.0445158 0)
(0.619954 0.0473939 0)
(0.604918 0.0496647 0)
(0.589602 0.0487225 0)
(0.574334 0.0468291 0)
(0.558892 0.0475302 0)
(0.543247 0.0499477 0)
(0.527222 0.0509463 0)
(0.511302 0.0504081 0)
(0.495419 0.0502905 0)
(0.479442 0.0511307 0)
(0.463382 0.0522875 0)
(0.447375 0.0532602 0)
(0.431476 0.0539275 0)
(0.415592 0.05444 0)
(0.399566 0.0550102 0)
(0.383293 0.055631 0)
(0.366775 0.0561667 0)
(0.350096 0.0566362 0)
(0.33335 0.0571294 0)
(0.316609 0.0576303 0)
(0.299915 0.0581132 0)
(0.283255 0.0586201 0)
(0.26656 0.0591827 0)
(0.249723 0.0597859 0)
(0.232639 0.0604109 0)
(0.215247 0.0610755 0)
(0.197557 0.061815 0)
(0.179658 0.0626678 0)
(0.161672 0.063671 0)
(0.143681 0.0648358 0)
(0.125678 0.0661368 0)
(0.10758 0.0675636 0)
(0.0892248 0.0690589 0)
(0.0704558 0.0706662 0)
(0.0510991 0.0724299 0)
(0.0310962 0.0735665 0)
(0.0106975 0.0752973 0)
(3 -3.88944e-17 0)
(3 -2.95373e-16 0)
(3 -2.84125e-16 0)
(3 -1.72825e-16 0)
(3 2.23212e-16 0)
(3 2.08124e-16 0)
(3 2.82349e-16 0)
(3 3.13115e-16 0)
(3 4.76204e-16 0)
(3 2.839e-16 0)
(3 6.39822e-17 0)
(3 -2.14999e-16 0)
(3 -1.89888e-16 0)
(3 2.40447e-16 0)
(3 4.72137e-16 0)
(3 3.13407e-16 0)
(3 3.90961e-16 0)
(3 5.35634e-16 0)
(3 1.14254e-15 0)
(3 2.4184e-15 0)
(3 2.78271e-15 0)
(3 2.21882e-15 0)
(3 1.56207e-15 0)
(3 1.11638e-15 0)
(3 9.07197e-16 0)
(3 1.12981e-15 0)
(3 3.14884e-16 0)
(3 -1.34023e-15 0)
(3 -1.7892e-15 0)
(3 -2.37676e-15 0)
(3 -2.91347e-15 0)
(3 -3.18562e-15 0)
(3 -2.45858e-15 0)
(3 -1.84022e-15 0)
(3 -2.07551e-15 0)
(3 -1.8306e-15 0)
(3 -8.05217e-16 0)
(3 -3.15535e-16 0)
(3 1.75284e-15 0)
(3 2.0832e-15 0)
(3 1.74695e-15 0)
(3 1.75467e-15 0)
(3 1.60724e-15 0)
(3 1.27528e-15 0)
(3 1.03461e-15 0)
(3 5.12539e-16 0)
(3 5.13533e-17 0)
(3 -5.75658e-16 0)
(2.8851 0.0253097 0)
(1.00762 0.0720107 0)
(0.761497 0.0592644 0)
(0.745309 0.0587067 0)
(0.729352 0.0618767 0)
(0.714062 0.0663935 0)
(0.698158 0.0689306 0)
(0.682383 0.0679961 0)
(0.666967 0.0653822 0)
(0.65178 0.063704 0)
(0.636928 0.0647269 0)
(0.622533 0.0682371 0)
(0.607668 0.0710065 0)
(0.592485 0.0699545 0)
(0.577138 0.0677547 0)
(0.561489 0.068689 0)
(0.545853 0.0717483 0)
(0.529892 0.0730381 0)
(0.514043 0.0724676 0)
(0.498121 0.0725453 0)
(0.482024 0.0738223 0)
(0.46577 0.0753622 0)
(0.449531 0.0765913 0)
(0.433363 0.0775042 0)
(0.417146 0.0783138 0)
(0.400724 0.0792103 0)
(0.384014 0.0801428 0)
(0.367044 0.0809507 0)
(0.34992 0.0816782 0)
(0.332761 0.08244 0)
(0.315649 0.083189 0)
(0.298621 0.0838615 0)
(0.281646 0.0845046 0)
(0.26464 0.0851776 0)
(0.2475 0.0858907 0)
(0.230152 0.0866448 0)
(0.212578 0.0874797 0)
(0.194827 0.0884472 0)
(0.176991 0.0895933 0)
(0.159169 0.0909565 0)
(0.141403 0.0925444 0)
(0.123658 0.0943191 0)
(0.105831 0.0962658 0)
(0.0877532 0.0983166 0)
(0.0692672 0.100482 0)
(0.0502291 0.102896 0)
(0.0305175 0.104373 0)
(0.0105316 0.106668 0)
(3 1.9297e-16 0)
(3 -8.69161e-17 0)
(3 6.32375e-17 0)
(3 -6.22976e-17 0)
(3 -3.63781e-16 0)
(3 -1.58121e-16 0)
(3 1.10165e-16 0)
(3 4.3573e-16 0)
(3 1.17739e-15 0)
(3 1.30626e-15 0)
(3 4.44495e-16 0)
(3 7.40985e-17 0)
(3 -1.32896e-16 0)
(3 -4.27926e-16 0)
(3 -6.50965e-16 0)
(3 -6.90128e-16 0)
(3 -7.36395e-16 0)
(3 -3.81437e-17 0)
(3 1.13387e-16 0)
(3 3.86299e-18 0)
(3 -4.82699e-16 0)
(3 -9.96394e-16 0)
(3 -7.11371e-16 0)
(3 -3.80274e-16 0)
(3 -2.71012e-16 0)
(3 -8.9127e-17 0)
(3 -5.70836e-16 0)
(3 -9.43492e-16 0)
(3 -1.15972e-15 0)
(3 -1.55991e-15 0)
(3 -1.7433e-15 0)
(3 -2.11985e-15 0)
(3 -1.90822e-15 0)
(3 -1.44525e-15 0)
(3 -1.14229e-15 0)
(3 -1.1929e-15 0)
(3 -1.17328e-15 0)
(3 -3.90389e-16 0)
(3 1.87959e-15 0)
(3 2.48675e-15 0)
(3 2.50474e-15 0)
(3 2.37352e-15 0)
(3 2.58342e-15 0)
(3 2.28936e-15 0)
(3 1.71064e-15 0)
(3 1.18084e-15 0)
(3 9.96899e-16 0)
(3 5.1325e-17 0)
(2.93847 0.0362599 0)
(1.03637 0.0982122 0)
(0.765397 0.0789883 0)
(0.749369 0.0782508 0)
(0.733456 0.0822407 0)
(0.71795 0.0867223 0)
(0.702401 0.0889787 0)
(0.687151 0.0880006 0)
(0.6721 0.0857549 0)
(0.657104 0.0844389 0)
(0.642362 0.0856786 0)
(0.628287 0.0895565 0)
(0.613923 0.0927265 0)
(0.59911 0.0919182 0)
(0.583809 0.0898338 0)
(0.568012 0.0911126 0)
(0.552334 0.0946521 0)
(0.536417 0.0961774 0)
(0.520668 0.0956907 0)
(0.504806 0.0961238 0)
(0.488733 0.0979717 0)
(0.472408 0.0999496 0)
(0.456034 0.101426 0)
(0.439696 0.102617 0)
(0.423252 0.103834 0)
(0.406529 0.10519 0)
(0.389458 0.10656 0)
(0.372077 0.107771 0)
(0.354503 0.10889 0)
(0.336868 0.110049 0)
(0.319265 0.111161 0)
(0.30172 0.112114 0)
(0.284189 0.112949 0)
(0.266569 0.113751 0)
(0.248748 0.114554 0)
(0.230671 0.115371 0)
(0.212365 0.116252 0)
(0.193932 0.11726 0)
(0.175507 0.118453 0)
(0.157205 0.119889 0)
(0.139079 0.121602 0)
(0.121107 0.123583 0)
(0.10321 0.125841 0)
(0.085241 0.128346 0)
(0.0670362 0.131016 0)
(0.0484931 0.134119 0)
(0.0293548 0.135997 0)
(0.0101496 0.138891 0)
(3 6.44034e-17 0)
(3 -7.48843e-17 0)
(3 -3.64591e-16 0)
(3 -7.22293e-16 0)
(3 -9.8365e-16 0)
(3 -1.09368e-15 0)
(3 -4.89942e-16 0)
(3 -2.2637e-16 0)
(3 7.69907e-17 0)
(3 4.26487e-16 0)
(3 1.118e-16 0)
(3 -5.05522e-16 0)
(3 -6.98608e-16 0)
(3 -7.18518e-16 0)
(3 -1.1176e-15 0)
(3 -1.50953e-15 0)
(3 -1.3771e-15 0)
(3 -9.49597e-16 0)
(3 -4.40584e-16 0)
(3 -6.06467e-16 0)
(3 -8.68321e-16 0)
(3 -8.62287e-16 0)
(3 -2.14659e-16 0)
(3 -3.47678e-17 0)
(3 7.92328e-17 0)
(3 -8.0887e-17 0)
(3 -3.46315e-16 0)
(3 -3.58784e-17 0)
(3 -9.49949e-17 0)
(3 -1.70157e-16 0)
(3 -4.25891e-16 0)
(3 -7.76678e-16 0)
(3 -7.94389e-16 0)
(3 -7.52045e-16 0)
(3 2.04845e-16 0)
(3 6.12261e-16 0)
(3 3.27797e-16 0)
(3 8.61198e-16 0)
(3 1.68462e-15 0)
(3 2.9441e-15 0)
(3 3.41211e-15 0)
(3 3.16008e-15 0)
(3 2.01628e-15 0)
(3 1.63171e-15 0)
(3 1.14633e-15 0)
(3 1.06799e-15 0)
(3 9.62298e-16 0)
(3 6.8377e-16 0)
(2.99917 0.00281343 0)
(1.10711 0.114125 0)
(0.776946 0.0920929 0)
(0.759957 0.0971848 0)
(0.744765 0.102688 0)
(0.728722 0.106579 0)
(0.713077 0.108253 0)
(0.697643 0.107408 0)
(0.682326 0.105909 0)
(0.667113 0.105265 0)
(0.652294 0.106618 0)
(0.638421 0.110309 0)
(0.624661 0.113585 0)
(0.61035 0.113455 0)
(0.595241 0.112099 0)
(0.57949 0.113895 0)
(0.563836 0.117692 0)
(0.548068 0.119198 0)
(0.532577 0.118709 0)
(0.517 0.119512 0)
(0.501227 0.122024 0)
(0.485081 0.12453 0)
(0.468785 0.126238 0)
(0.452498 0.127677 0)
(0.436081 0.129353 0)
(0.419338 0.131276 0)
(0.402188 0.133209 0)
(0.384668 0.134965 0)
(0.366888 0.136646 0)
(0.348976 0.1384 0)
(0.331026 0.140105 0)
(0.31307 0.141593 0)
(0.295064 0.142881 0)
(0.276896 0.144067 0)
(0.258432 0.145208 0)
(0.239596 0.146324 0)
(0.220422 0.147459 0)
(0.20104 0.148663 0)
(0.181617 0.149983 0)
(0.162292 0.151476 0)
(0.143143 0.153201 0)
(0.124183 0.155194 0)
(0.10538 0.157502 0)
(0.0866504 0.160201 0)
(0.0678405 0.163119 0)
(0.0489177 0.166725 0)
(0.0294908 0.168888 0)
(0.0102117 0.17229 0)
(3 -6.34916e-17 0)
(3 2.38104e-16 0)
(3 4.06594e-16 0)
(3 5.51892e-16 0)
(3 5.70361e-16 0)
(3 3.65211e-16 0)
(3 6.27129e-17 0)
(3 1.7938e-16 0)
(3 -5.04605e-16 0)
(3 -4.99977e-16 0)
(3 -6.54486e-16 0)
(3 -7.40141e-16 0)
(3 -3.02582e-16 0)
(3 4.44798e-16 0)
(3 4.47127e-16 0)
(3 2.47271e-16 0)
(3 -4.34089e-16 0)
(3 -4.96343e-16 0)
(3 -7.39648e-16 0)
(3 -7.89688e-16 0)
(3 4.55739e-17 0)
(3 2.88882e-16 0)
(3 -2.8801e-17 0)
(3 -8.67989e-17 0)
(3 4.23236e-16 0)
(3 4.74427e-16 0)
(3 4.26088e-16 0)
(3 2.4572e-16 0)
(3 4.98498e-16 0)
(3 8.30267e-16 0)
(3 1.04079e-15 0)
(3 1.30347e-15 0)
(3 1.24856e-15 0)
(3 8.54179e-16 0)
(3 1.414e-15 0)
(3 1.89038e-15 0)
(3 2.50366e-15 0)
(3 2.54479e-15 0)
(3 2.00278e-15 0)
(3 2.04244e-15 0)
(3 1.68609e-15 0)
(3 1.65305e-15 0)
(3 1.40107e-15 0)
(3 1.51846e-15 0)
(3 1.42353e-15 0)
(3 1.30571e-15 0)
(3 9.67096e-16 0)
(3 7.89925e-16 0)
(3.00005 2.78314e-05 0)
(1.22256 0.134966 0)
(0.777023 0.112279 0)
(0.754079 0.118301 0)
(0.740814 0.125672 0)
(0.725312 0.129305 0)
(0.710261 0.131029 0)
(0.694732 0.13068 0)
(0.678982 0.129797 0)
(0.663336 0.129341 0)
(0.648351 0.130059 0)
(0.634589 0.132826 0)
(0.62142 0.136118 0)
(0.607655 0.13711 0)
(0.592888 0.137061 0)
(0.577453 0.139588 0)
(0.562046 0.143473 0)
(0.546681 0.144745 0)
(0.531724 0.144185 0)
(0.516732 0.145384 0)
(0.501643 0.148701 0)
(0.486085 0.151943 0)
(0.470234 0.153978 0)
(0.454366 0.155658 0)
(0.438407 0.157796 0)
(0.422154 0.160328 0)
(0.405485 0.16286 0)
(0.388403 0.165187 0)
(0.370985 0.167446 0)
(0.353344 0.16981 0)
(0.335579 0.172144 0)
(0.317748 0.174231 0)
(0.299835 0.17605 0)
(0.281723 0.177695 0)
(0.263248 0.179228 0)
(0.244293 0.180669 0)
(0.224868 0.182057 0)
(0.205114 0.183435 0)
(0.185227 0.184841 0)
(0.165372 0.186324 0)
(0.145648 0.187953 0)
(0.126096 0.189816 0)
(0.106721 0.191989 0)
(0.0874999 0.194706 0)
(0.0682924 0.19769 0)
(0.0491527 0.201684 0)
(0.0295477 0.204072 0)
(0.0102615 0.207922 0)
(3 -1.36813e-17 0)
(3 -1.83802e-16 0)
(3 -8.31524e-17 0)
(3 -6.16151e-17 0)
(3 6.16147e-17 0)
(3 1.61078e-16 0)
(3 -1.67449e-16 0)
(3 -5.40108e-17 0)
(3 -5.4232e-17 0)
(3 -2.91684e-16 0)
(3 -1.0203e-16 0)
(3 3.99933e-16 0)
(3 6.57784e-16 0)
(3 1.53424e-15 0)
(3 1.70293e-15 0)
(3 1.98678e-15 0)
(3 1.76067e-15 0)
(3 1.32542e-15 0)
(3 3.78248e-16 0)
(3 -7.19962e-16 0)
(3 -1.24218e-16 0)
(3 1.78909e-16 0)
(3 3.4517e-16 0)
(3 3.17474e-16 0)
(3 5.94257e-16 0)
(3 8.92873e-16 0)
(3 7.78469e-16 0)
(3 6.36867e-16 0)
(3 7.65787e-16 0)
(3 1.10948e-15 0)
(3 1.77321e-15 0)
(3 1.96147e-15 0)
(3 1.97754e-15 0)
(3 2.17475e-15 0)
(3 2.59884e-15 0)
(3 2.73155e-15 0)
(3 2.70096e-15 0)
(3 2.41329e-15 0)
(3 2.21437e-15 0)
(3 1.57603e-15 0)
(3 1.44287e-15 0)
(3 1.15897e-15 0)
(3 1.2737e-15 0)
(3 1.1005e-15 0)
(3 8.9823e-16 0)
(3 9.09294e-16 0)
(3 1.11793e-15 0)
(3 1.00652e-15 0)
(3 4.92401e-08 0)
(1.42397 0.164856 0)
(0.79026 0.142171 0)
(0.752567 0.139349 0)
(0.740319 0.146831 0)
(0.725137 0.15074 0)
(0.710507 0.15349 0)
(0.694858 0.154499 0)
(0.678678 0.154715 0)
(0.662476 0.15431 0)
(0.647163 0.153574 0)
(0.633282 0.154554 0)
(0.620605 0.1574 0)
(0.607625 0.159552 0)
(0.593564 0.161106 0)
(0.578833 0.164541 0)
(0.563953 0.16836 0)
(0.549236 0.169128 0)
(0.535035 0.168329 0)
(0.52087 0.169829 0)
(0.506766 0.173956 0)
(0.492083 0.178132 0)
(0.476856 0.18065 0)
(0.461522 0.182568 0)
(0.446139 0.185169 0)
(0.430527 0.188409 0)
(0.414489 0.191697 0)
(0.397966 0.194749 0)
(0.380988 0.197736 0)
(0.363641 0.200882 0)
(0.34603 0.204071 0)
(0.328243 0.207059 0)
(0.310291 0.209774 0)
(0.292063 0.212274 0)
(0.273368 0.214599 0)
(0.254053 0.216748 0)
(0.234113 0.218737 0)
(0.213693 0.220596 0)
(0.193018 0.222346 0)
(0.172281 0.224026 0)
(0.151607 0.22569 0)
(0.131065 0.227477 0)
(0.110696 0.229473 0)
(0.0905421 0.232115 0)
(0.0704753 0.235005 0)
(0.050641 0.239259 0)
(0.0303805 0.241811 0)
(0.0105705 0.246025 0)
(3 2.34815e-17 0)
(3 1.24292e-17 0)
(3 -1.19034e-17 0)
(3 -1.10065e-16 0)
(3 5.33242e-17 0)
(3 5.74348e-16 0)
(3 7.42415e-16 0)
(3 7.03249e-16 0)
(3 8.32482e-16 0)
(3 9.02096e-16 0)
(3 1.09166e-15 0)
(3 1.20465e-15 0)
(3 8.5525e-16 0)
(3 7.50147e-16 0)
(3 1.25123e-15 0)
(3 1.27464e-15 0)
(3 9.03211e-16 0)
(3 -2.24534e-16 0)
(3 -5.6165e-16 0)
(3 -7.37551e-16 0)
(3 7.18533e-17 0)
(3 3.36315e-16 0)
(3 9.75639e-17 0)
(3 1.08012e-16 0)
(3 5.77422e-16 0)
(3 4.47829e-16 0)
(3 5.39372e-16 0)
(3 7.97443e-16 0)
(3 8.93315e-17 0)
(3 1.2275e-17 0)
(3 3.74021e-16 0)
(3 4.88867e-16 0)
(3 9.21001e-16 0)
(3 1.23023e-15 0)
(3 1.0447e-15 0)
(3 1.01633e-15 0)
(3 1.29922e-15 0)
(3 1.31986e-15 0)
(3 1.41064e-15 0)
(3 1.53511e-15 0)
(3 1.67757e-15 0)
(3 1.82877e-15 0)
(3 2.07605e-15 0)
(3 2.32907e-15 0)
(3 2.52456e-15 0)
(3 2.90862e-15 0)
(3 2.7517e-15 0)
(3 2.05351e-15 0)
(3 1.1133e-10 0)
(1.73004 0.187341 0)
(0.818372 0.177433 0)
(0.759731 0.164316 0)
(0.744929 0.169277 0)
(0.729234 0.172937 0)
(0.714426 0.176888 0)
(0.698561 0.17999 0)
(0.681965 0.181913 0)
(0.665083 0.181752 0)
(0.649133 0.179314 0)
(0.634485 0.177857 0)
(0.621191 0.179611 0)
(0.608141 0.182656 0)
(0.594151 0.185966 0)
(0.579518 0.190466 0)
(0.564555 0.194186 0)
(0.549863 0.194337 0)
(0.535796 0.193116 0)
(0.521921 0.194718 0)
(0.508459 0.199617 0)
(0.494539 0.20494 0)
(0.479895 0.208187 0)
(0.465113 0.210336 0)
(0.450442 0.213329 0)
(0.435763 0.217334 0)
(0.420748 0.221531 0)
(0.405228 0.225454 0)
(0.389177 0.229283 0)
(0.372643 0.233324 0)
(0.355712 0.237524 0)
(0.338474 0.241631 0)
(0.320946 0.245515 0)
(0.303013 0.249162 0)
(0.284471 0.252567 0)
(0.265144 0.255692 0)
(0.245006 0.25853 0)
(0.224196 0.261105 0)
(0.202934 0.263436 0)
(0.181421 0.265543 0)
(0.159798 0.267444 0)
(0.138176 0.269308 0)
(0.116638 0.271182 0)
(0.0952977 0.273734 0)
(0.0740532 0.276399 0)
(0.0531503 0.280782 0)
(0.0318574 0.28344 0)
(0.0110981 0.287946 0)
(3 9.67867e-17 0)
(3 1.64711e-16 0)
(3 1.11415e-16 0)
(3 3.03364e-17 0)
(3 -8.81337e-17 0)
(3 -4.81658e-17 0)
(3 -6.28842e-17 0)
(3 -2.49913e-16 0)
(3 -2.14822e-16 0)
(3 -2.37491e-17 0)
(3 -5.71469e-17 0)
(3 -1.85048e-16 0)
(3 -1.34877e-16 0)
(3 8.01135e-17 0)
(3 2.37863e-16 0)
(3 -1.77055e-16 0)
(3 -9.83055e-16 0)
(3 -1.2933e-15 0)
(3 -1.12293e-15 0)
(3 -5.04463e-16 0)
(3 -2.38781e-16 0)
(3 2.78523e-19 0)
(3 8.60802e-17 0)
(3 -2.26671e-16 0)
(3 -5.72952e-16 0)
(3 -6.78868e-16 0)
(3 -1.12373e-15 0)
(3 -1.35821e-15 0)
(3 -1.49704e-15 0)
(3 -1.4475e-15 0)
(3 -3.66275e-16 0)
(3 9.05549e-16 0)
(3 7.36875e-16 0)
(3 6.0319e-16 0)
(3 1.17634e-18 0)
(3 4.88611e-16 0)
(3 7.01831e-16 0)
(3 8.74479e-16 0)
(3 7.1965e-16 0)
(3 5.66385e-16 0)
(3 8.77652e-16 0)
(3 1.79642e-15 0)
(3 2.40762e-15 0)
(3 2.65469e-15 0)
(3 2.55171e-15 0)
(3 2.48106e-15 0)
(3 1.95595e-15 0)
(3 1.26704e-15 0)
(3 2.31404e-13 0)
(2.1402 0.197773 0)
(0.858561 0.219029 0)
(0.758907 0.197407 0)
(0.74277 0.196351 0)
(0.728459 0.198335 0)
(0.715662 0.20309 0)
(0.701787 0.208083 0)
(0.686758 0.211752 0)
(0.670708 0.212178 0)
(0.65497 0.208721 0)
(0.640002 0.205011 0)
(0.625933 0.205173 0)
(0.612579 0.208549 0)
(0.598667 0.213397 0)
(0.584088 0.218924 0)
(0.568921 0.222582 0)
(0.553908 0.222177 0)
(0.539453 0.220286 0)
(0.525215 0.221409 0)
(0.511699 0.226521 0)
(0.498025 0.232738 0)
(0.483466 0.236718 0)
(0.468652 0.238854 0)
(0.454039 0.241789 0)
(0.439706 0.246257 0)
(0.425268 0.251304 0)
(0.410435 0.25614 0)
(0.395166 0.260871 0)
(0.379494 0.265898 0)
(0.363462 0.27126 0)
(0.347091 0.276712 0)
(0.330339 0.282065 0)
(0.313044 0.287233 0)
(0.294969 0.292159 0)
(0.275919 0.296759 0)
(0.255856 0.300982 0)
(0.234911 0.304818 0)
(0.213297 0.308249 0)
(0.191206 0.311257 0)
(0.168783 0.313794 0)
(0.146172 0.316053 0)
(0.123488 0.318 0)
(0.100899 0.320531 0)
(0.0783355 0.322873 0)
(0.056153 0.327217 0)
(0.033642 0.329868 0)
(0.0117132 0.334594 0)
(3 -7.28111e-17 0)
(3 -1.72196e-16 0)
(3 -8.55129e-16 0)
(3 -8.00782e-16 0)
(3 -6.67747e-16 0)
(3 -8.39329e-16 0)
(3 -1.0395e-15 0)
(3 -1.17315e-15 0)
(3 -1.02208e-15 0)
(3 -9.70452e-16 0)
(3 -1.01217e-15 0)
(3 -1.26166e-15 0)
(3 -7.11065e-16 0)
(3 -7.15948e-16 0)
(3 -1.41546e-15 0)
(3 -1.26785e-15 0)
(3 -1.11743e-15 0)
(3 -6.85635e-16 0)
(3 1.36433e-16 0)
(3 4.55756e-16 0)
(3 -7.40006e-16 0)
(3 -9.17515e-16 0)
(3 -7.19959e-16 0)
(3 -8.9215e-16 0)
(3 -1.05373e-15 0)
(3 -7.46493e-16 0)
(3 -7.74881e-16 0)
(3 -6.83357e-16 0)
(3 -2.50309e-16 0)
(3 2.00362e-18 0)
(3 4.43004e-16 0)
(3 6.5362e-16 0)
(3 5.97005e-16 0)
(3 6.16957e-16 0)
(3 8.53404e-16 0)
(3 9.61198e-16 0)
(3 1.18606e-15 0)
(3 1.6519e-15 0)
(3 1.74231e-15 0)
(3 1.80149e-15 0)
(3 1.65676e-15 0)
(3 1.87597e-15 0)
(3 2.37349e-15 0)
(3 2.35703e-15 0)
(3 2.3155e-15 0)
(3 2.30422e-15 0)
(3 1.96442e-15 0)
(3 1.16893e-15 0)
(3 1.64276e-15 0)
(2.67096 0.177786 0)
(0.959206 0.261256 0)
(0.782825 0.233072 0)
(0.772772 0.219692 0)
(0.754533 0.219629 0)
(0.739921 0.224238 0)
(0.725231 0.230945 0)
(0.710061 0.237078 0)
(0.693896 0.239646 0)
(0.677651 0.237258 0)
(0.661933 0.232773 0)
(0.646556 0.23169 0)
(0.632072 0.235238 0)
(0.617722 0.241582 0)
(0.602892 0.248429 0)
(0.587297 0.252688 0)
(0.5715 0.252628 0)
(0.555988 0.250613 0)
(0.54059 0.251191 0)
(0.52605 0.25618 0)
(0.511879 0.263161 0)
(0.496781 0.268207 0)
(0.481097 0.270582 0)
(0.465459 0.273226 0)
(0.450254 0.277755 0)
(0.435249 0.283383 0)
(0.42003 0.288956 0)
(0.404523 0.294375 0)
(0.388795 0.300149 0)
(0.372876 0.306468 0)
(0.356747 0.313131 0)
(0.340325 0.31991 0)
(0.323433 0.326657 0)
(0.305839 0.333262 0)
(0.287343 0.339585 0)
(0.267871 0.345505 0)
(0.24748 0.350961 0)
(0.226267 0.355903 0)
(0.204286 0.36031 0)
(0.181556 0.364087 0)
(0.15818 0.367443 0)
(0.134243 0.370189 0)
(0.110008 0.37332 0)
(0.0854816 0.375721 0)
(0.0612321 0.380141 0)
(0.0366579 0.382782 0)
(0.012745 0.387782 0)
(3 -4.22708e-17 0)
(3 9.76445e-17 0)
(3 2.00317e-16 0)
(3 -3.08425e-17 0)
(3 -3.41695e-17 0)
(3 -4.86949e-16 0)
(3 -8.14166e-16 0)
(3 -6.64754e-16 0)
(3 -5.3469e-16 0)
(3 -6.22306e-16 0)
(3 -1.666e-16 0)
(3 -9.88392e-17 0)
(3 -6.79077e-16 0)
(3 -1.0163e-15 0)
(3 -8.86777e-16 0)
(3 -3.28142e-16 0)
(3 3.16412e-16 0)
(3 1.39625e-15 0)
(3 1.50343e-15 0)
(3 1.01562e-15 0)
(3 -3.37327e-16 0)
(3 -1.31168e-15 0)
(3 -2.10598e-15 0)
(3 -1.31736e-15 0)
(3 -4.48063e-16 0)
(3 5.68549e-16 0)
(3 1.49259e-15 0)
(3 2.06339e-15 0)
(3 1.96631e-15 0)
(3 1.47313e-15 0)
(3 1.0146e-15 0)
(3 4.50396e-16 0)
(3 7.09764e-16 0)
(3 1.04879e-15 0)
(3 1.47738e-15 0)
(3 1.45079e-15 0)
(3 1.2002e-15 0)
(3 1.2474e-15 0)
(3 1.11525e-15 0)
(3 1.14906e-15 0)
(3 1.3315e-15 0)
(3 1.64432e-15 0)
(3 1.39401e-15 0)
(3 1.03412e-15 0)
(3 1.22538e-15 0)
(3 1.29081e-15 0)
(3 1.14625e-15 0)
(3 2.95285e-16 0)
(3 1.00861e-16 0)
(3.02134 0.0108535 0)
(1.14504 0.279592 0)
(0.810743 0.233523 0)
(0.797646 0.245216 0)
(0.780291 0.249889 0)
(0.763872 0.254177 0)
(0.748424 0.259799 0)
(0.73394 0.265064 0)
(0.719506 0.267536 0)
(0.704697 0.266149 0)
(0.689661 0.262116 0)
(0.674267 0.260035 0)
(0.659385 0.262785 0)
(0.645211 0.269307 0)
(0.630943 0.276723 0)
(0.615881 0.281747 0)
(0.600194 0.282835 0)
(0.584326 0.281509 0)
(0.568294 0.281634 0)
(0.552846 0.285943 0)
(0.538192 0.293239 0)
(0.522861 0.299794 0)
(0.506491 0.303403 0)
(0.489788 0.306143 0)
(0.473383 0.310649 0)
(0.457377 0.316856 0)
(0.441313 0.323372 0)
(0.425012 0.329646 0)
(0.40856 0.336168 0)
(0.392014 0.343348 0)
(0.375327 0.351106 0)
(0.358386 0.359221 0)
(0.341009 0.367526 0)
(0.322975 0.375911 0)
(0.304075 0.384242 0)
(0.284187 0.392374 0)
(0.263307 0.400219 0)
(0.241447 0.407672 0)
(0.218614 0.414585 0)
(0.194792 0.420728 0)
(0.170125 0.426156 0)
(0.144762 0.430468 0)
(0.118952 0.434763 0)
(0.0925529 0.437604 0)
(0.0661946 0.442047 0)
(0.0395221 0.444464 0)
(0.0135501 0.44952 0)
(3 1.05674e-16 0)
(3 2.74908e-17 0)
(3 1.54548e-16 0)
(3 6.34895e-17 0)
(3 -1.14832e-16 0)
(3 -3.00648e-16 0)
(3 -2.22941e-16 0)
(3 2.52751e-16 0)
(3 2.04993e-16 0)
(3 -5.13121e-17 0)
(3 -6.86496e-17 0)
(3 1.26617e-16 0)
(3 -7.60068e-17 0)
(3 -2.24731e-16 0)
(3 6.63353e-18 0)
(3 1.24919e-17 0)
(3 -2.36144e-16 0)
(3 -6.51014e-16 0)
(3 -4.30313e-16 0)
(3 -3.48357e-16 0)
(3 1.31791e-16 0)
(3 1.4287e-16 0)
(3 -1.34063e-16 0)
(3 1.34533e-16 0)
(3 2.53711e-16 0)
(3 5.7789e-16 0)
(3 1.35977e-15 0)
(3 1.293e-15 0)
(3 9.30429e-16 0)
(3 4.68505e-16 0)
(3 -9.73105e-17 0)
(3 4.90182e-17 0)
(3 4.41963e-16 0)
(3 1.06111e-15 0)
(3 1.37141e-15 0)
(3 1.28517e-15 0)
(3 1.51564e-15 0)
(3 1.20612e-15 0)
(3 7.01502e-16 0)
(3 2.06366e-16 0)
(3 -3.47947e-16 0)
(3 -5.71102e-16 0)
(3 -1.22084e-15 0)
(3 -1.64264e-15 0)
(3 -1.89346e-15 0)
(3 -2.62548e-15 0)
(3 -3.60177e-15 0)
(3 -2.7574e-15 0)
(3 -2.02625e-15 0)
(3.00032 1.0643e-05 0)
(1.55662 0.310439 0)
(0.825725 0.274455 0)
(0.782261 0.280693 0)
(0.766572 0.286104 0)
(0.751931 0.288068 0)
(0.738987 0.290625 0)
(0.727112 0.293745 0)
(0.715444 0.296479 0)
(0.703025 0.297491 0)
(0.689744 0.296115 0)
(0.67578 0.294848 0)
(0.661823 0.297086 0)
(0.648648 0.303189 0)
(0.635819 0.310748 0)
(0.622527 0.31662 0)
(0.608601 0.319163 0)
(0.594281 0.319206 0)
(0.579602 0.319561 0)
(0.565039 0.32299 0)
(0.551294 0.329817 0)
(0.537483 0.337411 0)
(0.522467 0.342655 0)
(0.506632 0.345896 0)
(0.490709 0.350099 0)
(0.475164 0.356329 0)
(0.459668 0.363459 0)
(0.443846 0.370453 0)
(0.427726 0.377521 0)
(0.411431 0.385258 0)
(0.394947 0.393795 0)
(0.378162 0.402975 0)
(0.360919 0.412641 0)
(0.343058 0.422694 0)
(0.324459 0.433031 0)
(0.305075 0.443458 0)
(0.284927 0.453784 0)
(0.264019 0.463863 0)
(0.241857 0.473353 0)
(0.218768 0.481924 0)
(0.194226 0.489702 0)
(0.16802 0.496394 0)
(0.140259 0.503593 0)
(0.110364 0.509601 0)
(0.0792939 0.516083 0)
(0.0472098 0.519286 0)
(0.0158786 0.52421 0)
(3 -6.14288e-17 0)
(3 -2.56703e-16 0)
(3 -3.26721e-16 0)
(3 -5.59773e-16 0)
(3 -4.9184e-16 0)
(3 -1.91282e-16 0)
(3 2.41157e-16 0)
(3 3.734e-16 0)
(3 2.70566e-16 0)
(3 1.60602e-16 0)
(3 -6.36481e-17 0)
(3 -2.95707e-17 0)
(3 1.15215e-16 0)
(3 -2.09783e-16 0)
(3 -9.80917e-16 0)
(3 -1.66436e-15 0)
(3 -2.5531e-15 0)
(3 -3.66948e-15 0)
(3 -3.424e-15 0)
(3 -3.3808e-15 0)
(3 -2.08056e-15 0)
(3 -8.27282e-16 0)
(3 5.14266e-16 0)
(3 8.01356e-16 0)
(3 6.13672e-16 0)
(3 6.01805e-16 0)
(3 7.98896e-16 0)
(3 7.91154e-16 0)
(3 5.95282e-16 0)
(3 2.87822e-16 0)
(3 -2.18568e-17 0)
(3 -1.56566e-16 0)
(3 -6.69612e-17 0)
(3 7.70466e-17 0)
(3 6.17662e-16 0)
(3 8.54075e-16 0)
(3 9.50441e-16 0)
(3 1.31709e-15 0)
(3 6.56511e-16 0)
(3 5.82084e-16 0)
(3 -1.11409e-15 0)
(3 -2.60953e-15 0)
(3 -2.80674e-15 0)
(3 -2.7551e-15 0)
(3 -3.03734e-15 0)
(3 -4.89961e-15 0)
(3 -6.83938e-15 0)
(3 -5.31793e-15 0)
(3 -6.39295e-16 0)
(3 1.79743e-08 0)
(2.38534 0.279721 0)
(0.919286 0.333086 0)
(0.794028 0.320461 0)
(0.781015 0.315045 0)
(0.765562 0.315886 0)
(0.752377 0.316679 0)
(0.740231 0.318717 0)
(0.728692 0.321759 0)
(0.71694 0.324968 0)
(0.704243 0.326675 0)
(0.690821 0.327077 0)
(0.677242 0.329098 0)
(0.664343 0.334195 0)
(0.652092 0.340855 0)
(0.63982 0.34664 0)
(0.627131 0.350253 0)
(0.613939 0.352042 0)
(0.600253 0.353547 0)
(0.586308 0.35677 0)
(0.572753 0.363023 0)
(0.559691 0.37136 0)
(0.545928 0.378914 0)
(0.531077 0.384067 0)
(0.515802 0.388815 0)
(0.50077 0.395301 0)
(0.485957 0.403278 0)
(0.470842 0.411524 0)
(0.455264 0.419726 0)
(0.439352 0.428442 0)
(0.423176 0.438082 0)
(0.406629 0.448605 0)
(0.38956 0.459891 0)
(0.371804 0.471854 0)
(0.353276 0.484466 0)
(0.333869 0.497588 0)
(0.313514 0.51113 0)
(0.292047 0.524853 0)
(0.269313 0.538748 0)
(0.24454 0.552388 0)
(0.217462 0.565889 0)
(0.187793 0.578674 0)
(0.156519 0.591735 0)
(0.124065 0.603625 0)
(0.0905795 0.613335 0)
(0.0554713 0.618411 0)
(0.0177887 0.621552 0)
(3 -1.91428e-17 0)
(3 1.16378e-16 0)
(3 6.33901e-17 0)
(3 4.90813e-17 0)
(3 8.8173e-17 0)
(3 1.30266e-16 0)
(3 8.65311e-17 0)
(3 -1.49941e-16 0)
(3 -3.333e-16 0)
(3 -2.88418e-16 0)
(3 -2.64481e-16 0)
(3 -1.89435e-16 0)
(3 6.1631e-17 0)
(3 -1.79583e-16 0)
(3 -6.22635e-16 0)
(3 -1.25551e-15 0)
(3 -1.32447e-15 0)
(3 -1.4382e-15 0)
(3 -1.79787e-15 0)
(3 -1.7809e-15 0)
(3 -1.62314e-15 0)
(3 -9.83089e-16 0)
(3 -1.89502e-16 0)
(3 5.84488e-16 0)
(3 6.71309e-16 0)
(3 6.61548e-16 0)
(3 4.18964e-16 0)
(3 1.0148e-15 0)
(3 1.54391e-15 0)
(3 1.67546e-15 0)
(3 1.39299e-15 0)
(3 2.72589e-16 0)
(3 -8.62069e-16 0)
(3 -1.08454e-15 0)
(3 -8.95472e-16 0)
(3 -5.77684e-16 0)
(3 -1.3222e-15 0)
(3 -1.46135e-15 0)
(3 -1.61521e-15 0)
(3 -2.51049e-15 0)
(3 -2.53359e-15 0)
(3 -2.43822e-15 0)
(3 -2.59027e-15 0)
(3 -2.71929e-15 0)
(3 -2.51146e-15 0)
(3 -1.97022e-15 0)
(3 -2.61619e-15 0)
(3 -1.37161e-15 0)
(3 -3.55808e-16 0)
(3 -7.41348e-09 0)
(3.0275 0.0172596 0)
(1.25611 0.374164 0)
(0.84362 0.323956 0)
(0.82363 0.339507 0)
(0.805078 0.340544 0)
(0.789654 0.339734 0)
(0.775497 0.340679 0)
(0.762153 0.343467 0)
(0.74936 0.348126 0)
(0.736247 0.353164 0)
(0.722302 0.356714 0)
(0.708155 0.359565 0)
(0.694567 0.363733 0)
(0.681724 0.369127 0)
(0.669213 0.374493 0)
(0.656619 0.379109 0)
(0.643678 0.383069 0)
(0.630281 0.386828 0)
(0.616497 0.391017 0)
(0.602704 0.396846 0)
(0.589515 0.405055 0)
(0.576562 0.414214 0)
(0.562824 0.421975 0)
(0.54839 0.42823 0)
(0.533957 0.435174 0)
(0.519856 0.443863 0)
(0.505527 0.453509 0)
(0.490822 0.463396 0)
(0.475669 0.473622 0)
(0.4602 0.484711 0)
(0.444393 0.496839 0)
(0.428124 0.510034 0)
(0.411173 0.52428 0)
(0.393326 0.539645 0)
(0.374663 0.556181 0)
(0.355274 0.573891 0)
(0.33514 0.592619 0)
(0.314154 0.612305 0)
(0.291718 0.632435 0)
(0.267345 0.652414 0)
(0.240702 0.671014 0)
(0.211542 0.6872 0)
(0.180159 0.702968 0)
(0.14311 0.721657 0)
(0.0970009 0.744024 0)
(0.0370344 0.763441 0)
(3 9.24016e-17 0)
(3 8.26977e-17 0)
(3 2.9174e-16 0)
(3 4.74551e-16 0)
(3 5.01742e-16 0)
(3 5.27694e-16 0)
(3 2.02238e-16 0)
(3 -1.09836e-16 0)
(3 -2.94014e-16 0)
(3 -3.00567e-16 0)