/*--------------------------------*- C++ -*----------------------------------*\
  =========                 |
  \\      /  F ield         | OpenFOAM: The Open Source CFD Toolbox
   \\    /   O peration     | Website:  https://openfoam.org
    \\  /    A nd           | Version:  7
     \\/     M anipulation  |
\*---------------------------------------------------------------------------*/
FoamFile
{
    version     2.0;
    format      ascii;
    class       volScalarField;
    location    "0.007";
    object      rho;
}
// * * * * * * * * * * * * * * * * * * * * * * * * * * * * * * * * * * * * * //

dimensions      [1 -3 0 0 0 0 0];

internalField   nonuniform List<scalar> 
10000
(
0.997574
0.997574
0.997574
0.997574
0.997574
0.997574
0.997574
0.997574
0.997574
0.997574
0.997574
0.997574
0.997574
0.997574
0.997574
0.997574
0.997574
0.997574
0.997574
0.997574
0.997574
0.997574
0.997574
0.997574
0.997574
0.997574
0.997574
0.997574
0.997574
0.997574
0.997574
0.997574
0.997574
0.997574
0.997574
0.997574
0.997574
0.997574
0.997574
0.997574
0.997574
0.997574
0.997574
0.997574
0.997574
0.997574
0.997574
0.997574
0.997574
0.997574
0.997574
0.997574
0.997574
0.997574
0.997574
0.997574
0.997574
0.997574
0.997574
0.997574
0.997574
0.997574
0.997574
0.997574
0.997574
0.997574
0.997574
0.997574
0.997574
0.997574
0.997574
0.997574
0.997574
0.997574
0.997574
0.997574
0.997574
0.997574
0.997574
0.997574
0.997574
0.997574
0.997574
0.997574
0.997574
0.997574
0.997574
0.997574
0.997574
0.997574
0.997574
0.997574
0.997574
0.997574
0.997574
0.997574
0.997574
0.997574
0.997574
0.997574
0.997574
0.997574
0.997574
0.997574
0.997574
0.997574
0.997574
0.997574
0.997574
0.997574
0.997574
0.997574
0.997574
0.997574
0.997574
0.997574
0.997574
0.997574
0.997574
0.997574
0.997574
0.997574
0.997574
0.997574
0.997574
0.997574
0.997574
0.997574
0.997574
0.997574
0.997574
0.997574
0.997574
0.997574
0.997574
0.997574
0.997574
0.997574
0.997574
0.997574
0.997574
0.997574
0.997574
0.997574
0.997574
0.997574
0.997574
0.997574
0.997574
0.997574
0.997574
0.997574
0.997574
0.997574
0.997574
0.997574
0.997574
0.997574
0.997574
0.997574
0.997574
0.997574
0.997574
0.997574
0.997574
0.997574
0.997574
0.997574
0.997574
0.997574
0.997574
0.997574
0.997574
0.997574
0.997574
0.997574
0.997574
0.997574
0.997574
0.997574
0.997574
0.997574
0.997574
0.997574
0.997574
0.997574
0.997574
0.997574
0.997574
0.997574
0.997574
0.997574
0.997574
0.997574
0.997574
0.997574
0.997574
0.997574
0.997574
0.997574
0.997574
0.997574
0.997574
0.997574
0.997574
0.997574
0.997574
0.997574
0.997574
0.997574
0.997574
0.997574
0.997574
0.997574
0.997574
0.997574
0.997574
0.997574
0.997574
0.997574
0.997574
0.997574
0.997574
0.997574
0.997574
0.997574
0.997574
0.997574
0.997574
0.997574
0.997574
0.997574
0.997574
0.997574
0.997574
0.997574
0.997574
0.997574
0.997574
0.997574
0.997574
0.997574
0.997574
0.997574
0.997574
0.997574
0.997574
0.997574
0.997574
0.997574
0.997574
0.997574
0.997574
0.997574
0.997574
0.997574
0.997574
0.997574
0.997574
0.997574
0.997574
0.997574
0.997574
0.997574
0.997574
0.997574
0.997574
0.997574
0.997574
0.997574
0.997574
0.997574
0.997574
0.997574
0.997574
0.997574
0.997574
0.997574
0.997574
0.997574
0.997574
0.997574
0.997574
0.997574
0.997574
0.997574
0.997574
0.997574
0.997574
0.997574
0.997574
0.997574
0.997574
0.997574
0.997574
0.997574
0.997574
0.997574
0.997574
0.997574
0.997574
0.997574
0.997574
0.997574
0.997574
0.997574
0.997574
0.997574
0.997574
0.997574
0.997574
0.997574
0.997574
0.997574
0.997574
0.997574
0.997574
0.997574
0.997574
0.997574
0.997574
0.997574
0.997574
0.997574
0.997574
0.997574
0.997574
0.997574
0.997574
0.997574
0.997574
0.997574
0.997574
0.997574
0.997574
0.997574
0.997574
0.997574
0.997574
0.997574
0.997574
0.997574
0.997574
0.997574
0.997574
0.997574
0.997574
0.997574
0.997574
0.997574
0.997574
0.997574
0.997574
0.997574
0.997574
0.997574
0.997574
0.997574
0.997574
0.997574
0.997574
0.997574
0.997574
0.997574
0.997574
0.997574
0.997574
0.997574
0.997574
0.997574
0.997574
0.997574
0.997574
0.997574
0.997574
0.997574
0.997574
0.997574
0.997574
0.997574
0.997574
0.997574
0.997574
0.997574
0.997574
0.997574
0.997574
0.997574
0.997574
0.997574
0.997574
0.997574
0.997574
0.997574
0.997574
0.997574
0.997574
0.997574
0.997574
0.997574
0.997574
0.997574
0.997574
0.997574
0.997574
0.997574
0.997574
0.997574
0.997574
0.997574
0.997574
0.997574
0.997574
0.997574
0.997574
0.997574
0.997574
0.997574
0.997574
0.997574
0.997574
0.997574
0.997574
0.997574
0.997574
0.997574
0.997574
0.997574
0.997574
0.997574
0.997574
0.997574
0.997574
0.997574
0.997574
0.997574
0.997574
0.997574
0.997574
0.997574
0.997574
0.997574
0.997574
0.997574
0.997574
0.997574
0.997574
0.997574
0.997574
0.997574
0.997574
0.997574
0.997574
0.997574
0.997574
0.997574
0.997574
0.997574
0.997574
0.997574
0.997574
0.997574
0.997574
0.997574
0.997574
0.997574
0.997574
0.997574
0.997574
0.997574
0.997574
0.997574
0.997574
0.997574
0.997574
0.997574
0.997574
0.997574
0.997574
0.997574
0.997574
0.997574
0.997574
0.997574
0.997574
0.997574
0.997574
0.997574
0.997574
0.997574
0.997574
0.997574
0.997574
0.997574
0.997574
0.997574
0.997574
0.997574
0.997574
0.997574
0.997574
0.997574
0.997574
0.997574
0.997574
0.997574
0.997574
0.997574
0.997574
0.997574
0.997574
0.997574
0.997574
0.997574
0.997574
0.997574
0.997574
0.997574
0.997574
0.997574
0.997574
0.997574
0.997574
0.997574
0.997574
0.997574
0.997574
0.997574
0.997574
0.997574
0.997574
0.997574
0.997574
0.997574
0.997574
0.997574
0.997574
0.997574
0.997574
0.997574
0.997574
0.997574
0.997574
0.997574
0.997574
0.997574
0.997574
0.997574
0.997574
0.997574
0.997574
0.997574
0.997574
0.997574
0.997574
0.997574
0.997574
0.997574
0.997574
0.997574
0.997574
0.997574
0.997574
0.997574
0.997574
0.997574
0.997574
0.997574
0.997574
0.997574
0.997574
0.997574
0.997574
0.997574
0.997574
0.997574
0.997574
0.997574
0.997574
0.997574
0.997574
0.997574
0.997574
0.997574
0.997574
0.997574
0.997574
0.997574
0.997574
0.997574
0.997574
0.997574
0.997574
0.997574
0.997574
0.997574
0.997574
0.997574
0.997574
0.997574
0.997574
0.997574
0.997574
0.997574
0.997574
0.997574
0.997574
0.997574
0.997574
0.997574
0.997574
0.997574
0.997574
0.997574
0.997574
0.997574
0.997574
0.997574
0.997574
0.997574
0.997574
0.997574
0.997574
0.997574
0.997574
0.997574
0.997574
0.997574
0.997574
0.997574
0.997574
0.997574
0.997574
0.997574
0.997574
0.997574
0.997574
0.997574
0.997574
0.997574
0.997574
0.997574
0.997574
0.997574
0.997574
0.997574
0.997574
0.997574
0.997574
0.997574
0.997574
0.997574
0.997574
0.997574
0.997574
0.997574
0.997574
0.997574
0.997574
0.997574
0.997574
0.997574
0.997574
0.997574
0.997574
0.997574
0.997574
0.997574
0.997574
0.997574
0.997574
0.997574
0.997574
0.997574
0.997574
0.997574
0.997574
0.997574
0.997574
0.997574
0.997574
0.997574
0.997574
0.997574
0.997574
0.997574
0.997574
0.997574
0.997574
0.997574
0.997574
0.997574
0.997574
0.997574
0.997574
0.997574
0.997574
0.997574
0.997574
0.997574
0.997574
0.997574
0.997574
0.997574
0.997574
0.997574
0.997574
0.997574
0.997574
0.997574
0.997574
0.997574
0.997574
0.997574
0.997574
0.997574
0.997574
0.997574
0.997574
0.997574
0.997574
0.997574
0.997574
0.997574
0.997574
0.997574
0.997574
0.997574
0.997574
0.997574
0.997574
0.997574
0.997574
0.997574
0.997574
0.997574
0.997574
0.997574
0.997574
0.997574
0.997574
0.997574
0.997574
0.997574
0.997574
0.997574
0.997574
0.997574
0.997574
0.997574
0.997574
0.997574
0.997574
0.997574
0.997574
0.997574
0.997574
0.997574
0.997574
0.997574
0.997574
0.997574
0.997574
0.997574
0.997574
0.997574
0.997574
0.997574
0.997574
0.997574
0.997574
0.997574
0.997574
0.997574
0.997574
0.997574
0.997574
0.997574
0.997574
0.997574
0.997574
0.997574
0.997574
0.997574
0.997574
0.997574
0.997574
0.997574
0.997574
0.997574
0.997574
0.997574
0.997574
0.997574
0.997574
0.997574
0.997574
0.997574
0.997574
0.997574
0.997574
0.997574
0.997574
0.997574
0.997574
0.997574
0.997574
0.997574
0.997574
0.997574
0.997574
0.997574
0.997574
0.997574
0.997574
0.997574
0.997574
0.997574
0.997574
0.997574
0.997574
0.997574
0.997574
0.997574
0.997574
0.997574
0.997574
0.997574
0.997574
0.997574
0.997574
0.997574
0.997574
0.997574
0.997574
0.997574
0.997574
0.997574
0.997574
0.997574
0.997574
0.997574
0.997574
0.997574
0.997574
0.997574
0.997574
0.997574
0.997574
0.997574
0.997574
0.997574
0.997574
0.997574
0.997574
0.997574
0.997574
0.997574
0.997574
0.997574
0.997574
0.997574
0.997574
0.997574
0.997574
0.997574
0.997574
0.997574
0.997574
0.997574
0.997574
0.997574
0.997574
0.997574
0.997574
0.997574
0.997574
0.997574
0.997574
0.997574
0.997574
0.997574
0.997574
0.997574
0.997574
0.997574
0.997574
0.997574
0.997574
0.997574
0.997574
0.997574
0.997574
0.997574
0.997574
0.997574
0.997574
0.997574
0.997574
0.997574
0.997574
0.997574
0.997574
0.997574
0.997574
0.997574
0.997574
0.997574
0.997574
0.997574
0.997574
0.997574
0.997574
0.997574
0.997574
0.997574
0.997574
0.997574
0.997574
0.997574
0.997574
0.997574
0.997574
0.997574
0.997574
0.997574
0.997574
0.997574
0.997574
0.997574
0.997574
0.997574
0.997574
0.997574
0.997574
0.997574
0.997574
0.997574
0.997574
0.997574
0.997574
0.997574
0.997574
0.997574
0.997574
0.997574
0.997574
0.997574
0.997574
0.997574
0.997574
0.997574
0.997574
0.997574
0.997574
0.997574
0.997574
0.997574
0.997574
0.997574
0.997574
0.997574
0.997574
0.997574
0.997574
0.997574
0.997574
0.997574
0.997574
0.997574
0.997574
0.997574
0.997574
0.997574
0.997574
0.997574
0.997574
0.997574
0.997574
0.997574
0.997574
0.997574
0.997574
0.997574
0.997574
0.997574
0.997574
0.997574
0.997574
0.997574
0.997574
0.997574
0.997574
0.997574
0.997574
0.997574
0.997574
0.997574
0.997574
0.997574
0.997574
0.997574
0.997574
0.997574
0.997574
0.997574
0.997574
0.997574
0.997574
0.997574
0.997574
0.997574
0.997574
0.997574
0.997574
0.997574
0.997574
0.997574
0.997574
0.997574
0.997574
0.997574
0.997574
0.997574
0.997574
0.997574
0.997574
0.997574
0.997574
0.997574
0.997574
0.997574
0.997574
0.997574
0.997574
0.997574
0.997574
0.997574
0.997574
0.997574
0.997574
0.997574
0.997574
0.997574
0.997574
0.997574
0.997574
0.997574
0.997574
0.997574
0.997574
0.997574
0.997574
0.997574
0.997574
0.997574
0.997574
0.997574
0.997574
0.997574
0.997574
0.997574
0.997574
0.997574
0.997574
0.997574
0.997574
0.997574
0.997574
0.997574
0.997574
0.997574
0.997574
0.997574
0.997574
0.997574
0.997574
0.997574
0.997574
0.997574
0.997574
0.997574
0.997574
0.997574
0.997574
0.997574
0.997574
0.997574
0.997574
0.997574
0.997574
0.997574
0.997574
0.997574
0.997574
0.997574
0.997574
0.997574
0.997574
0.997574
0.997574
0.997574
0.997574
0.997574
0.997574
0.997574
0.997574
0.997574
0.997574
0.997574
0.997574
0.997574
0.997574
0.997574
0.997574
0.997574
0.997574
0.997574
0.997574
0.997574
0.997574
0.997574
0.997574
0.997574
0.997574
0.997574
0.997574
0.997574
0.997574
0.997574
0.997574
0.997574
0.997574
0.997574
0.997574
0.997574
0.997574
0.997574
0.997574
0.997574
0.997574
0.997574
0.997574
0.997574
0.997574
0.997574
0.997574
0.997574
0.997574
0.997574
0.997574
0.997574
0.997574
0.997574
0.997574
0.997574
0.997574
0.997574
0.997574
0.997574
0.997574
0.997574
0.997574
0.997574
0.997574
0.997574
0.997574
0.997574
0.997574
0.997574
0.997574
0.997574
0.997574
0.997574
0.997574
0.997574
0.997574
0.997574
0.997574
0.997574
0.997574
0.997574
0.997574
0.997574
0.997574
0.997574
0.997574
0.997574
0.997574
0.997574
0.997574
0.997574
0.997574
0.997574
0.997574
0.997574
0.997574
0.997574
0.997574
0.997574
0.997574
0.997574
0.997574
0.997574
0.997574
0.997574
0.997574
0.997574
0.997574
0.997574
0.997574
0.997574
0.997574
0.997574
0.997574
0.997574
0.997574
0.997574
0.997574
0.997574
0.997574
0.997574
0.997574
0.997574
0.997574
0.997574
0.997574
0.997574
0.997574
0.997574
0.997574
0.997574
0.997574
0.997574
0.997574
0.997574
0.997574
0.997574
0.997574
0.997574
0.997574
0.997574
0.997574
0.997574
0.997574
0.997574
0.997574
0.997574
0.997574
0.997574
0.997574
0.997574
0.997574
0.997574
0.997574
0.997574
0.997574
0.997574
0.997574
0.997574
0.997574
0.997574
0.997574
0.997574
0.997574
0.997574
0.997574
0.997574
0.997574
0.997574
0.997574
0.997574
0.997574
0.997574
0.997574
0.997574
0.997574
0.997574
0.997574
0.997574
0.997574
0.997574
0.997574
0.997574
0.997574
0.997574
0.997574
0.997574
0.997574
0.997574
0.997574
0.997574
0.997574
0.997574
0.997574
0.997574
0.997574
0.997574
0.997574
0.997574
0.997574
0.997574
0.997574
0.997574
0.997574
0.997574
0.997574
0.997574
0.997574
0.997574
0.997574
0.997574
0.997574
0.997574
0.997574
0.997574
0.997574
0.997574
0.997574
0.997574
0.997574
0.997574
0.997574
0.997574
0.997574
0.997574
0.997574
0.997574
0.997574
0.997574
0.997574
0.997574
0.997574
0.997574
0.997574
0.997574
0.997574
0.997574
0.997574
0.997574
0.997574
0.997574
0.997574
0.997574
0.997574
0.997574
0.997574
0.997574
0.997574
0.997574
0.997574
0.997574
0.997574
0.997574
0.997574
0.997574
0.997574
0.997574
0.997574
0.997574
0.997574
0.997574
0.997574
0.997574
0.997574
0.997574
0.997574
0.997574
0.997574
0.997574
0.997574
0.997574
0.997574
0.997574
0.997574
0.997574
0.997574
0.997574
0.997574
0.997574
0.997574
0.997574
0.997574
0.997574
0.997574
0.997574
0.997574
0.997574
0.997574
0.997574
0.997574
0.997574
0.997574
0.997574
0.997574
0.997574
0.997574
0.997574
0.997574
0.997574
0.997574
0.997574
0.997574
0.997574
0.997574
0.997574
0.997574
0.997574
0.997574
0.997574
0.997574
0.997574
0.997574
0.997574
0.997574
0.997574
0.997574
0.997574
0.997574
0.997574
0.997574
0.997574
0.997574
0.997574
0.997574
0.997574
0.997574
0.997574
0.997574
0.997574
0.997574
0.997574
0.997574
0.997574
0.997574
0.997574
0.997574
0.997574
0.997574
0.997574
0.997574
0.997574
0.997574
0.997574
0.997574
0.997574
0.997574
0.997574
0.997574
0.997574
0.997574
0.997574
0.997574
0.997574
0.997574
0.997574
0.997574
0.997574
0.997574
0.997574
0.997574
0.997574
0.997574
0.997574
0.997574
0.997574
0.997574
0.997574
0.997574
0.997574
0.997574
0.997574
0.997574
0.997574
0.997574
0.997574
0.997574
0.997574
0.997574
0.997574
0.997574
0.997574
0.997574
0.997574
0.997574
0.997574
0.997574
0.997574
0.997574
0.997574
0.997574
0.997574
0.997574
0.997574
0.997574
0.997574
0.997574
0.997574
0.997574
0.997574
0.997574
0.997574
0.997574
0.997574
0.997574
0.997574
0.997574
0.997574
0.997574
0.997574
0.997574
0.997574
0.997574
0.997574
0.997574
0.997574
0.997574
0.997574
0.997574
0.997574
0.997574
0.997574
0.997574
0.997574
0.997574
0.997574
0.997574
0.997574
0.997574
0.997574
0.997574
0.997574
0.997574
0.997574
0.997574
0.997574
0.997574
0.997574
0.997574
0.997574
0.997574
0.997574
0.997574
0.997574
0.997574
0.997574
0.997574
0.997574
0.997574
0.997574
0.997574
0.997574
0.997574
0.997574
0.997574
0.997574
0.997574
0.997574
0.997574
0.997574
0.997574
0.997574
0.997574
0.997574
0.997574
0.997574
0.997574
0.997574
0.997574
0.997574
0.997574
0.997574
0.997574
0.997574
0.997574
0.997574
0.997574
0.997574
0.997574
0.997574
0.997574
0.997574
0.997574
0.997574
0.997574
0.997574
0.997574
0.997574
0.997574
0.997574
0.997574
0.997574
0.997574
0.997574
0.997574
0.997574
0.997574
0.997574
0.997574
0.997574
0.997574
0.997574
0.997574
0.997574
0.997574
0.997574
0.997574
0.997574
0.997574
0.997574
0.997574
0.997574
0.997574
0.997574
0.997574
0.997574
0.997574
0.997574
0.997574
0.997574
0.997574
0.997574
0.997574
0.997574
0.997574
0.997574
0.997574
0.997574
0.997574
0.997574
0.997574
0.997574
0.997574
0.997574
0.997574
0.997574
0.997574
0.997574
0.997574
0.997574
0.997574
0.997574
0.997574
0.997574
0.997574
0.997574
0.997574
0.997574
0.997574
0.997574
0.997574
0.997574
0.997574
0.997574
0.997574
0.997574
0.997574
0.997574
0.997574
0.997574
0.997574
0.997574
0.997574
0.997574
0.997574
0.997574
0.997574
0.997574
0.997574
0.997574
0.997574
0.997574
0.997574
0.997574
0.997574
0.997574
0.997574
0.997574
0.997574
0.997574
0.997574
0.997574
0.997574
0.997574
0.997574
0.997574
0.997574
0.997574
0.997574
0.997574
0.997574
0.997574
0.997574
0.997574
0.997574
0.997574
0.997574
0.997574
0.997574
0.997574
0.997574
0.997574
0.997574
0.997574
0.997574
0.997574
0.997574
0.997574
0.997574
0.997574
0.997574
0.997574
0.997574
0.997574
0.997574
0.997574
0.997574
0.997574
0.997574
0.997574
0.997574
0.997574
0.997574
0.997574
0.997574
0.997574
0.997574
0.997574
0.997574
0.997574
0.997574
0.997574
0.997574
0.997574
0.997574
0.997574
0.997574
0.997574
0.997574
0.997574
0.997574
0.997574
0.997574
0.997574
0.997574
0.997574
0.997574
0.997574
0.997574
0.997574
0.997574
0.997574
0.997574
0.997574
0.997574
0.997574
0.997574
0.997574
0.997574
0.997574
0.997574
0.997574
0.997574
0.997574
0.997574
0.997574
0.997574
0.997574
0.997574
0.997574
0.997574
0.997574
0.997574
0.997574
0.997574
0.997574
0.997574
0.997574
0.997574
0.997574
0.997574
0.997574
0.997574
0.997574
0.997574
0.997574
0.997574
0.997574
0.997574
0.997574
0.997574
0.997574
0.997574
0.997574
0.997574
0.997574
0.997574
0.997574
0.997574
0.997574
0.997574
0.997574
0.997574
0.997574
0.997574
0.997574
0.997574
0.997574
0.997574
0.997574
0.997574
0.997574
0.997574
0.997574
0.997574
0.997574
0.997574
0.997574
0.997574
0.997574
0.997574
0.997574
0.997574
0.997574
0.997574
0.997574
0.997574
0.997574
0.997574
0.997574
0.997574
0.997574
0.997574
0.997574
0.997574
0.997574
0.997574
0.997574
0.997574
0.997574
0.997574
0.997574
0.997574
0.997574
0.997574
0.997574
0.997574
0.997574
0.997574
0.997574
0.997574
0.997574
0.997574
0.997574
0.997574
0.997574
0.997574
0.997574
0.997574
0.997574
0.997574
0.997574
0.997574
0.997574
0.997574
0.997574
0.997574
0.997574
0.997574
0.997574
0.997574
0.997574
0.997574
0.997574
0.997574
0.997574
0.997574
0.997574
0.997574
0.997574
0.997574
0.997574
0.997574
0.997574
0.997574
0.997574
0.997574
0.997574
0.997574
0.997574
0.997574
0.997574
0.997574
0.997574
0.997574
0.997574
0.997574
0.997574
0.997574
0.997574
0.997574
0.997574
0.997574
0.997574
0.997574
0.997574
0.997574
0.997574
0.997574
0.997574
0.997574
0.997574
0.997574
0.997574
0.997574
0.997574
0.997574
0.997574
0.997574
0.997574
0.997574
0.997574
0.997574
0.997574
0.997574
0.997574
0.997574
0.997574
0.997574
0.997574
0.997574
0.997574
0.997574
0.997574
0.997574
0.997574
0.997574
0.997574
0.997574
0.997574
0.997574
0.997574
0.997574
0.997574
0.997574
0.997574
0.997574
0.997574
0.997574
0.997574
0.997574
0.997574
0.997574
0.997574
0.997574
0.997574
0.997574
0.997574
0.997574
0.997574
0.997574
0.997574
0.997574
0.997574
0.997574
0.997574
0.997574
0.997574
0.997574
0.997574
0.997574
0.997574
0.997574
0.997574
0.997574
0.997574
0.997574
0.997574
0.997574
0.997574
0.997574
0.997574
0.997574
0.997574
0.997574
0.997574
0.997574
0.997574
0.997574
0.997574
0.997574
0.997574
0.997574
0.997574
0.997574
0.997574
0.997574
0.997574
0.997574
0.997574
0.997574
0.997574
0.997574
0.997574
0.997574
0.997574
0.997574
0.997574
0.997574
0.997574
0.997574
0.997574
0.997574
0.997574
0.997574
0.997574
0.997574
0.997574
0.997574
0.997574
0.997574
0.997574
0.997574
0.997574
0.997574
0.997574
0.997574
0.997574
0.997574
0.997574
0.997574
0.997574
0.997574
0.997574
0.997574
0.997574
0.997574
0.997574
0.997574
0.997574
0.997574
0.997574
0.997574
0.997574
0.997574
0.997574
0.997574
0.997574
0.997574
0.997574
0.997574
0.997574
0.997574
0.997574
0.997574
0.997574
0.997574
0.997574
0.997574
0.997574
0.997574
0.997574
0.997574
0.997574
0.997574
0.997574
0.997574
0.997574
0.997574
0.997574
0.997574
0.997574
0.997574
0.997574
0.997574
0.997574
0.997574
0.997574
0.997574
0.997574
0.997574
0.997574
0.997574
0.997574
0.997574
0.997574
0.997574
0.997574
0.997574
0.997574
0.997574
0.997574
0.997574
0.997574
0.997574
0.997574
0.997574
0.997574
0.997574
0.997574
0.997574
0.997574
0.997574
0.997574
0.997574
0.997574
0.997574
0.997574
0.997574
0.997574
0.997574
0.997574
0.997574
0.997574
0.997574
0.997574
0.997574
0.997574
0.997574
0.997574
0.997574
0.997574
0.997574
0.997574
0.997574
0.997574
0.997574
0.997574
0.997574
0.997574
0.997574
0.997574
0.997574
0.997574
0.997574
0.997574
0.997574
0.997574
0.997574
0.997574
0.997574
0.997574
0.997574
0.997574
0.997574
0.997574
0.997574
0.997574
0.997574
0.997574
0.997574
0.997574
0.997574
0.997574
0.997574
0.997574
0.997574
0.997574
0.997574
0.997574
0.997574
0.997574
0.997574
0.997574
0.997574
0.997574
0.997574
0.997574
0.997574
0.997574
0.997574
0.997574
0.997574
0.997574
0.997574
0.997574
0.997574
0.997574
0.997574
0.997574
0.997574
0.997574
0.997574
0.997574
0.997574
0.997574
0.997574
0.997574
0.997574
0.997574
0.997574
0.997574
0.997574
0.997574
0.997574
0.997574
0.997574
0.997574
0.997574
0.997574
0.997574
0.997574
0.997574
0.997574
0.997574
0.997574
0.997574
0.997574
0.997574
0.997574
0.997574
0.997574
0.997574
0.997574
0.997574
0.997574
0.997574
0.997574
0.997574
0.997574
0.997574
0.997574
0.997574
0.997574
0.997574
0.997574
0.997574
0.997574
0.997574
0.997574
0.997574
0.997574
0.997574
0.997574
0.997574
0.997574
0.997574
0.997574
0.997574
0.997574
0.997574
0.997574
0.997574
0.997573
0.997573
0.997573
0.997573
0.997573
0.997573
0.997573
0.997572
0.997572
0.997572
0.997572
0.997571
0.997571
0.99757
0.99757
0.99757
0.997569
0.997568
0.997568
0.997567
0.997566
0.997565
0.997564
0.997563
0.997562
0.997561
0.997559
0.997558
0.997556
0.997554
0.997552
0.99755
0.997547
0.997544
0.997541
0.997538
0.997535
0.997531
0.997527
0.997522
0.997517
0.997512
0.997506
0.9975
0.997494
0.997486
0.997479
0.99747
0.997462
0.997452
0.997442
0.997431
0.997419
0.997406
0.997393
0.997378
0.997363
0.997347
0.997329
0.997311
0.997291
0.99727
0.997248
0.997224
0.9972
0.997173
0.997145
0.997116
0.997085
0.997053
0.997018
0.996982
0.996944
0.996904
0.996863
0.996819
0.996773
0.996725
0.996675
0.996623
0.996568
0.996511
0.996452
0.996391
0.996327
0.99626
0.996191
0.996119
0.996045
0.995968
0.995888
0.995806
0.995721
0.995633
0.995543
0.995449
0.995353
0.995254
0.995152
0.995047
0.99494
0.994829
0.994716
0.9946
0.99448
0.994358
0.994233
0.994106
0.993975
0.993841
0.993705
0.993566
0.993424
0.993279
0.993132
0.992981
0.992828
0.992672
0.992514
0.992353
0.992189
0.992023
0.991854
0.991683
0.991509
0.991333
0.991154
0.990973
0.990789
0.990603
0.990415
0.990225
0.990032
0.989837
0.98964
0.989441
0.98924
0.989037
0.988832
0.988624
0.988415
0.988204
0.987991
0.987777
0.98756
0.987342
0.987122
0.9869
0.986677
0.986452
0.986225
0.985997
0.985768
0.985536
0.985304
0.98507
0.984834
0.984598
0.98436
0.98412
0.983879
0.983637
0.983394
0.98315
0.982904
0.982658
0.98241
0.982161
0.981911
0.98166
0.981408
0.981155
0.980901
0.980646
0.98039
0.980133
0.979875
0.979617
0.979357
0.979097
0.978836
0.978574
0.978311
0.978048
0.977784
0.977519
0.977254
0.976987
0.97672
0.976453
0.976185
0.975916
0.975646
0.975376
0.975106
0.974834
0.974563
0.97429
0.974017
0.973744
0.97347
0.973196
0.972921
0.972646
0.97237
0.972094
0.971817
0.97154
0.971262
0.970984
0.970706
0.970427
0.970148
0.969869
0.969589
0.969309
0.969028
0.968747
0.968466
0.968184
0.967902
0.96762
0.967338
0.967055
0.966772
0.966488
0.966205
0.965921
0.965636
0.965352
0.965067
0.964782
0.964497
0.964212
0.963926
0.96364
0.963354
0.963068
0.962781
0.962494
0.962207
0.96192
0.961633
0.961345
0.961058
0.96077
0.960482
0.960194
0.959905
0.959617
0.959328
0.959039
0.95875
0.958461
0.958172
0.957882
0.957593
0.957303
0.957013
0.956724
0.956433
0.956143
0.955853
0.955563
0.955272
0.954982
0.954691
0.9544
0.954109
0.953818
0.953527
0.953236
0.952945
0.952653
0.952362
0.95207
0.951779
0.951487
0.951195
0.950903
0.950612
0.95032
0.950028
0.949736
0.949443
0.949151
0.948859
0.948567
0.948274
0.947982
0.94769
0.947397
0.947104
0.946812
0.946519
0.946227
0.945934
0.945641
0.945348
0.945056
0.944763
0.94447
0.944177
0.943884
0.943591
0.943298
0.943005
0.942712
0.942419
0.942126
0.941833
0.94154
0.941247
0.940954
0.940661
0.940367
0.940074
0.939781
0.939488
0.939195
0.938902
0.938608
0.938315
0.938022
0.937729
0.937436
0.937142
0.936849
0.936556
0.936263
0.93597
0.935676
0.935383
0.93509
0.934797
0.934504
0.934211
0.933917
0.933624
0.933331
0.933038
0.932745
0.932452
0.932159
0.931866
0.931573
0.93128
0.930987
0.930694
0.930401
0.930108
0.929815
0.929522
0.929229
0.928936
0.928643
0.928351
0.928058
0.927765
0.927472
0.92718
0.926887
0.926594
0.926302
0.926009
0.925716
0.925424
0.925131
0.924839
0.924546
0.924254
0.923962
0.923669
0.923377
0.923085
0.922792
0.9225
0.922208
0.921916
0.921624
0.921331
0.921039
0.920747
0.920455
0.920163
0.919871
0.91958
0.919288
0.918996
0.918704
0.918412
0.918121
0.917829
0.917538
0.917246
0.916954
0.916663
0.916372
0.91608
0.915789
0.915498
0.915206
0.914915
0.914624
0.914333
0.914042
0.913751
0.91346
0.913169
0.912878
0.912587
0.912296
0.912005
0.911715
0.911424
0.911133
0.910843
0.910552
0.910262
0.909971
0.909681
0.90939
0.9091
0.90881
0.90852
0.90823
0.90794
0.907649
0.907359
0.90707
0.90678
0.90649
0.9062
0.90591
0.905621
0.905331
0.905041
0.904752
0.904462
0.904173
0.903884
0.903594
0.903305
0.903016
0.902727
0.902437
0.902148
0.901859
0.90157
0.901282
0.900993
0.900704
0.900415
0.900126
0.899838
0.899549
0.899261
0.898972
0.898684
0.898396
0.898107
0.897819
0.897531
0.897243
0.896955
0.896667
0.896379
0.896091
0.895803
0.895515
0.895228
0.89494
0.894652
0.894365
0.894077
0.89379
0.893502
0.893215
0.892928
0.892641
0.892354
0.892066
0.891779
0.891493
0.891206
0.890919
0.890632
0.890345
0.890059
0.889772
0.889485
0.889199
0.888913
0.888626
0.88834
0.888054
0.887767
0.887481
0.887195
0.886909
0.886623
0.886337
0.886052
0.885766
0.88548
0.885195
0.884909
0.884623
0.884338
0.884053
0.883767
0.883482
0.883197
0.882912
0.882627
0.882342
0.882057
0.881772
0.881487
0.881202
0.880917
0.880633
0.880348
0.880064
0.879779
0.879495
0.87921
0.878926
0.878642
0.878358
0.878074
0.87779
0.877506
0.877222
0.876938
0.876654
0.876371
0.876087
0.875803
0.87552
0.875236
0.874953
0.87467
0.874386
0.874103
0.87382
0.873537
0.873254
0.872971
0.872688
0.872406
0.872123
0.87184
0.871557
0.871275
0.870992
0.87071
0.870428
0.870145
0.869863
0.869581
0.869299
0.869017
0.868735
0.868453
0.868171
0.867889
0.867608
0.867326
0.867044
0.866763
0.866482
0.8662
0.865919
0.865638
0.865356
0.865075
0.864794
0.864513
0.864232
0.863952
0.863671
0.86339
0.863109
0.862829
0.862548
0.862268
0.861987
0.861707
0.861427
0.861147
0.860866
0.860586
0.860306
0.860026
0.859747
0.859467
0.859187
0.858907
0.858628
0.858348
0.858069
0.857789
0.85751
0.857231
0.856952
0.856672
0.856393
0.856114
0.855835
0.855557
0.855278
0.854999
0.85472
0.854442
0.854163
0.853885
0.853606
0.853328
0.85305
0.852772
0.852493
0.852215
0.851937
0.851659
0.851382
0.851104
0.850826
0.850548
0.850271
0.849993
0.849716
0.849438
0.849161
0.848884
0.848607
0.848329
0.848052
0.847775
0.847498
0.847222
0.846945
0.846668
0.846391
0.846115
0.845838
0.845562
0.845285
0.845009
0.844733
0.844457
0.844181
0.843905
0.843629
0.843353
0.843077
0.842801
0.842525
0.84225
0.841974
0.841699
0.841423
0.841148
0.840872
0.840597
0.840322
0.840047
0.839772
0.839497
0.839222
0.838947
0.838672
0.838398
0.838123
0.837849
0.837574
0.8373
0.837025
0.836751
0.836477
0.836203
0.835928
0.835654
0.83538
0.835107
0.834833
0.834559
0.834285
0.834012
0.833738
0.833465
0.833191
0.832918
0.832645
0.832371
0.832098
0.831825
0.831552
0.831279
0.831006
0.830734
0.830461
0.830188
0.829916
0.829643
0.829371
0.829098
0.828826
0.828554
0.828282
0.828009
0.827737
0.827465
0.827194
0.826922
0.82665
0.826378
0.826107
0.825835
0.825563
0.825292
0.825021
0.824749
0.824478
0.824207
0.823936
0.823665
0.823394
0.823123
0.822852
0.822581
0.822311
0.82204
0.82177
0.821499
0.821229
0.820958
0.820688
0.820418
0.820148
0.819878
0.819608
0.819338
0.819068
0.818798
0.818528
0.818259
0.817989
0.81772
0.81745
0.817181
0.816911
0.816642
0.816373
0.816104
0.815835
0.815566
0.815297
0.815028
0.814759
0.814491
0.814222
0.813953
0.813685
0.813416
0.813148
0.81288
0.812611
0.812343
0.812075
0.811807
0.811539
0.811271
0.811004
0.810736
0.810468
0.8102
0.809933
0.809665
0.809398
0.809131
0.808863
0.808596
0.808329
0.808062
0.807795
0.807528
0.807261
0.806994
0.806728
0.806461
0.806194
0.805928
0.805661
0.805395
0.805129
0.804862
0.804596
0.80433
0.804064
0.803798
0.803532
0.803266
0.803001
0.802735
0.802469
0.802204
0.801938
0.801673
0.801407
0.801142
0.800877
0.800612
0.800347
0.800082
0.799817
0.799552
0.799287
0.799022
0.798758
0.798493
0.798228
0.797964
0.797699
0.797435
0.797171
0.796907
0.796643
0.796378
0.796114
0.795851
0.795587
0.795323
0.795059
0.794795
0.794532
0.794268
0.794005
0.793742
0.793478
0.793215
0.792952
0.792689
0.792426
0.792163
0.7919
0.791637
0.791374
0.791111
0.790849
0.790586
0.790324
0.790061
0.789799
0.789537
0.789274
0.789012
0.78875
0.788488
0.788226
0.787964
0.787702
0.787441
0.787179
0.786917
0.786656
0.786394
0.786133
0.785872
0.78561
0.785349
0.785088
0.784827
0.784566
0.784305
0.784044
0.783783
0.783522
0.783262
0.783001
0.782741
0.78248
0.78222
0.781959
0.781699
0.781439
0.781179
0.780919
0.780659
0.780399
0.780139
0.779879
0.77962
0.77936
0.7791
0.778841
0.778581
0.778322
0.778063
0.777803
0.777544
0.777285
0.777026
0.776767
0.776508
0.776249
0.775991
0.775732
0.775473
0.775215
0.774956
0.774698
0.774439
0.774181
0.773923
0.773665
0.773407
0.773149
0.772891
0.772633
0.772375
0.772117
0.771859
0.771602
0.771344
0.771087
0.770829
0.770572
0.770315
0.770058
0.7698
0.769543
0.769286
0.769029
0.768772
0.768516
0.768259
0.768002
0.767746
0.767489
0.767233
0.766976
0.76672
0.766464
0.766207
0.765951
0.765695
0.765439
0.765183
0.764927
0.764672
0.764416
0.76416
0.763905
0.763649
0.763394
0.763138
0.762883
0.762628
0.762372
0.762117
0.761862
0.761607
0.761352
0.761097
0.760843
0.760588
0.760333
0.760079
0.759824
0.75957
0.759315
0.759061
0.758807
0.758553
0.758299
0.758044
0.75779
0.757537
0.757283
0.757029
0.756775
0.756522
0.756268
0.756014
0.755761
0.755508
0.755254
0.755001
0.754748
0.754495
0.754242
0.753989
0.753736
0.753483
0.75323
0.752978
0.752725
0.752472
0.75222
0.751967
0.751715
0.751463
0.75121
0.750958
0.750706
0.750454
0.750202
0.74995
0.749698
0.749447
0.749195
0.748943
0.748692
0.74844
0.748189
0.747937
0.747686
0.747435
0.747184
0.746933
0.746682
0.746431
0.74618
0.745929
0.745678