/*--------------------------------*- C++ -*----------------------------------*\
  =========                 |
  \\      /  F ield         | OpenFOAM: The Open Source CFD Toolbox
   \\    /   O peration     | Website:  https://openfoam.org
    \\  /    A nd           | Version:  7
     \\/     M anipulation  |
\*---------------------------------------------------------------------------*/
FoamFile
{
    version     2.0;
    format      ascii;
    class       volScalarField;
    location    "18";
    object      p;
}
// * * * * * * * * * * * * * * * * * * * * * * * * * * * * * * * * * * * * * //

dimensions      [0 2 -2 0 0 0 0];

internalField   nonuniform List<scalar> 
16000
(
8.3535246e-06
-0.00013205044
-0.00044354982
-0.00084584519
-0.0012639608
-0.0016525364
-0.0019807078
-0.0022296311
-0.0023886658
-0.0024521101
-0.0024170305
-0.0022819737
-0.0020463646
-0.0017104393
-0.0012755517
-0.00074471015
-0.0001232262
0.00058063035
0.0013550759
0.0021844496
0.0030491214
0.0039257356
0.0047878186
0.0056067895
0.0063533314
0.0069990693
0.0075184503
0.0078906835
0.0081015741
0.0081450781
0.0080244243
0.0077527035
0.0073529058
0.0068574746
0.0063072735
0.0057498184
0.0052401433
0.0048345355
0.0045947067
0.0045559961
0.00015282082
7.8783608e-06
-0.00024217921
-0.00055098986
-0.000873104
-0.001174227
-0.0014301128
-0.0016245782
-0.0017472636
-0.0017917326
-0.0017540515
-0.0016318577
-0.0014238909
-0.0011299118
-0.00075090815
-0.00028948509
0.00024964651
0.00085917174
0.0015287499
0.0022447397
0.0029901364
0.003744914
0.0044863747
0.0051901772
0.0058314817
0.0063863954
0.0068335887
0.007155953
0.0073421511
0.0073879057
0.0072968871
0.0070811056
0.0067607698
0.0063636408
0.0059239315
0.0054806386
0.0050749025
0.0047501378
0.0045515847
0.0045162827
0.00047139058
0.00025352629
-2.2593033e-06
-0.00028123918
-0.0005614123
-0.00081828009
-0.0010340509
-0.001196665
-0.0012979179
-0.0013322968
-0.0012960913
-0.001186769
-0.0010026809
-0.00074306314
-0.00040825969
-8.9996996e-08
0.00047770449
0.0010190036
0.0016149109
0.0022534915
0.0029197397
0.0035957025
0.0042610241
0.0048937164
0.005471251
0.0059719047
0.0063762691
0.0066688021
0.0068392727
0.006883944
0.0068063516
0.0066175787
0.006335982
0.0059863816
0.0055987779
0.0052066091
0.0048444361
0.0045464592
0.0043490304
0.004281809
0.00089294899
0.00056174059
0.00026110506
-2.4618551e-05
-0.00029515581
-0.00053423692
-0.00073029479
-0.00087611589
-0.00096663221
-0.00099815605
-0.00096788108
-0.00087351878
-0.00071318814
-0.0004855433
-0.00019007529
0.00017247009
0.00059960989
0.0010866303
0.0016261514
0.0022078228
0.0028182161
0.003440887
0.0040568772
0.0046454021
0.0051849054
0.0056543771
0.0060348518
0.0063109637
0.0064724034
0.006515104
0.0064419969
0.0062632275
0.0059957816
0.0056625347
0.0052907807
0.0049104157
0.0045521002
0.0042457385
0.0040177865
0.0038822282
0.0013436955
0.00088409631
0.00052099922
0.00021074267
-6.6900823e-05
-0.00030288805
-0.00049154383
-0.00063060928
-0.0007184308
-0.00075344837
-0.00073400391
-0.00065819338
-0.00052392635
-0.00032918776
-7.2445154e-05
0.00024684608
0.00062768016
0.001066931
0.0015588375
0.0020946106
0.0026622268
0.0032464603
0.0038292391
0.0043903238
0.0049083338
0.0053620724
0.0057320657
0.0060021885
0.006161204
0.0062040254
0.0061325196
0.0059557244
0.00568942
0.005355056
0.0049780886
0.0045860485
0.0042072079
0.0038687531
0.0035861003
0.0033624765
0.0017704824
0.0011774375
0.00074283677
0.00039684965
0.00010035624
-0.0001438593
-0.00033549135
-0.00047699559
-0.00057006348
-0.00061527378
-0.00061214041
-0.00055913623
-0.00045390019
-0.00029363052
-7.5608952e-05
0.00020218548
0.00054040845
0.0009376746
0.0013899326
0.0018899567
0.0024270252
0.002986865
0.003551904
0.0041019141
0.0046150173
0.0050690411
0.0054431371
0.0057195295
0.0058852011
0.0059333025
0.0058640767
0.0056851537
0.0054111318
0.0050624299
0.0046634531
0.0042405264
0.0038210812
0.0034316486
0.0030791317
0.0027518389
0.0021281075
0.0014032309
0.0008937148
0.00050555043
0.00018235178
-7.855105e-05
-0.00028167655
-0.00043380638
-0.00053972178
-0.00060196952
-0.00062110402
-0.00059585102
-0.00052344319
-0.00040013636
-0.00022185137
1.5095397e-05
0.00031320504
0.00067299591
0.0010922468
0.0015653511
0.0020828595
0.0026313096
0.0031933633
0.0037483963
0.0042734776
0.0047447626
0.0051392151
0.0054365179
0.0056209661
0.005683097
0.005620825
0.0054398992
0.0051535818
0.0047815041
0.0043477074
0.0038784393
0.0034017655
0.002945339
0.0025091551
0.0020676339
0.0023780221
0.0015267374
0.00094274482
0.00050963988
0.000155127
-0.00012835319
-0.00034967033
-0.00051950777
-0.00064539415
-0.00073156802
-0.000779392
-0.00078763882
-0.00075294081
-0.00067041832
-0.00053443264
-0.00033943157
-8.0858627e-05
0.00024391378
0.00063468232
0.0010876106
0.0015946125
0.0021430453
0.002715694
0.0032912864
0.0038454203
0.0043519825
0.0047849793
0.0051206369
0.0053395587
0.0054286632
0.0053826332
0.0052046512
0.0049062786
0.004506403
0.004029212
0.0035018754
0.0029545121
0.0024176669
0.0018863193
0.0013238381
0.0024864322
0.0015162749
0.00086063162
0.00038224109
-5.9916138e-06
-0.00031614203
-0.00056104693
-0.00075488728
-0.00090757676
-0.0010247282
-0.0011082331
-0.0011566623
-0.001165819
-0.0011294673
-0.0010401847
-0.00089031343
-0.00067298758
-0.00038319909
-1.885282e-05
0.00041825769
0.00092164796
0.0014796774
0.0020753193
0.0026865762
0.0032873022
0.003848617
0.0043408294
0.0047357436
0.0050091307
0.0051430704
0.0051278427
0.0049630862
0.0046580191
0.0042305913
0.0037054646
0.003111582
0.0024824757
0.0018532917
0.0012154348
0.00052200412
0.0024228722
0.0013427679
0.00061981443
9.731366e-05
-0.0003256523
-0.0006654274
-0.00093850902
-0.0011622136
-0.0013484957
-0.0015040273
-0.0016309439
-0.0017273569
-0.0017880011
-0.0018050495
-0.0017690504
-0.00166997
-0.0014983243
-0.0012463743
-0.00090933593
-0.00048654601
1.7521622e-05
0.00059264223
0.0012222247
0.0018836782
0.0025490172
0.0031862144
0.0037611834
0.0042402868
0.0045931641
0.0047955713
0.0048318666
0.0046967797
0.00439617
0.0039465437
0.0033731287
0.002707325
0.0019873687
0.0012546985
0.00049827095
-0.00033879946
0.0021595709
0.00097958516
0.00019470115
-0.00036978448
-0.0008276606
-0.0011993621
-0.0015047973
-0.0017641012
-0.0019909615
-0.0021928252
-0.0023718118
-0.0025253346
-0.0026468326
-0.0027266565
-0.0027530696
-0.0027133612
-0.002595068
-0.002387285
-0.002082029
-0.001675606
-0.0011698756
-0.00057296154
9.9435937e-05
0.00082452827
0.0015726263
0.002308351
0.0029926082
0.0035852674
0.0040483735
0.004349577
0.0044653803
0.0043837473
0.0041056563
0.0036452144
0.0030279659
0.0022882525
0.0014702274
0.00062333426
-0.00026508929
-0.0012621786
0.0016713359
0.00040261305
-0.00043805416
-0.0010418201
-0.0015343302
-0.0019399592
-0.0022818127
-0.0025825669
-0.002857382
-0.0031142439
-0.0033550426
-0.0035762965
-0.0037699558
-0.0039243387
-0.004025173
-0.0040567556
-0.0040032375
-0.0038500339
-0.0035853316
-0.0032016292
-0.0026972274
-0.0020777482
-0.0013567118
-0.00055651594
0.00029185641
0.0011497292
0.0019725583
0.0027127057
0.003323026
0.0037609693
0.0039927671
0.0039971538
0.0037680435
0.0033155684
0.0026648408
0.0018533244
0.00093221214
-3.925615e-05
-0.0010747778
-0.0022525298
0.00093576959
-0.00040948115
-0.0012991802
-0.0019391772
-0.0024658365
-0.0029073178
-0.0032897285
-0.003638044
-0.0039686865
-0.0042900053
-0.0046035098
-0.0049046874
-0.0051838597
-0.005427145
-0.0056175129
-0.0057359563
-0.0057628114
-0.0056792378
-0.0054688525
-0.0051194622
-0.0046248342
-0.0039866169
-0.0032153052
-0.0023317648
-0.0013674252
-0.00036383449
0.00062886705
0.001554678
0.0023556274
0.0029765931
0.0033706025
0.0035039746
0.003360533
0.002944015
0.0022776441
0.0014017166
0.00037543684
-0.00073025041
-0.001929641
-0.003313166
-6.6303759e-05
-0.0014748521
-0.0024063397
-0.0030793081
-0.0036395477
-0.0041188233
-0.0045460569
-0.0049483134
-0.0053431214
-0.005739086
-0.0061372605
-0.0065320406
-0.0069120521
-0.0072611113
-0.0075592564
-0.0077838978
-0.0079111323
-0.0079172585
-0.0077805085
-0.0074829723
-0.0070126672
-0.0063657228
-0.0055481993
-0.004577903
-0.0034853898
-0.0023141576
-0.0011196337
3.3296077e-05
0.0010743264
0.0019332275
0.0025463953
0.0028637391
0.0028549312
0.0025137813
0.0018591681
0.00093321889
-0.00019616535
-0.00144431
-0.0028257222
-0.0044445879
-0.0013503006
-0.0028080161
-0.0037736524
-0.0044761838
-0.0050693654
-0.005588354
-0.0060647033
-0.0065273921
-0.0069949593
-0.0074762344
-0.0079718248
-0.0084750633
-0.0089729018
-0.0094468365
-0.0098738782
-0.010227638
-0.010479592
-0.010600588
-0.010562636
-0.010340991
-0.0099165062
-0.0092781933
-0.0084257402
-0.0073719449
-0.0061446174
-0.004787649
-0.0033608011
-0.0019377995
-0.0006024209
0.0005575146
0.0014579751
0.0020276469
0.0022167888
0.002004337
0.0014009981
0.00044866509
-0.00077590404
-0.0021722372
-0.0037546368
-0.0056426916
-0.0029273167
-0.0044193925
-0.0054112469
-0.0061397878
-0.0067651163
-0.0073255323
-0.0078550475
-0.0083844205
-0.0089331723
-0.0095104103
-0.0101164
-0.010743542
-0.011377237
-0.011996745
-0.012576053
-0.013084852
-0.0134897
-0.013755474
-0.013847163
-0.013732067
-0.013382394
-0.012778224
-0.01191069
-0.010785184
-0.0094242934
-0.0078700027
-0.0061846171
-0.0044498211
-0.0027633019
-0.0012325662
3.4032716e-05
0.00093844886
0.0014049818
0.0013910426
0.00089351985
-4.9538379e-05
-0.0013532627
-0.0028994551
-0.004701742
-0.006896766
-0.0048036136
-0.0063149156
-0.0073248996
-0.0080757103
-0.0087320458
-0.0093350717
-0.009921106
-0.01052261
-0.011160139
-0.011843229
-0.01257201
-0.013338186
-0.014125844
-0.014912202
-0.015668347
-0.016360047
-0.016948779
-0.017393046
-0.017650133
-0.017678345
-0.017439802
-0.016903768
-0.016050473
-0.014875143
-0.013392108
-0.011638353
-0.0096759449
-0.0075925335
-0.0054990691
-0.0035239975
-0.0018035382
-0.00046835129
0.00037215909
0.00064531068
0.00032622731
-0.00055666281
-0.0019125973
-0.0036042096
-0.0056439849
-0.0081871447
-0.0069802306
-0.0084957925
-0.009515834
-0.010284907
-0.010970477
-0.011616283
-0.012260843
-0.012938326
-0.013670477
-0.014467516
-0.015329762
-0.01624857
-0.017207057
-0.018180718
-0.019137984
-0.020040846
-0.020845679
-0.021504394
-0.021966063
-0.022179145
-0.022094382
-0.021668436
-0.020868242
-0.019675947
-0.018094138
-0.016150988
-0.013904491
-0.011444935
-0.0088944028
-0.0064021345
-0.0041347788
-0.0022612881
-0.00093336289
-0.00026428519
-0.00031137462
-0.0010644922
-0.0024314617
-0.0042553669
-0.0065473014
-0.0094823661
-0.0094528007
-0.010958481
-0.011980751
-0.012763695
-0.013475701
-0.014162807
-0.014865702
-0.015620389
-0.016450089
-0.0173661
-0.01836937
-0.019451367
-0.020594693
-0.021773544
-0.022954065
-0.02409475
-0.025147028
-0.026056189
-0.026762835
-0.027204988
-0.027321014
-0.027053435
-0.026353709
-0.025188027
-0.023543554
-0.021435305
-0.018912417
-0.01606307
-0.013016554
-0.0099407877
-0.007033649
-0.0045070028
-0.0025635817
-0.0013694012
-0.0010278772
-0.0015594837
-0.0028783805
-0.004809661
-0.0073634203
-0.01073569
-0.012211641
-0.01369496
-0.014712157
-0.015504045
-0.016238165
-0.01696263
-0.017720416
-0.01854966
-0.019475531
-0.020510954
-0.021658085
-0.022909078
-0.024246572
-0.025643976
-0.027065615
-0.028466887
-0.029794582
-0.030987554
-0.031977932
-0.032693049
-0.033058282
-0.033000881
-0.032455008
-0.031368578
-0.02970958
-0.027475364
-0.024700761
-0.021465838
-0.017901248
-0.014189048
-0.010556559
-0.0072610356
-0.0045640088
-0.0026972005
-0.0018266082
-0.0020199284
-0.0032098558
-0.0052082265
-0.008025925
-0.01188082
-0.015242179
-0.016693362
-0.017699071
-0.018494238
-0.019243998
-0.019998438
-0.020803148
-0.021698976
-0.022713752
-0.023862786
-0.025150174
-0.026569437
-0.028103872
-0.029726668
-0.031400853
-0.033079199
-0.034704282
-0.036208877
-0.037516888
-0.038545051
-0.039205571
-0.039409841
-0.039073466
-0.038124673
-0.036508688
-0.034201031
-0.031216614
-0.027620518
-0.023537201
-0.019155711
-0.014727777
-0.0105552
-0.0069636326
-0.0042629462
-0.0027002917
-0.0024117354
-0.0033663529
-0.0053722336
-0.0084454133
-0.012826691
-0.01852578
-0.019939041
-0.020928149
-0.021719935
-0.022475925
-0.023248307
-0.024085971
-0.025033439
-0.026122259
-0.027371148
-0.028787047
-0.030365621
-0.032091487
-0.033938189
-0.035867964
-0.037831442
-0.03976745
-0.041603138
-0.043254641
-0.04462848
-0.045623953
-0.046136814
-0.046064441
-0.04531108
-0.043800146
-0.041481105
-0.038343554
-0.034430504
-0.029851513
-0.02479314
-0.01952294
-0.014382109
-0.0097616475
-0.0060595566
-0.0036232608
-0.0026824381
-0.0032669874
-0.0051974242
-0.0085035947
-0.013451193
-0.022041018
-0.023416147
-0.024385342
-0.025165703
-0.025914563
-0.026686738
-0.027535655
-0.028511036
-0.029649679
-0.030975051
-0.032498042
-0.034217322
-0.036119484
-0.038178934
-0.040357542
-0.042604183
-0.044854346
-0.047030023
-0.04904011
-0.050781517
-0.052141257
-0.052999799
-0.053235878
-0.052732632
-0.051387676
-0.049122709
-0.04589805
-0.041728221
-0.036698964
-0.030983329
-0.024852915
-0.018678369
-0.012911684
-0.0080442232
-0.0045409675
-0.0027530821
-0.0028026373
-0.0045473448
-0.008046156
-0.013593701
-0.025765493
-0.027109849
-0.028058142
-0.028817043
-0.029540093
-0.030285961
-0.031114681
-0.032083511
-0.03323664
-0.034604039
-0.036201857
-0.038032671
-0.040085633
-0.042336371
-0.044746622
-0.047263707
-0.049820014
-0.052332722
-0.054703973
-0.05682173
-0.058561552
-0.059789574
-0.060366901
-0.060155703
-0.059028698
-0.056878641
-0.05363402
-0.04927594
-0.043858355
-0.037529521
-0.030551159
-0.023308995
-0.016305235
-0.010122897
-0.0053569221
-0.0025078128
-0.0018272389
-0.0032450586
-0.0068741952
-0.013046297
-0.029678322
-0.031009369
-0.031938582
-0.032662955
-0.033334265
-0.034017406
-0.03478235
-0.035697331
-0.036816861
-0.038179622
-0.03980851
-0.041710889
-0.04387888
-0.046289437
-0.048904105
-0.051668534
-0.054511964
-0.057346846
-0.060068872
-0.062557601
-0.064677968
-0.06628288
-0.067217191
-0.067323385
-0.066450317
-0.06446266
-0.061256314
-0.056776154
-0.051038405
-0.044156538
-0.036368072
-0.028056381
-0.019756957
-0.01213435
-0.0059178151
-0.0017812669
-0.00014710214
-0.0010630989
-0.0047339595
-0.011543469
-0.033763559
-0.035112165
-0.036027204
-0.036699141
-0.037282672
-0.037853205
-0.038495805
-0.039294596
-0.040318279
-0.041616908
-0.043221704
-0.045145528
-0.047383572
-0.049913829
-0.052697157
-0.055677008
-0.058779013
-0.061910622
-0.064961048
-0.067801722
-0.070287586
-0.072259337
-0.073547054
-0.073975491
-0.073370423
-0.071571267
-0.068442183
-0.063891335
-0.057894098
-0.050521891
-0.041975378
-0.032617378
-0.022995238
-0.013836429
-0.0059983559
-0.00034432613
0.0024917896
0.0022886226
-0.0013044542
-0.0087499387
-0.038015067
-0.039429812
-0.040338389
-0.04093192
-0.041377212
-0.041767517
-0.042210751
-0.042813689
-0.043664083
-0.044826345
-0.04634147
-0.048228144
-0.050484206
-0.053087827
-0.055998136
-0.059155322
-0.06248046
-0.065875268
-0.069222033
-0.072383939
-0.075206219
-0.077518072
-0.079135863
-0.079867853
-0.079520557
-0.077908834
-0.074867865
-0.070270877
-0.064052264
-0.056237791
-0.046982155
-0.036611378
-0.025661609
-0.014897879
-0.0052882105
0.0021106512
0.0064183049
0.0071773503
0.003817834
-0.0042458072
-0.042443851
-0.043996622
-0.044907661
-0.045383098
-0.04561863
-0.045737479
-0.045881677
-0.046189533
-0.046773564
-0.047715499
-0.049067041
-0.050852278
-0.053070463
-0.055698323
-0.058691515
-0.061985282
-0.065494664
-0.069114412
-0.07271901
-0.076162812
-0.079281189
-0.081892085
-0.083798874
-0.084794612
-0.084668034
-0.083212223
-0.080236195
-0.075581244
-0.069143098
-0.060901969
-0.050962108
-0.039600856
-0.027321989
-0.0148994
-0.0033842815
0.0059831922
0.012052104
0.014065087
0.011138488
0.0024926676
-0.047089843
-0.048882775
-0.049802034
-0.050096052
-0.050019048
-0.049743559
-0.049461403
-0.049353391
-0.049562807
-0.050190934
-0.051299952
-0.052917672
-0.05504237
-0.057646702
-0.060680313
-0.064071156
-0.067726195
-0.071531501
-0.075352771
-0.079033995
-0.082400401
-0.085258372
-0.08739839
-0.088598914
-0.088632085
-0.087270883
-0.084300858
-0.07953469
-0.072833049
-0.064133453
-0.053489663
-0.041124047
-0.027491712
-0.013347614
0.00020758886
0.011773692
0.019920063
0.023530246
0.021291533
0.012120353
-0.052042044
-0.054215113
-0.055134985
-0.055143459
-0.054604322
-0.053769075
-0.052899863
-0.052232259
-0.051945366
-0.052160324
-0.05294744
-0.054334668
-0.056315345
-0.058854202
-0.061891646
-0.065345044
-0.06911093
-0.073064464
-0.077062503
-0.080934737
-0.084496863
-0.087542817
-0.089849665
-0.091181116
-0.091293719
-0.089940025
-0.086884113
-0.081912723
-0.074854807
-0.06560901
-0.054181378
-0.040737968
-0.025675077
-0.0097053555
0.0060563905
0.020083329
0.030671094
0.036294648
0.035077081
0.025466282
-0.057474796
-0.06021104
-0.061088421
-0.06063695
-0.059415828
-0.057798521
-0.056141994
-0.054747923
-0.053833035
-0.053534849
-0.053926077
-0.055028573
-0.056824816
-0.059266329
-0.062280945
-0.065770451
-0.069619343
-0.073689934
-0.077824479
-0.081843599
-0.08554841
-0.088719896
-0.091121225
-0.092500828
-0.092597267
-0.091145365
-0.087886715
-0.082582523
-0.075031878
-0.065097207
-0.052739627
-0.038069807
-0.021419671
-0.0034416411
0.014768948
0.031597816
0.045085058
0.053256902
0.053517163
0.043607744
-0.063715788
-0.067234767
-0.067944534
-0.066738345
-0.064510513
-0.06181376
-0.059124163
-0.056815326
-0.055136402
-0.054231487
-0.054165094
-0.054943377
-0.056529981
-0.058857063
-0.061832548
-0.0653427
-0.069254748
-0.073416216
-0.077654926
-0.081778399
-0.085573747
-0.088807966
-0.091229355
-0.092570107
-0.09255056
-0.090885452
-0.087293044
-0.081507977
-0.073298321
-0.062489489
-0.048997404
-0.032875862
-0.014386598
0.0058946153
0.026924226
0.047044712
0.064067506
0.07553122
0.077939354
0.068005044
-0.071378204
-0.075891109
-0.076130137
-0.073670179
-0.069956299
-0.065785697
-0.061767308
-0.05833868
-0.05576366
-0.054173622
-0.053607856
-0.054043435
-0.055414249
-0.057625919
-0.060562005
-0.064087901
-0.068051972
-0.072285122
-0.076599895
-0.080789341
-0.084626329
-0.087863334
-0.090233215
-0.091451232
-0.091218679
-0.089228501
-0.085173431
-0.078758655
-0.069716988
-0.057831431
-0.042965764
-0.025108629
-0.0044398497
0.018569343
0.042964075
0.067104352
0.088610232
0.10448281
0.11010434
0.10076003
-0.081629143
-0.087179534
-0.086268221
-0.081714487
-0.075813075
-0.069653509
-0.063960149
-0.059199571
-0.055612656
-0.053285706
-0.052208119
-0.052309269
-0.053482133
-0.055596959
-0.058508107
-0.062056684
-0.066070598
-0.070363186
-0.074731355
-0.078953698
-0.08278905
-0.085975621
-0.088231067
-0.08925377
-0.088725702
-0.086316979
-0.08169242
-0.07452404
-0.064502768
-0.05135914
-0.034890281
-0.014998776
0.0082474908
0.034514062
0.063012208
0.092224807
0.11965893
0.14172165
0.15240361
0.14512366
-0.096757885
-0.10273633
-0.099196275
-0.091153846
-0.082061418
-0.073260685
-0.065507284
-0.059216602
-0.05453979
-0.051468862
-0.049909392
-0.049721818
-0.05074421
-0.052803898
-0.055721926
-0.059313286
-0.063385001
-0.067733203
-0.072140033
-0.076370783
-0.080171583
-0.083267794
-0.08536329
-0.086140891
-0.085264328
-0.082381116
-0.077127222
-0.069138138
-0.058055811
-0.043545471
-0.025316391
-0.0031522971
0.023039751
0.053140031
0.08663206
0.12228177
0.15777974
0.18895069
0.20809696
0.20632666
-0.12133786
-0.12518559
-0.11587154
-0.10207994
-0.088416398
-0.076197702
-0.066005411
-0.058052009
-0.052291084
-0.048549855
-0.046607722
-0.046231962
-0.047193276
-0.0492707
-0.052250533
-0.055922394
-0.060074257
-0.064487401
-0.068931788
-0.073162097
-0.076914535
-0.079904473
-0.081824944
-0.082346158
-0.0811166
-0.07776288
-0.071894907
-0.06310998
-0.050996402
-0.035142548
-0.015146626
0.0093679456
0.038724092
0.073128182
0.11251821
0.15626104
0.20262941
0.24752179
0.28129968
0.29235519
-0.16445569
-0.15843146
-0.13714715
-0.11415654
-0.094106751
-0.077630984
-0.064737904
-0.055161933
-0.048490028
-0.044291518
-0.042172533
-0.04178671
-0.042831287
-0.045038035
-0.048162642
-0.051974526
-0.056247886
-0.06075416
-0.065255803
-0.069501286
-0.073221172
-0.076125132
-0.077899848
-0.078207986
-0.076688449
-0.072946266
-0.066576765
-0.057140278
-0.044172574
-0.027181114
-0.0056372727
0.021033668
0.053462691
0.092329986
0.13829453
0.19182514
0.2526663
0.31750979
0.37626701
0.41536914
-0.24629281
-0.20631684
-0.16212933
-0.1255283
-0.09714345
-0.075878307
-0.06048793
-0.049752831
-0.042660702
-0.038436489
-0.036490324
-0.036364969
-0.037696471
-0.040183782
-0.043565395
-0.04760193
-0.052063246
-0.056718748
-0.061330005
-0.065645073
-0.069394135
-0.072286213
-0.074006834
-0.074217403
-0.072556489
-0.068604056
-0.061960728
-0.052155491
-0.038683075
-0.020981809
0.0015950731
0.029824236
0.064685099
0.10746341
0.15986952
0.22417624
0.3029039
0.39553067
0.49624194
0.6032108
-0.42543765
-0.26572896
-0.17722038
-0.12463536
-0.08911639
-0.06510288
-0.049324344
-0.039185942
-0.032984311
-0.029674537
-0.028570889
-0.029186545
-0.031156157
-0.034188739
-0.038035962
-0.042471225
-0.047275671
-0.052228388
-0.057099232
-0.06164343
-0.065597479
-0.068675974
-0.070568879
-0.070938092
-0.069405819
-0.065628147
-0.059131238
-0.049452262
-0.036074747
-0.018403712
0.0042708895
0.032846431
0.068541569
0.11314078
0.16943523
0.24201571
0.33806458
0.46591434
0.64305316
0.92086073
-0.7933115
-0.32444069
-0.14899614
-0.087724473
-0.055345313
-0.035999413
-0.025091751
-0.019201371
-0.016355919
-0.015619363
-0.016494332
-0.018653766
-0.021852424
-0.025887286
-0.030573789
-0.0357317
-0.04117649
-0.04671339
-0.052132847
-0.057206891
-0.061686184
-0.065297662
-0.067742858
-0.068698187
-0.067822175
-0.064706075
-0.058940427
-0.050071653
-0.037593158
-0.020927466
0.00060988961
0.027880154
0.062057504
0.10491185
0.15944964
0.23152622
0.33384964
0.4940904
0.79001456
1.3837765
1.1677802e-05
-0.00013117434
-0.0004433139
-0.00084579266
-0.0012641049
-0.0016528145
-0.0019810685
-0.0022300459
-0.0023891186
-0.0024525899
-0.0024175275
-0.002282476
-0.0020468594
-0.0017109156
-0.0012759994
-0.00074511807
-0.00012358231
0.00058033794
0.0013548575
0.0021843143
0.0030490769
0.0039257877
0.0047879705
0.0056070411
0.006353678
0.0069995009
0.0075189516
0.0078912347
0.0081021517
0.0081456558
0.008024973
0.0077531929
0.0073533074
0.0068577653
0.0063074434
0.0057498829
0.0052400867
0.0048343082
0.0045942715
0.0045557385
0.00015359932
8.3483148e-06
-0.00024175561
-0.00055054427
-0.00087262601
-0.0011736971
-0.0014295292
-0.0016239537
-0.0017466165
-0.0017910812
-0.0017534112
-0.0016312405
-0.0014233081
-0.0011293762
-0.00075043281
-0.00028908264
0.00024996413
0.00085939312
0.001528864
0.0022447381
0.0029900136
0.0037446665
0.0044860048
0.005189692
0.0058308927
0.0063857179
0.0068328422
0.0071551613
0.007341341
0.0073871052
0.0072961232
0.0070804028
0.006760148
0.0063631136
0.0059235099
0.0054803425
0.0050747706
0.0047501058
0.0045515102
0.0045163385
0.00047183682
0.00025377224
-1.9700127e-06
-0.00028100528
-0.00056124961
-0.00081815183
-0.0010339413
-0.0011965712
-0.0012978399
-0.0013322351
-0.0012960449
-0.0011867354
-0.0010026587
-0.00074305322
-0.00040826336
-1.0729808e-07
0.00047767483
0.0010189621
0.0016148579
0.0022534276
0.0029196666
0.0035956223
0.0042609389
0.0048936282
0.0054711611
0.0059718147
0.0063761809
0.0066687171
0.0068391906
0.0068838625
0.0068062686
0.0066174944
0.0063358972
0.0059862914
0.0055986658
0.0052064634
0.0048442801
0.0045463256
0.0043488953
0.0042817785
0.00089341625
0.00056177674
0.00026132361
-2.4424407e-05
-0.00029504992
-0.00053417201
-0.00073025608
-0.0008761029
-0.00096664229
-0.0009981854
-0.00096792512
-0.00087357319
-0.00071325058
-0.00048561333
-0.00019015218
0.00017238924
0.0005995279
0.0010865494
0.0016260738
0.0022077513
0.0028181537
0.0034408367
0.0040568407
0.0046453798
0.0051848969
0.0056543822
0.00603487
0.0063109933
0.0064724397
0.0065151386
0.0064420203
0.006263234
0.0059957733
0.0056625168
0.0052907515
0.0049103525
0.0045519773
0.0042455708
0.0040176449
0.003882099
0.0013442121
0.00088391836
0.00052118431
0.00021096836
-6.675289e-05
-0.00030276096
-0.00049142675
-0.00063050831
-0.00071834574
-0.000753377
-0.00073394453
-0.0006581454
-0.00052389059
-0.00032916586
-7.2437823e-05
0.0002468393
0.00062765973
0.0010668971
0.0015587907
0.0020945526
0.00266216
0.0032463866
0.0038291598
0.00439024
0.004908247
0.0053619848
0.0057319799
0.0060021062
0.0061611247
0.0062039459
0.0061324352
0.0059556318
0.0056893203
0.0053549553
0.0049779962
0.0045859584
0.0042070849
0.0038686087
0.0035860778
0.0033622577
0.0017710857
0.0011770716
0.0007429911
0.00039708252
0.00010049865
-0.00014373447
-0.00033537085
-0.00047688734
-0.00056996726
-0.00061518797
-0.00061206514
-0.00055907261
-0.00045384967
-0.0002935945
-7.5588018e-05
0.00020219131
0.00054039901
0.00093764963
0.0013898925
0.0018899029
0.0024269598
0.0029867896
0.0035518201
0.0041018232
0.0046149218
0.0050689438
0.005443041
0.0057194359
0.0058851096
0.0059332107
0.0058639831
0.0056850565
0.0054110276
0.0050623156
0.0046633361
0.0042404169
0.0038209467
0.0034315201
0.0030791935
0.0027515269
0.0021288154
0.001402704
0.00089384782
0.00050578778
0.00018247929
-7.8441912e-05
-0.00028156757
-0.00043370646
-0.00053963111
-0.00060188757
-0.00062103224
-0.00059579098
-0.00052339588
-0.00040010236
-0.00022183106
1.510163e-05
0.00031319668
0.00067297255
0.0010922088
0.0015652999
0.0020827971
0.0026312375
0.003193283
0.0037483093
0.0042733866
0.0047446711
0.0051391269
0.0054364344
0.0056208841
0.0056830109
0.0056207314
0.0054398006
0.0051534819
0.0047814022
0.0043476031
0.0038783304
0.0034016094
0.0029452194
0.0025093179
0.0020672483
0.0023788385
0.0015260677
0.00094286333
0.00050988591
0.0001552456
-0.0001282517
-0.00034956293
-0.00051940537
-0.00064529864
-0.00073148035
-0.00077931448
-0.00078757288
-0.00075288689
-0.00067037674
-0.00053440421
-0.00033941739
-8.085969e-05
0.00024389699
0.00063465007
0.001087564
0.0015945533
0.0021429747
0.0027156135
0.0032911976
0.0038453256
0.0043518859
0.0047848855
0.0051205492
0.005339475
0.0054285765
0.0053825372
0.0052045468
0.0049061728
0.0045063012
0.0040291162
0.0035017685
0.0029543363
0.002417547
0.0018865837
0.0013233628
0.0024873524
0.0015154743
0.00086073799
0.00038249723
-5.8782662e-06
-0.00031604347
-0.00056093638
-0.00075477849
-0.00090747358
-0.0010246326
-0.0011081475
-0.0011565877
-0.0011657557
-0.0011294158
-0.0010401463
-0.00089029001
-0.0006729801
-0.00038320778
-1.8877487e-05
0.00041821748
0.0009215931
0.0014796083
0.0020752379
0.0026864847
0.0032872033
0.0038485138
0.0043407264
0.0047356453
0.0050090386
0.0051429806
0.0051277481
0.0049629823
0.004657908
0.0042304813
0.0037053664
0.0031114716
0.0024822778
0.0018531675
0.0012158022
0.0005214357
0.0024238887
0.0013418476
0.00061991215
9.7582792e-05
-0.00032553945
-0.00066532724
-0.00093839211
-0.0011620967
-0.001348384
-0.0015039228
-0.001630849
-0.0017272724
-0.0017879273
-0.0018049876
-0.0017690023
-0.0016699372
-0.0014983078
-0.0012463739
-0.00090935153
-0.00048657766
1.7474307e-05
0.00059257757
0.0012221448
0.0018835858
0.0025489156
0.0031861069
0.0037610738
0.0042401785
0.00459306
0.0047954718
0.0048317685
0.0046966776
0.0043960599
0.0039464303
0.0033730268
0.0027072118
0.0019871519
0.0012545731
0.00049875008
-0.0003394659
0.0021606759
0.00097855942
0.00019479602
-0.00036949807
-0.00082754283
-0.0011992558
-0.0015046711
-0.0017639741
-0.0019908393
-0.0021927099
-0.0023717052
-0.0025252379
-0.0026467469
-0.0027265832
-0.0027530104
-0.0027133177
-0.0025950408
-0.0023872737
-0.0020820339
-0.0016756272
-0.0011699123
-0.0005730184
9.9361331e-05
0.00082443809
0.0015725228
0.0023082378
0.0029924895
0.0035851478
0.0040482567
0.0043494659
0.0044652752
0.0043836448
0.0041055498
0.0036451045
0.003027867
0.0022881411
0.0014699928
0.00062320981
-0.00026448709
-0.0012629557
0.0016725224
0.00040149858
-0.00043795634
-0.0010415134
-0.0015342037
-0.0019398438
-0.0022816751
-0.0025824281
-0.0028572479
-0.0031141161
-0.0033549229
-0.0035761865
-0.0037698569
-0.0039242524
-0.0040251009
-0.0040566989
-0.0040031968
-0.0038500094
-0.0035853238
-0.0032016399
-0.0026972587
-0.0020777972
-0.0013567782
-0.00055659906
0.00029175709
0.001149615
0.0019724329
0.0027125752
0.0033228964
0.0037608454
0.0039926517
0.003997046
0.0037679369
0.0033154611
0.0026647467
0.0018532156
0.00093195607
-3.9381956e-05
-0.001074039
-0.0022534355
0.00093703056
-0.00041066692
-0.0012990755
-0.0019388495
-0.0024656994
-0.0029071919
-0.0032895788
-0.0036378929
-0.0039685401
-0.0042898646
-0.0046033768
-0.0049045637
-0.0051837468
-0.0054270446
-0.0056174262
-0.0057358845
-0.0057627552
-0.0056791977
-0.0054688297
-0.0051194595
-0.0046248549
-0.0039866569
-0.0032153633
-0.0023318392
-0.0013675157
-0.00036394258
0.00062874198
0.0015545412
0.002355487
0.0029764566
0.0033704747
0.0035038562
0.0033604194
0.0029439044
0.0022775515
0.0014016079
0.00037515275
-0.00073038108
-0.001928747
-0.0033142217
-6.4977257e-05
-0.0014760931
-0.0024062265
-0.0030789607
-0.0036393996
-0.0041186868
-0.0045458954
-0.0049481505
-0.0053429631
-0.0057389327
-0.0061371141
-0.0065319027
-0.0069119245
-0.0072609956
-0.0075591542
-0.0077838102
-0.0079110602
-0.0079172024
-0.0077804699
-0.0074829544
-0.0070126736
-0.0063657526
-0.0055482496
-0.0045779696
-0.0034854709
-0.0023142555
-0.0011197513
3.3160725e-05
0.0010741812
0.0019330826
0.0025462578
0.0028636108
0.0028548091
0.0025136651
0.0018590764
0.0009331102
-0.00019648216
-0.001444447
-0.0028246485
-0.0044458187
-0.0013489212
-0.0028092976
-0.0037735311
-0.0044758193
-0.0050692068
-0.0055882071
-0.0060645308
-0.0065272182
-0.0069947898
-0.0074760692
-0.007971665
-0.0084749109
-0.0089727591
-0.0094467053
-0.0098737603
-0.010227535
-0.010479504
-0.010600517
-0.010562582
-0.010340957
-0.009916498
-0.0092782116
-0.0084257823
-0.0073720052
-0.006144692
-0.0047877386
-0.0033609095
-0.0019379279
-0.00060256388
0.0005573677
0.0014578336
0.0020275141
0.0022166628
0.0020042194
0.0014009119
0.00044856012
-0.00077625645
-0.0021723805
-0.0037533537
-0.0056441269
-0.0029258999
-0.0044207002
-0.005411118
-0.0061394093
-0.0067649478
-0.0073253755
-0.0078548644
-0.0083842361
-0.0089329919