/*--------------------------------*- C++ -*----------------------------------*\
  =========                 |
  \\      /  F ield         | OpenFOAM: The Open Source CFD Toolbox
   \\    /   O peration     | Website:  https://openfoam.org
    \\  /    A nd           | Version:  7
     \\/     M anipulation  |
\*---------------------------------------------------------------------------*/
FoamFile
{
    version     2.0;
    format      ascii;
    class       surfaceScalarField;
    location    "18";
    object      phi;
}
// * * * * * * * * * * * * * * * * * * * * * * * * * * * * * * * * * * * * * //

dimensions      [0 3 -1 0 0 0 0];

internalField   nonuniform List<scalar> 
45600
(
2.7509311e-07
-2.8222229e-07
-7.813791e-11
4.0322593e-07
-1.2810987e-07
-2.3652945e-11
1.3245097e-07
2.707756e-07
-6.3693723e-12
-5.6236701e-07
6.9481347e-07
-1.4180159e-12
-1.6392652e-06
1.0768931e-06
3.891722e-12
-3.0274289e-06
1.3881576e-06
7.5069163e-12
-4.6520925e-06
1.6246545e-06
9.7369303e-12
-6.4445234e-06
1.7924179e-06
1.1200165e-11
-8.3446309e-06
1.9000941e-06
1.2225007e-11
-1.0300421e-05
1.9557762e-06
1.2955002e-11
-1.2266147e-05
1.9657128e-06
1.3418524e-11
-1.4200095e-05
1.9339358e-06
1.3560253e-11
-1.6062532e-05
1.862422e-06
1.3358434e-11
-1.7814114e-05
1.7515666e-06
1.2858644e-11
-1.9414955e-05
1.6008252e-06
1.2085853e-11
-2.0824399e-05
1.4094291e-06
1.1013162e-11
-2.2001519e-05
1.1771069e-06
9.6141857e-12
-2.2906288e-05
9.0475895e-07
7.8943661e-12
-2.3501336e-05
5.950415e-07
5.8952439e-12
-2.3754164e-05
2.5282641e-07
3.6523134e-12
-2.3639648e-05
-1.1451323e-07
1.2006028e-12
-2.3142615e-05
-4.9702821e-07
-1.4066599e-12
-2.2260331e-05
-8.8227798e-07
-4.1007697e-12
-2.100457e-05
-1.2557538e-06
-6.7914258e-12
-1.940305e-05
-1.6015115e-06
-9.3577845e-12
-1.7500007e-05
-1.9030342e-06
-1.1654804e-11
-1.5355704e-05
-2.1442922e-06
-1.3536378e-11
-1.3044778e-05
-2.3109127e-06
-1.4881417e-11
-1.0653404e-05
-2.3913599e-06
-1.5595641e-11
-8.2753813e-06
-2.3780076e-06
-1.5596113e-11
-6.007365e-06
-2.2680011e-06
-1.4812423e-11
-3.9435217e-06
-2.0638272e-06
-1.3213388e-11
-2.1699171e-06
-1.7735889e-06
-1.0843809e-11
-7.5875863e-07
-1.4111488e-06
-7.8475128e-12
2.3795712e-07
-9.9671944e-07
-4.587001e-12
7.963012e-07
-5.5835919e-07
-1.7405451e-12
9.2906912e-07
-1.3277456e-07
1.5277559e-12
7.0543078e-07
2.2367376e-07
6.1382183e-12
2.9038747e-07
4.1512972e-07
1.1749606e-11
2.9047025e-07
6.5067435e-12
1.3282184e-07
-4.150239e-07
-2.1017986e-11
-3.0175984e-07
3.0647248e-07
-1.3629829e-11
-1.6153781e-06
1.5843958e-06
-1.2285504e-11
-3.8744612e-06
2.9539067e-06
-1.2923224e-11
-7.006753e-06
4.209199e-06
-1.3862944e-11
-1.0878719e-05
5.2601375e-06
-1.536754e-11
-1.5333608e-05
6.0795577e-06
-1.692419e-11
-2.0213862e-05
6.672686e-06
-1.8110658e-11
-2.5371296e-05
7.0575436e-06
-1.8768039e-11
-3.0669862e-05
7.2543596e-06
-1.8892703e-11
-3.5984479e-05
7.2803467e-06
-1.8570096e-11
-4.1198131e-05
7.1476022e-06
-1.7898634e-11
-4.619867e-05
6.8629724e-06
-1.6900752e-11
-5.0876242e-05
6.4291465e-06
-1.5536104e-11
-5.5121879e-05
5.8464699e-06
-1.3786225e-11
-5.8827549e-05
5.1151059e-06
-1.167193e-11
-6.1887708e-05
4.2372735e-06
-9.2116701e-12
-6.4202294e-05
3.2193541e-06
-6.4206924e-12
-6.5680942e-05
2.0736976e-06
-3.3107607e-12
-6.6248076e-05
8.1996759e-07
4.5913189e-14
-6.5848748e-05
-5.1383892e-07
3.5603984e-12
-6.4453863e-05
-1.8919168e-06
7.1766675e-12
-6.2065949e-05
-3.2702029e-06
1.0728026e-11
-5.8723091e-05
-4.5986274e-06
1.4072046e-11
-5.4501707e-05
-5.822917e-06
1.7084389e-11
-4.9517238e-05
-6.8875266e-06
1.964928e-11
-4.3922477e-05
-7.7390767e-06
2.1647832e-11
-3.7903293e-05
-8.3301197e-06
2.2959718e-11
-3.1671733e-05
-8.6229416e-06
2.3494612e-11
-2.5456692e-05
-8.5930697e-06
2.3218878e-11
-1.9492534e-05
-8.2321818e-06
2.2154857e-11
-1.4006178e-05
-7.5502068e-06
2.0380073e-11
-9.2031692e-06
-6.5766178e-06
1.8035042e-11
-5.2530758e-06
-5.3612507e-06
1.5288989e-11
-2.274312e-06
-3.9754775e-06
1.2226559e-11
-3.1763115e-07
-2.5150422e-06
8.5870414e-12
6.5676001e-07
-1.1072287e-06
3.8276697e-12
8.0346073e-07
7.6811785e-08
9.2754695e-13
4.176805e-07
8.0070253e-07
2.1589976e-12
7.0820889e-07
-1.5081368e-12
-2.7359502e-07
-1.4142248e-07
-1.2047423e-11
-1.6273927e-06
1.6602698e-06
-7.1331195e-12
-4.2890437e-06
4.2460535e-06
-8.3901425e-12
-8.2738685e-06
6.9387395e-06
-6.7837329e-12
-1.3472995e-05
9.4083308e-06
-4.7184268e-12
-1.9706542e-05
1.1493688e-05
-3.7197827e-12
-2.6762703e-05
1.313572e-05
-3.1785247e-12
-3.4422617e-05
1.4332602e-05
-2.7202376e-12
-4.2473626e-05
1.5108556e-05
-2.2627192e-12
-5.0714416e-05
1.5495153e-05
-1.7888054e-12
-5.8955234e-05
1.5521169e-05
-1.3440847e-12
-6.7015636e-05
1.5208005e-05
-9.7204874e-13
-7.4721541e-05
1.4568876e-05
-6.4218933e-13
-8.1902875e-05
1.3610477e-05
-2.8779393e-13
-8.8392555e-05
1.2336146e-05
1.0635841e-13
-9.4027263e-05
1.0749812e-05
5.1980727e-13
-9.8650112e-05
8.8601221e-06
8.6036778e-13
-0.00010211511
6.6843524e-06
1.2039872e-12
-0.00010429312
4.2517127e-06
1.5398039e-12
-0.00010507897
1.6058234e-06
1.8515754e-12
-0.00010439889
-1.1939255e-06
2.1204359e-12
-0.00010221817
-4.0726311e-06
2.3275645e-12
-9.8547891e-05
-6.9404869e-06
2.4698843e-12
-9.3450197e-05
-9.6963256e-06
2.5583239e-12
-8.704155e-05
-1.223157e-05
2.6054955e-12
-7.9493224e-05
-1.4435858e-05
2.6088745e-12
-7.1028644e-05
-1.6203661e-05
2.5590034e-12
-6.1917248e-05
-1.7441519e-05
2.4666508e-12
-5.2464811e-05
-1.8075379e-05
2.3815325e-12
-4.3000424e-05
-1.8057456e-05
2.3615762e-12
-3.3860549e-05
-1.7372053e-05
2.4062075e-12
-2.5370804e-05
-1.6039953e-05
2.4459241e-12
-1.7826152e-05
-1.4121281e-05
2.4584716e-12
-1.1470195e-05
-1.171723e-05
2.616236e-12
-6.473994e-06
-8.9716858e-06
3.2518155e-12
-2.9143302e-06
-6.0746618e-06
4.2257821e-12
-7.5150398e-07
-3.2699618e-06
4.5248915e-12
1.9418231e-07
-8.688127e-07
3.8741304e-12
2.6536685e-07
7.294224e-07
3.9169949e-12
9.7359995e-07
8.2420212e-13
-7.4578841e-07
6.0437155e-07
-1.2614886e-11
-3.1793193e-06
4.0938006e-06
-1.048368e-12
-7.345302e-06
8.4120442e-06
-6.3384998e-12
-1.3161545e-05
1.2754989e-05
-5.6306665e-12
-2.0453396e-05
1.6700185e-05
-3.0711909e-12
-2.8989132e-05
2.0029425e-05
-1.8825028e-12
-3.850916e-05
2.2655748e-05
-1.1227648e-12
-4.8746652e-05
2.4570095e-05
-3.7693018e-13
-5.9439593e-05
2.58015e-05
2.9249075e-13
-7.0336061e-05
2.6391626e-05
8.5116329e-13
-8.1194991e-05
2.6380102e-05
1.2772254e-12
-9.1784534e-05
2.5797548e-05
1.577967e-12
-0.00010187974
2.4664081e-05
1.8108598e-12
-0.00011126085
2.2991587e-05
2.0307862e-12
-0.00011971305
2.0788339e-05
2.2299786e-12
-0.00012702809
1.8064857e-05
2.3448148e-12
-0.00013300807
1.4840093e-05
2.3779809e-12
-0.00013747097
1.1147255e-05
2.3458176e-12
-0.00014025795
7.0386967e-06
2.2501189e-12
-0.00014124162
2.589498e-06
2.0725773e-12
-0.00014033473
-2.1008172e-06
1.8124107e-12
-0.00013749897
-6.9083868e-06
1.4595471e-12
-0.00013275248
-1.1686985e-05
1.0580312e-12
-0.00012617583
-1.6272972e-05
6.4772071e-13
-0.00011791566
-2.0491748e-05
2.4560631e-13
-0.00010818506
-2.4166456e-05
-1.4802658e-13
-9.7260483e-05
-2.7128234e-05
-5.2880202e-13
-8.5474522e-05
-2.9227478e-05
-8.5888593e-13
-7.3204542e-05
-3.0345357e-05
-1.051773e-12
-6.0857276e-05
-3.040472e-05
-1.0033019e-12
-4.8849762e-05
-2.9379562e-05
-6.777992e-13
-3.7587357e-05
-2.7302352e-05
-1.8974511e-13
-2.7439723e-05
-2.4268914e-05
2.3975926e-13
-1.8715849e-05
-2.0441121e-05
5.1818355e-13
-1.1639156e-05
-1.6048423e-05
8.4853253e-13
-6.3236093e-06
-1.1390257e-05
1.8319729e-12
-2.7517036e-06
-6.8418649e-06
3.5626555e-12
-7.5725996e-07
-2.8631877e-06
4.864628e-12
-9.5952874e-09
-1.8263976e-08
4.1060247e-12
9.6400652e-07
3.488519e-12
-1.2278305e-06
1.8322149e-06
-1.3947109e-11
-4.7875357e-06
7.6535038e-06
5.1611479e-12
-1.0520239e-05
1.4144754e-05
-5.3680904e-12
-1.8212033e-05
2.0446789e-05
-6.5455853e-12
-2.7600409e-05
2.6088564e-05
-4.2904281e-12
-3.8391354e-05
3.0820373e-05
-3.6861712e-12
-5.0276555e-05
3.4540955e-05
-3.3956257e-12
-6.2946632e-05
3.7240178e-05
-2.9282014e-12
-7.6099186e-05
3.8954062e-05
-2.4668998e-12
-8.9442217e-05
3.9734664e-05
-2.0698712e-12
-0.00010269425
3.9632139e-05
-1.722204e-12
-0.00011558272
3.8686022e-05
-1.3917641e-12
-0.00012784206
3.6923426e-05
-1.0370266e-12
-0.0001392126
3.4362127e-05
-6.3513936e-13
-0.00014944102
3.1016762e-05
-2.1261396e-13
-0.00015828284
2.6906678e-05
1.9660004e-13
-0.00016550695
2.20642e-05
5.9258194e-13
-0.00017090207
1.6542377e-05
9.8428383e-13
-0.00017428481
1.0421443e-05
1.3572375e-12
-0.00017550877
3.8134544e-06
1.6805134e-12
-0.00017447403
-3.1355548e-06
1.9396701e-12
-0.00017113656
-1.0245855e-05
2.1395805e-12
-0.00016551652
-1.7307026e-05
2.3002894e-12
-0.0001577049
-2.4084592e-05
2.4300776e-12
-0.00014786768
-3.0328975e-05
2.5169376e-12
-0.00013624671
-3.578742e-05
2.5394388e-12
-0.00012315682
-4.0218129e-05
2.4879447e-12
-0.00010897836
-4.340593e-05
2.3874745e-12
-9.4145229e-05
-4.517849e-05
2.3011785e-12
-7.9127998e-05
-4.5421951e-05
2.3060989e-12
-6.4412805e-05
-4.4094756e-05
2.4473701e-12
-5.047654e-05
-4.1238617e-05
2.6862946e-12
-3.7759539e-05
-3.6985909e-05
2.8928723e-12
-2.6637211e-05
-3.1563434e-05
2.9198791e-12
-1.7392305e-05
-2.5293324e-05
2.6810207e-12
-1.0189573e-05
-1.8593022e-05
2.6126617e-12
-5.0546995e-06
-1.1976773e-05
3.5652114e-12
-1.8598835e-06
-6.0579688e-06
4.1898891e-12
-3.2226382e-07
-1.5558685e-06
6.5067296e-13
6.4173532e-07
5.9074573e-12
-1.6929503e-06
3.5251829e-06
-1.6289454e-11
-6.3705682e-06
1.2331114e-05
1.0612295e-11
-1.3669629e-05
2.1443818e-05
-4.4757821e-12
-2.3230944e-05
3.0008109e-05
-6.7536549e-12
-3.4690583e-05
3.7548205e-05
-4.1303748e-12
-4.7683419e-05
4.3813212e-05
-3.6201775e-12
-6.1849236e-05
4.8706777e-05
-3.4950086e-12
-7.6837807e-05
5.2228756e-05
-3.1396471e-12
-9.2311602e-05
5.4427864e-05
-2.7907837e-12
-0.00010794601
5.5369078e-05
-2.4887171e-12
-0.00012342777
5.5113907e-05
-2.1829212e-12
-0.00013845267
5.3710926e-05
-1.8450492e-12
-0.00015272352
5.1194283e-05
-1.465033e-12
-0.00016594934
4.7587952e-05
-1.044435e-12
-0.00017784628
4.2913701e-05
-6.0712793e-13
-0.00018814059
3.7200987e-05
-1.6906926e-13
-0.00019657371
3.0497323e-05
2.7365386e-13
-0.00020290924
2.2877914e-05
7.2411592e-13
-0.00020694146
1.4453661e-05
1.1630777e-12
-0.00020850486
5.3768525e-06
1.5586536e-12
-0.00020748425
-4.15616e-06
1.89573e-12
-0.0002038247
-1.3905408e-05
2.185544e-12
-0.00019754067
-2.3591055e-05
2.4333586e-12
-0.00018872361
-3.2901648e-05
2.6342506e-12
-0.00017754721
-4.1505383e-05
2.7699967e-12
-0.00016426942
-4.9065203e-05
2.8210999e-12
-0.00014923065
-5.5256904e-05
2.7884002e-12
-0.00013284708
-5.9789499e-05
2.7120588e-12
-0.00011559889
-6.2426672e-05
2.6561899e-12
-9.8012963e-05
-6.3007874e-05
2.660012e-12
-8.0640301e-05
-6.1467419e-05
2.717379e-12
-6.4028961e-05
-5.7849967e-05
2.8196646e-12
-4.8693729e-05
-5.2321155e-05
3.0219156e-12
-3.5084432e-05
-4.5172733e-05
3.3128749e-12
-2.3555175e-05
-3.6822562e-05
3.3943054e-12
-1.433708e-05
-2.7811112e-05
3.1758815e-12
-7.5171784e-06
-1.8796705e-05
3.9018141e-12
-3.0266532e-06
-1.0548493e-05
3.7271543e-12
-6.4249041e-07
-3.9400122e-06
-1.7924198e-12
-7.661728e-10
8.4239391e-12
-2.1326403e-06
5.6578431e-06
-1.9112456e-11
-7.8899738e-06
1.8088432e-05
1.5281496e-11
-1.6715073e-05
3.0268918e-05
-3.8578578e-12
-2.8101832e-05
4.1394872e-05
-6.8836933e-12
-4.1579331e-05
5.1025706e-05
-3.6980793e-12
-5.6706325e-05
5.8940211e-05
-3.1652555e-12
-7.306828e-05
6.5068737e-05
-3.1608898e-12
-9.0274826e-05
6.9435308e-05
-2.8980353e-12
-0.00010795678
7.2109821e-05
-2.6294117e-12
-0.00012576247
7.317478e-05
-2.3766211e-12
-0.00014335378
7.270522e-05
-2.0816633e-12
-0.00016040242
7.0759574e-05
-1.7412769e-12
-0.00017658734
6.7379203e-05
-1.3720218e-12
-0.00019159366
6.2594271e-05
-9.8593874e-13
-0.00020511365
5.6433701e-05
-5.8890667e-13
-0.00021684989
4.893723e-05
-1.8077485e-13
-0.00022652043
4.0167864e-05
2.4248679e-13
-0.00023386593
3.0223406e-05
6.7757977e-13
-0.00023865828
1.9246018e-05
1.1024625e-12
-0.00024071048
7.4290484e-06
1.4856369e-12
-0.00023988705
-4.9795865e-06
1.8107208e-12
-0.00023611467
-1.7677787e-05
2.090923e-12
-0.0002293924
-3.0313325e-05
2.3291063e-12
-0.00021980066
-4.2493394e-05
2.5205639e-12
-0.00020750823
-5.3797807e-05
2.6403746e-12
-0.00019277643
-6.3797013e-05
2.6546559e-12
-0.00017595919
-7.2074142e-05
2.5592036e-12
-0.00015749837
-7.8250313e-05
2.4236395e-12
-0.00013791313
-8.2011908e-05
2.3771104e-12
-0.00011778296
-8.3138038e-05
2.4981199e-12
-9.7724316e-05
-8.1526057e-05
2.7139132e-12
-7.8361457e-05
-7.7212827e-05
2.8607795e-12
-6.0292958e-05
-7.0389668e-05
2.8988155e-12
-4.4056126e-05
-6.1409582e-05
2.9559627e-12
-3.0092253e-05
-5.0786438e-05
3.0270682e-12
-1.8716008e-05
-3.9187344e-05
3.1587764e-12
-1.0092451e-05
-2.7420274e-05
4.5281122e-12
-4.2251021e-06
-1.6415852e-05
3.471031e-12
-9.5844982e-07
-7.2066534e-06
-4.7217297e-12
-9.5922783e-07
1.0410079e-11
-2.5446851e-06
8.2025498e-06
-2.2039446e-11
-9.3275006e-06
2.4871228e-05
1.9421958e-11
-1.9612557e-05
4.0553975e-05
-3.4372714e-12
-3.27522e-05
5.4534521e-05
-7.1355302e-12
-4.8169107e-05
6.6442616e-05
-3.4397247e-12
-6.5344978e-05
7.6116085e-05
-2.9434883e-12
-8.3810567e-05
8.3534329e-05
-3.1147311e-12
-0.00010313653
8.8761273e-05
-2.9697031e-12
-0.00012292501
9.1898302e-05
-2.7700876e-12
-0.00014280187
9.3051653e-05
-2.5427667e-12
-0.00016240991
9.2313257e-05
-2.2481733e-12
-0.00018140324
8.9752914e-05
-1.9123856e-12
-0.00019944362
8.5419584e-05
-1.5635561e-12
-0.00021619867
7.9349322e-05
-1.205709e-12
-0.00023134247
7.1577499e-05
-8.246386e-13
-0.00024455834
6.2153101e-05
-4.1107676e-13
-0.0002555438
5.1153329e-05
3.0810324e-14
-0.00026401743
3.8697038e-05
4.8690444e-13
-0.00026972735
2.4955937e-05
9.3533793e-13
-0.00027246106
1.0162758e-05
1.3513442e-12
-0.0002720563
-5.3843464e-06
1.7178909e-12
-0.00026841235
-2.1321737e-05
2.047813e-12
-0.00026150171
-3.7223961e-05
2.3344335e-12
-0.000251381
-5.2614111e-05
2.5746332e-12
-0.0002382005
-6.6978312e-05
2.7451713e-12
-0.00022221129
-7.9786227e-05
2.8025209e-12
-0.00020376859
-9.0516844e-05
2.7185209e-12
-0.00018332999
-9.8688914e-05
2.542571e-12
-0.00016144723
-0.00010389466
2.4257135e-12
-0.00013875054
-0.00010583473
2.5164507e-12
-0.00011592499
-0.00010435161
2.7869289e-12
-9.3679405e-05
-9.9458399e-05
3.0281785e-12
-7.2709309e-05
-9.1359763e-05
3.0691132e-12
-5.3656385e-05
-8.0462517e-05
2.9536113e-12
-3.7068199e-05
-6.7374641e-05
2.7804605e-12
-2.3362211e-05
-5.2893329e-05
3.1016594e-12
-1.2798421e-05
-3.7984067e-05
5.1000936e-12
-5.4645289e-06
-2.3749753e-05
3.4765402e-12
-1.2771841e-06
-1.139399e-05
-7.6665028e-12
-2.2364243e-06
1.2831788e-11
-2.9280486e-06
1.1130621e-05
-2.484518e-11
-1.0672111e-05
3.2615268e-05
2.3219036e-11
-2.2332947e-05
5.2214812e-05
-3.0852586e-12
-3.7130671e-05
6.933225e-05
-7.4286558e-12
-5.4386431e-05
8.3698377e-05
-3.2873618e-12
-7.3507373e-05
9.5237028e-05
-2.8583497e-12
-9.3971353e-05
0.00010399831
-3.2064322e-12
-0.00011531228
0.0001101022
-3.1551129e-12
-0.00013710678
0.0001136928
-2.9926301e-12
-0.00015896249
0.00011490737
-2.7733845e-12
-0.00018050824
0.000113859
-2.4830362e-12
-0.00020138628
0.00011063096
-2.1628894e-12
-0.00022124707
0.00010528037
-1.8369451e-12
-0.00023974639
9.7848645e-05
-1.4948802e-12
-0.00025654506
8.8376167e-05
-1.1116687e-12
-0.00027131094
7.6918989e-05
-6.7949852e-13
-0.00028372322
6.356561e-05
-2.1709011e-13
-0.00029347859
4.8452407e-05
2.5184304e-13
-0.00030029928
3.1776627e-05
7.1539811e-13
-0.0003039427
1.3806175e-05
1.1663461e-12
-0.00030421257
-5.1144801e-06
1.5908678e-12
-0.00030097098
-2.4563324e-05
2.0021186e-12
-0.00029415188
-4.4043064e-05
2.3597107e-12
-0.00028377429
-6.2991709e-05
2.6528669e-12
-0.0002699552
-8.0797404e-05
2.8711033e-12
-0.00025292068
-9.6820751e-05
2.9921791e-12
-0.00023301358
-0.00011042395
2.986603e-12
-0.00021069612
-0.00012100637
2.8528139e-12
-0.0001865454
-0.00012804538
2.6723849e-12
-0.00016124019
-0.00013113994
2.6035671e-12
-0.00013553791
-0.00013005389
2.7435294e-12
-0.00011024187
-0.00012475445
3.0138318e-12
-8.616004e-05
-0.00011544159
3.2212612e-12
-6.4058403e-05
-0.00010256416
3.1911354e-12
-4.4613058e-05
-8.6819997e-05
2.8485425e-12
-2.8366303e-05
-6.9140091e-05
3.2008561e-12
-1.5691962e-05
-5.065841e-05
5.7373947e-12
-6.7747297e-06
-3.266699e-05
3.6034848e-12
-1.6069253e-06
-1.6561786e-05
-1.0656849e-11
-3.8433635e-06
1.5346181e-11
-3.2812127e-06
1.441186e-05
-2.7442105e-11
-1.1914129e-05
4.1248159e-05
2.6689117e-11
-2.4851934e-05
6.5152618e-05
-2.8342612e-12
-4.1194072e-05
8.5674393e-05
-7.805517e-12
-6.0167891e-05
0.00010267219
-3.273105e-12
-8.1111062e-05
0.0001161802
-2.9051449e-12
-0.00010345224
0.00012633949
-3.3907524e-12
-0.00012669192
0.00013334187
-3.389857e-12
-0.00015038482
0.0001373857
-3.2402663e-12
-0.00017412455
0.0001386471
-3.0289824e-12
-0.00019753074
0.0001372652
-2.7538408e-12
-0.00022023907
0.00013333929
-2.4528213e-12
-0.00024189411
0.00012693541
-2.1383039e-12
-0.00026214502
0.00011809955
-1.7938119e-12
-0.00028064394
0.00010687509
-1.3973784e-12
-0.00029704684
9.332189e-05
-9.4973212e-13
-0.00031101662
7.753539e-05
-4.7899386e-13
-0.0003222283
5.9664089e-05
-1.1481295e-14
-0.00033037623
3.9924557e-05
4.5243345e-13
-0.00033518325
1.8613193e-05
9.1768447e-13
-0.00033641202
-3.8857043e-06
1.3722459e-12
-0.00033387761
-2.7097742e-05
1.8753514e-12
-0.00032746317
-5.0457506e-05
2.318686e-12
-0.00031713573
-7.3319149e-05
2.6799998e-12
-0.0003029631
-9.4970042e-05
2.9488189e-12
-0.00028512984
-0.00011465402
3.1164066e-12
-0.00026395062
-0.00013160317
3.1799546e-12
-0.00023987866
-0.00014507833
3.141541e-12
-0.0002135066
-0.00015441744
3.0192575e-12
-0.00018555732
-0.00015908922
2.8835929e-12
-0.00015686287
-0.00015874834
2.8435342e-12
-0.00012833059
-0.00015328674
2.9617335e-12
-0.00010089752
-0.00014287467
3.1935848e-12
-7.547618e-05
-0.00012798549
3.2897973e-12
-5.2896809e-05
-0.00010939937
2.9545085e-12
-3.385239e-05
-8.8184518e-05
3.2851675e-12
-1.8853297e-05
-6.565751e-05
6.2899706e-12
-8.1976309e-06
-4.3322658e-05
3.6382698e-12
-1.9610168e-06
-2.2798386e-05
-1.3896033e-11
-5.8043966e-06
1.7992646e-11
-3.6017746e-06
1.8013664e-05
-2.9831428e-11
-1.3042994e-05
5.0689351e-05
2.9748812e-11
-2.7145448e-05
7.9255072e-05
-2.7516265e-12
-4.4900918e-05
0.00010342987
-8.3063949e-12
-6.5452536e-05
0.00012322381
-3.4157205e-12
-8.8075357e-05
0.00013880301
-3.0828619e-12
-0.00011215393
0.00015041806
-3.6622717e-12
-0.00013715953
0.00015834748
-3.6846502e-12
-0.00016262904
0.00016285521
-3.5422735e-12
-0.00018814625
0.00016416431
-3.3458447e-12
-0.00021332629
0.00016244524
-3.0909511e-12
-0.00023780322
0.00015781623
-2.8034113e-12
-0.00026122091
0.00015035309
-2.4861626e-12
-0.00028322692
0.00014010557
-2.1269902e-12
-0.00030346932
0.00012711749
-1.7159443e-12
-0.00032159591
0.00011144848
-1.2619482e-12
-0.0003372558
9.3195277e-05
-7.9141679e-13
-0.0003501032
7.2511494e-05
-3.2524441e-13
-0.00035980344
4.9624801e-05
1.4284547e-13
-0.00036604128
2.4851029e-05
6.166884e-13
-0.00036853238
-1.3946037e-06
1.0644737e-12
-0.00036703566
-2.8594452e-05
1.6490628e-12
-0.00036137194
-5.6121228e-05
2.1637563e-12
-0.00035144174
-8.3249359e-05
2.6156014e-12
-0.00033724687
-0.00010916491
2.9994567e-12
-0.00031891212
-0.00013298878
3.2844592e-12
-0.00029670537
-0.00015380992
3.441532e-12
-0.0002710535
-0.0001707302
3.4697068e-12
-0.00024255063
-0.00018292031
3.3867872e-12
-0.00021195514
-0.00018968471
3.2232133e-12
-0.00018017235
-0.00019053114
3.048947e-12
-0.00014822091
-0.00018523819
2.9728301e-12
-0.00011718305
-0.00017391254
3.0890655e-12
-8.8141715e-05
-0.00015702683
3.1886813e-12
-6.2110331e-05
-0.00013543076
2.8680708e-12
-3.996327e-05
-0.00011033158
3.2308044e-12
-2.2375824e-05
-8.3244964e-05
6.8022518e-12
-9.7819163e-06
-5.5916569e-05
3.6093147e-12
-2.3545116e-06
-3.0225773e-05
-1.746521e-11
-8.1589278e-06
2.0979855e-11
-3.8864955e-06
2.1900192e-05
-3.2031884e-11
-1.4046695e-05
6.0849521e-05
3.2322253e-11
-2.9188047e-05
9.4396424e-05
-2.8371042e-12
-4.8208762e-05
0.00012245059
-8.8954462e-12
-7.0178538e-05
0.00014519359
-3.6684151e-12
-9.4317773e-05
0.00016294225
-3.346512e-12
-0.00011997286
0.00017607314
-3.9908088e-12
-0.00014659067
0.00018496528
-4.0252535e-12
-0.00017369448
0.00018995902
-3.8893067e-12
-0.00020086259
0.00019133243
-3.7080646e-12
-0.00022771014
0.00018929279
-3.4693439e-12
-0.00025387441
0.0001839805
-3.1893182e-12
-0.00027900361
0.0001754823
-2.868264e-12
-0.00030274884
0.0001638508
-2.50212e-12
-0.00032475891
0.00014912756
-2.0909994e-12
-0.00034467773
0.00013136731
-1.6443889e-12
-0.00036214405
0.00011066159
-1.1808085e-12
-0.00037679337
8.7160817e-05
-7.121009e-13
-0.00038826244
6.1093878e-05
-2.2543941e-13
-0.00039619644
3.2785029e-05
3.1022182e-13
-0.00040025903
2.6679887e-06
9.0892125e-13
-0.00040014734
-2.8706138e-05
1.4188931e-12
-0.00039560866
-6.0659908e-05
1.9259016e-12
-0.00038646343
-9.2394594e-05
2.4106978e-12
-0.00037263047
-0.00012299788
2.8806232e-12
-0.00035415488
-0.00015146438
3.3132278e-12
-0.00033123603
-0.00017672877
3.6355976e-12
-0.00030425262
-0.00019771361
3.7848754e-12
-0.00027378053
-0.00021339241
3.7583025e-12
-0.00024059873
-0.00022286652
3.5930092e-12
-0.00020567858
-0.00022545129
3.3480775e-12
-0.00017015272
-0.00022076405
3.1277792e-12
-0.00013526237
-0.0002088029
3.0918661e-12
-0.00010228519
-0.00019000402
3.1109125e-12
-7.2450188e-05
-0.00016526576
2.7318289e-12
-4.6849588e-05
-0.00013593219
3.1578058e-12
-2.6359282e-05
-0.00010373528
7.4266996e-12
-1.1579526e-05
-7.0696328e-05
3.6486793e-12
-2.8030914e-06
-3.9002185e-05
-2.1427486e-11
-1.0962043e-05
2.4451124e-11
-4.1315513e-06
2.6031777e-05
-3.4043665e-11
-1.49121e-05
7.1630038e-05
3.43904e-11
-3.0953066e-05
0.00011043739
-3.0366377e-12
-5.1074069e-05
0.00014257159
-9.5056085e-12
-7.4282868e-05
0.00016840238
-3.9757601e-12
-9.9753727e-05
0.0001884131
-3.6504559e-12
-0.00012680123
0.00020312064
-4.3412301e-12
-0.00015485279
0.00021301685
-4.3809828e-12
-0.00018342246
0.00021852869
-4.248188e-12
-0.0002120872
0.00021999717
-4.080475e-12
-0.00024046651
0.00021767211
-3.8578078e-12
-0.0002682056
0.0002117196
-3.5884128e-12
-0.00029496205
0.00020223876
-3.2728818e-12
-0.00032039574
0.00018928449
-2.9137745e-12
-0.00034416156
0.00017289338
-2.5156123e-12
-0.00036590468
0.00015311043
-2.0840717e-12
-0.00038525809
0.00013001501
-1.6315309e-12
-0.00040184249
0.00010374522
-1.1639757e-12
-0.00041526868
7.4520067e-05
-6.605975e-13
-0.00042514308
4.2659441e-05
-7.6691219e-14
-0.00043107667
8.6015797e-06
6.0037892e-13
-0.00043269962
-2.7083179e-05
1.160305e-12
-0.00042967857
-6.3680959e-05
1.6857813e-12
-0.00042174189
-0.00010033127
2.1568618e-12
-0.00040870904
-0.00013603074
2.6252261e-12
-0.0003905246
-0.00016964883
3.1350138e-12
-0.00036729488
-0.00019995849
3.6275265e-12
-0.00033932361
-0.00022568489
3.9692576e-12
-0.00030714183
-0.0002455742
4.0732395e-12
-0.00027152613
-0.00025848222
3.9575801e-12
-0.00023349826
-0.00026347916
3.7056894e-12
-0.00019430024
-0.00025996208
3.4315519e-12
-0.00015534113
-0.00024776201
3.2931259e-12
-0.0001181163
-0.00022722885
3.2091136e-12
-8.4105434e-05
-0.00019927663
2.6862576e-12
-5.4661311e-05
-0.00016537632
3.1542422e-12
-3.0904971e-05
-0.00012749163
8.2391221e-12
-1.3643642e-05
-8.7957661e-05
3.7895448e-12
-3.3227299e-06
-4.932307e-05
-2.592679e-11
-1.4284802e-05
2.8501092e-11
-4.3328953e-06
3.0364709e-05
-3.581285e-11
-1.5625823e-05
8.2922933e-05
3.5989959e-11
-3.2413901e-05
0.00012722547
-3.2808523e-12
-5.3453817e-05
0.00016361152
-1.007679e-11
-7.7703199e-05
0.00019265177
-4.2945469e-12
-0.00010429881
0.00021500871
-3.9608857e-12
-0.00013252972
0.00023135156
-4.6840967e-12
-0.00016180877
0.0002422959
-4.7230655e-12
-0.00019164484
0.00024836476
-4.5922758e-12
-0.00022161748
0.00024996982
-4.4434964e-12
-0.00025135467
0.00024740931
-4.2479911e-12
-0.00028051405
0.00024087899
-4.0014331e-12
-0.00030876759
0.0002304923
-3.7015296e-12
-0.00033578941
0.00021630631
-3.3542611e-12
-0.00036124635
0.00019835033
-2.9656898e-12
-0.00038479097
0.00017665505
-2.5396878e-12
-0.00040605672
0.00015128076
-2.0900346e-12
-0.0004246554
0.0001223439
-1.6265489e-12
-0.0004401772
9.0041875e-05
-1.121167e-12
-0.00045219402
5.4676269e-05
-5.196826e-13
-0.00046026671
1.667427e-05
1.8588241e-13
-0.00046395782
-2.3392062e-05
8.6407052e-13
-0.00046284958
-6.4789201e-05
1.4584288e-12
-0.00045656962
-0.00010661123
1.9299957e-12
-0.00044482369
-0.00014777667
2.3513493e-12
-0.00042743539
-0.00018703713
2.8381353e-12
-0.00040439143
-0.00022300246
3.4087274e-12
-0.00037588903
-0.00025418729
3.9255191e-12
-0.00034238046
-0.00027908276
4.2095277e-12
-0.0003046072
-0.00029625549
4.2016469e-12
-0.00026361482
-0.00030447154
3.9885182e-12
-0.00022073955
-0.00030283735
3.720594e-12
-0.00017755904
-0.00029094251
3.5436419e-12
-0.00013580533
-0.00026898257
3.3716783e-12
-9.7244949e-05
-0.00023783701
2.6592334e-12
-6.3540237e-05
-0.00019908104
3.1524629e-12
-3.6112045e-05
-0.00015491983
9.188162e-12
-1.6027365e-05
-0.00010804234
3.9726118e-12
-3.929535e-06
-6.142087e-05
-3.1139521e-11
-1.8214372e-05
3.3228593e-11
-4.4866891e-06
3.4851436e-05
-3.7241731e-11
-1.6175438e-05
9.4611649e-05
3.7165843e-11
-3.3546062e-05
0.0001445961
-3.5193375e-12
-5.5308343e-05
0.00018537381
-1.0571705e-11
-8.0381504e-05
0.00021772493
-4.6000158e-12
-0.00010787313
0.00024250035
-4.2594045e-12
-0.00013705273
0.00026053116
-5.005297e-12
-0.00016732292
0.0002725661
-5.0413781e-12
-0.00019819112
0.00027923297
-4.915341e-12
-0.00022924296
0.00028102167
-4.7929383e-12
-0.00026011865
0.00027828501
-4.6344863e-12
-0.0002904925
0.00027125285
-4.4192702e-12
-0.00032005578
0.00026005558
-4.1399167e-12
-0.00034850252
0.00024475305
-3.8042233e-12
-0.00037551795
0.00022536576
-3.4187407e-12
-0.00040076915
0.00020190626
-2.9877641e-12
-0.00042389779
0.00017440941
-2.5319925e-12
-0.00044451498
0.00014296109
-2.0701146e-12
-0.00046219864
0.00010772554
-1.5726974e-12
-0.00047649404
6.8971671e-05
-9.7064373e-13
-0.00048691851
2.709875e-05
-2.3829361e-13
-0.00049297173
-1.7338847e-05
5.3328294e-13
-0.0004941524
-6.3608528e-05
1.2217614e-12
-0.00048998349
-0.00011078014
1.75025e-12
-0.00048004655
-0.00015771361
2.1645186e-12
-0.00046402585
-0.00020305782
2.5983746e-12
-0.00044176158
-0.00024526673
3.1430976e-12
-0.00041330949
-0.00028263938
3.7262175e-12
-0.00037900189
-0.00031339037
4.1466158e-12
-0.00033950172
-0.00033575566
4.260422e-12
-0.00029583857
-0.00034813468
4.1041454e-12
-0.0002494137
-0.00034926222
3.8493445e-12
-0.0002019618
-0.0003383944
3.6569712e-12
-0.00015546259
-0.00031548178
3.4111193e-12
-0.00011200411
-0.00028129549
2.4989219e-12
-7.3612512e-05
-0.00023747264
3.0443336e-12
-4.2074105e-05
-0.00018645825
1.0220758e-11
-1.8782679e-05
-0.00013133378
4.1551977e-12
-4.6396716e-06
-7.5563843e-05
-3.7214528e-11
-2.2854084e-05
3.8749673e-11
-4.5897901e-06
3.9441266e-05
-3.8250576e-11
-1.6550947e-05
0.00010657277
3.7927052e-11
-3.4329799e-05
0.00016237496
-3.7377635e-12
-5.6605132e-05
0.00020764915
-1.0977444e-11
-8.2268967e-05
0.00024338877
-4.8859982e-12
-0.00011040736
0.00027063875
-4.5461631e-12
-0.00014027545
0.00029039925
-5.3105991e-12
-0.00017126943
0.0003035601
-5.3486481e-12
-0.00020289829
0.00031086184
-5.2327824e-12
-0.00023475674
0.00031288013
-5.1356676e-12
-0.00026650047
0.00031002876
-5.0068565e-12
-0.00029782441
0.0003025768
-4.8142294e-12
-0.00032844388
0.00029067506
-4.5505524e-12
-0.00035807857
0.00027438775
-4.226677e-12
-0.00038643894
0.00025372613
-3.8486389e-12
-0.00041321464
0.00022868196
-3.4213445e-12
-0.0004380648
0.00019925957
-2.9708437e-12
-0.00046061022
0.00016550652
-2.5191017e-12
-0.0004804278
0.00012754312
-2.0340599e-12
-0.00049704792
8.5591799e-05
-1.4354619e-12
-0.00050995582
4.0006654e-05
-6.8173107e-13
-0.00051859835
-8.6963157e-06
1.6025761e-13
-0.00052239782
-5.9809063e-05
9.4964748e-13
-0.00052077479
-0.00011240317
1.5921549e-12
-0.00051318192
-0.00016530648
2.0915034e-12
-0.00049915031
-0.00021708944
2.5424689e-12
-0.00047834887
-0.00026606817
3.0455905e-12
-0.00045065551
-0.00031033275
3.5954552e-12
-0.00041623563
-0.00034781024
4.045189e-12
-0.00037561968
-0.00037637161
4.2272588e-12
-0.00032976651
-0.00039398784
4.1111479e-12
-0.0002800957
-0.00039893303
3.8453926e-12
-0.00022847029
-0.0003900198
3.6205189e-12
-0.00017711556
-0.00036683651
3.2917804e-12
-0.00012846982
-0.00032994124
2.1670676e-12
-8.4980291e-05
-0.00028096217
2.8069265e-12
-4.8875523e-05
-0.00022256303
1.1352857e-11
-2.1959382e-05
-0.00015824992
4.3438872e-12
-5.4693025e-06
-9.2053883e-05
-4.4276475e-11
-2.8323434e-05
4.5182949e-11
-4.6402839e-06
4.4081591e-05
-3.8822837e-11
-1.6746445e-05
0.0001186789
3.8246099e-11
-3.475316e-05
0.00018038168
-3.948829e-12
-5.732334e-05
0.00023021934
-1.1300797e-11
-8.3331934e-05
0.00026939737
-5.1627033e-12
-0.00011185005
0.00029915687
-4.8338014e-12
-0.00014212271
0.00032067192
-5.6159497e-12
-0.00017354264
0.00033498004
-5.6653595e-12
-0.00020562282
0.00034294203
-5.5661447e-12
-0.0002379694
0.00034522672
-5.4861814e-12
-0.00027025642
0.00034231579
-5.3667624e-12
-0.00030220294
0.00033452332
-5.176315e-12
-0.00033355283
0.00032202497
-4.9159915e-12
-0.00036405718
0.0003048921
-4.599321e-12
-0.00039345876
0.00028312772
-4.2296624e-12
-0.00042147845
0.00025670166
-3.8154232e-12
-0.00044780326
0.00022558439
-3.3899073e-12
-0.00047207586
0.00018977912
-2.9731395e-12
-0.00049388604
0.0001493533
-2.519359e-12
-0.00051276459
0.00010447036
-1.9347058e-12
-0.00052818074
5.54228e-05
-1.16768e-12
-0.00053954431
2.66726e-06
-2.7085862e-13
-0.00054621511
-5.3138266e-05
6.1058526e-13
-0.00054752115
-0.00011109713
1.393419e-12
-0.00054278932
-0.00017003832
2.0522628e-12
-0.00053139083
-0.00022848792
2.6231274e-12
-0.00051280396
-0.00028465505
3.1580106e-12
-0.00048669438
-0.00033644232
3.6684934e-12
-0.00045301082
-0.0003814938
4.0800917e-12
-0.00041208824
-0.0004172942
4.2670899e-12
-0.00036474469
-0.00044133139
4.161361e-12
-0.000312351
-0.00045132672
3.8586559e-12
-0.00025684747
-0.00044552333
3.5669651e-12
-0.00020068312
-0.00042300088
3.1157684e-12
-0.00014666311
-0.00038396124
1.7258276e-12
-9.7711906e-05
-0.00032991338
2.4728512e-12
-5.6587047e-05
-0.0002636879
1.2627251e-11
-2.5603785e-05
-0.00018923319