/*--------------------------------*- C++ -*----------------------------------*\
  =========                 |
  \\      /  F ield         | OpenFOAM: The Open Source CFD Toolbox
   \\    /   O peration     | Website:  https://openfoam.org
    \\  /    A nd           | Version:  7
     \\/     M anipulation  |
\*---------------------------------------------------------------------------*/
FoamFile
{
    version     2.0;
    format      ascii;
    class       surfaceScalarField;
    location    "18";
    object      phi_0;
}
// * * * * * * * * * * * * * * * * * * * * * * * * * * * * * * * * * * * * * //

dimensions      [0 3 -1 0 0 0 0];

internalField   nonuniform List<scalar> 
45600
(
2.7507127e-07
-2.8224384e-07
-7.9967887e-11
4.0320506e-07
-1.281324e-07
-2.445096e-11
1.3244997e-07
2.7077038e-07
-5.918421e-12
-5.6235779e-07
6.9481628e-07
-7.9662556e-13
-1.6392579e-06
1.0768951e-06
4.1197468e-12
-3.0274246e-06
1.388157e-06
7.4545156e-12
-4.652088e-06
1.6246534e-06
9.6600471e-12
-6.4445159e-06
1.7924181e-06
1.1188157e-11
-8.3446207e-06
1.9000955e-06
1.224386e-11
-1.0300411e-05
1.9557777e-06
1.2906077e-11
-1.2266139e-05
1.9657136e-06
1.32371e-11
-1.4200087e-05
1.933936e-06
1.331026e-11
-1.606252e-05
1.8624217e-06
1.3135259e-11
-1.7814098e-05
1.7515661e-06
1.2686186e-11
-1.9414935e-05
1.6008251e-06
1.1943892e-11
-2.0824375e-05
1.4094304e-06
1.0905445e-11
-2.2001491e-05
1.1771098e-06
9.5633491e-12
-2.2906259e-05
9.0476274e-07
7.899512e-12
-2.3501308e-05
5.9504495e-07
5.9161836e-12
-2.375414e-05
2.5282855e-07
3.6398881e-12
-2.363963e-05
-1.1451268e-07
1.1277573e-12
-2.3142601e-05
-4.97029e-07
-1.5551937e-12
-2.2260319e-05
-8.8227964e-07
-4.3256327e-12
-2.1004558e-05
-1.2557555e-06
-7.0616817e-12
-1.9403037e-05
-1.6015123e-06
-9.61799e-12
-1.7499992e-05
-1.9030334e-06
-1.1864802e-11
-1.5355689e-05
-2.1442899e-06
-1.3682871e-11
-1.3044766e-05
-2.3109098e-06
-1.4962048e-11
-1.0653395e-05
-2.391357e-06
-1.5606638e-11
-8.2753757e-06
-2.3780049e-06
-1.55434e-11
-6.0073621e-06
-2.2679991e-06
-1.4727823e-11
-3.9435208e-06
-2.0638274e-06
-1.3154921e-11
-2.1699189e-06
-1.7735923e-06
-1.0878683e-11
-7.5876348e-07
-1.4111529e-06
-8.0246654e-12
2.3795123e-07
-9.96718e-07
-4.9035648e-12
7.9629837e-07
-5.583529e-07
-2.154322e-12
9.2908065e-07
-1.3277924e-07
1.0986292e-12
7.0546215e-07
2.2362833e-07
5.5953356e-12
2.904266e-07
4.1505301e-07
1.1061751e-11
2.9042677e-07
5.5851163e-12
1.3279936e-07
-4.1504342e-07
-2.1818259e-11
-3.0176713e-07
3.0646572e-07
-1.3263147e-11
-1.6153718e-06
1.5843991e-06
-1.1492239e-11
-3.8744522e-06
2.9539098e-06
-1.2457445e-11
-7.0067454e-06
4.2091993e-06
-1.3773422e-11
-1.087871e-05
5.2601365e-06
-1.5410739e-11
-1.5333595e-05
6.079557e-06
-1.6909454e-11
-2.0213844e-05
6.6726863e-06
-1.8031692e-11
-2.5371273e-05
7.0575454e-06
-1.871313e-11
-3.0669838e-05
7.2543625e-06
-1.894925e-11
-3.5984454e-05
7.2803494e-06
-1.8753552e-11
-4.1198104e-05
7.1476039e-06
-1.8126381e-11
-4.6198637e-05
6.8629735e-06
-1.7094653e-11
-5.0876202e-05
6.4291481e-06
-1.5684407e-11
-5.5121833e-05
5.8464727e-06
-1.3907352e-11
-5.8827497e-05
5.1151094e-06
-1.1767019e-11
-6.1887652e-05
4.2372765e-06
-9.2678177e-12
-6.4202238e-05
3.2193557e-06
-6.4420979e-12
-6.5680889e-05
2.0736975e-06
-3.3351651e-12
-6.6248028e-05
8.1996627e-07
-1.1393892e-14
-6.5848705e-05
-5.1384098e-07
3.4523701e-12
-6.4453825e-05
-1.8919188e-06
7.0098291e-12
-6.2065913e-05
-3.2702037e-06
1.0507781e-11
-5.8723058e-05
-4.5986257e-06
1.3830674e-11
-5.4501674e-05
-5.8229127e-06
1.6859609e-11
-4.9517206e-05
-6.8875204e-06
1.9463383e-11
-4.3922449e-05
-7.7390697e-06
2.1511084e-11
-3.790327e-05
-8.3301126e-06
2.2889753e-11
-3.1671717e-05
-8.6229345e-06
2.3509985e-11
-2.5456682e-05
-8.5930628e-06
2.3305768e-11
-1.9492529e-05
-8.2321763e-06
2.2251155e-11
-1.4006178e-05
-7.5502057e-06
2.0403833e-11
-9.2031706e-06
-6.5766237e-06
1.7932022e-11
-5.2530755e-06
-5.361261e-06
1.5059094e-11
-2.2743151e-06
-3.975481e-06
1.1898177e-11
-3.1764875e-07
-2.5150246e-06
8.2139759e-12
6.5673106e-07
-1.1071854e-06
3.4460976e-12
8.0346211e-07
7.6859617e-08
7.1088476e-13
4.1774969e-07
8.0072226e-07
2.101232e-12
7.0819487e-07
-1.7648803e-12
-2.7359929e-07
-1.4142285e-07
-1.1605928e-11
-1.6273883e-06
1.6602741e-06
-6.3391886e-12
-4.2890351e-06
4.2460565e-06
-7.8170312e-12
-8.2738585e-06
6.938738e-06
-6.5621533e-12
-1.3472983e-05
9.4083257e-06
-4.6897465e-12
-1.9706526e-05
1.1493682e-05
-3.6925791e-12
-2.676268e-05
1.3135715e-05
-3.0703846e-12
-3.4422587e-05
1.4332599e-05
-2.5855194e-12
-4.247359e-05
1.5108553e-05
-2.1974139e-12
-5.0714378e-05
1.549515e-05
-1.8655043e-12
-5.8955195e-05
1.5521165e-05
-1.5390764e-12
-6.7015591e-05
1.5208001e-05
-1.1776119e-12
-7.4721488e-05
1.4568873e-05
-7.90432e-13
-8.1902814e-05
1.3610475e-05
-3.9790109e-13
-8.8392487e-05
1.2336146e-05
-8.0088644e-15
-9.402719e-05
1.0749811e-05
3.7679293e-13
-9.8650035e-05
8.8601213e-06
7.715432e-13
-0.00010211503
6.6843512e-06
1.1484411e-12
-0.00010429305
4.251711e-06
1.4937052e-12
-0.0001050789
1.6058216e-06
1.7910218e-12
-0.00010439882
-1.1939263e-06
2.0382273e-12
-0.00010221811
-4.0726295e-06
2.2279998e-12
-9.8547833e-05
-6.9404819e-06
2.3568925e-12
-9.3450142e-05
-9.6963173e-06
2.4371066e-12
-8.7041497e-05
-1.2231559e-05
2.4781668e-12
-7.9493175e-05
-1.4435845e-05
2.4867008e-12
-7.1028601e-05
-1.6203646e-05
2.4728474e-12
-6.1917213e-05
-1.7441504e-05
2.4531055e-12
-5.2464784e-05
-1.8075366e-05
2.4446434e-12
-4.3000406e-05
-1.8057444e-05
2.4538864e-12
-3.3860542e-05
-1.7372042e-05
2.4624803e-12
-2.5370806e-05
-1.6039943e-05
2.4374303e-12
-1.7826154e-05
-1.4121275e-05
2.3977075e-12
-1.1470185e-05
-1.1717233e-05
2.4888796e-12
-6.473974e-06
-8.9717048e-06
2.9278774e-12
-2.9143216e-06
-6.0746915e-06
3.6849697e-12
-7.515274e-07
-3.2699798e-06
3.9240052e-12
1.9415514e-07
-8.6878655e-07
3.7339447e-12
2.6539966e-07
7.2945446e-07
4.0494474e-12
9.7359881e-07
8.672326e-13
-7.4578373e-07
6.0438021e-07
-1.1981189e-11
-3.179313e-06
4.0938039e-06
-5.8490711e-13
-7.3452938e-06
8.4120408e-06
-6.1351002e-12
-1.3161533e-05
1.2754981e-05
-5.5853801e-12
-2.0453379e-05
1.6700173e-05
-3.0424778e-12
-2.8989107e-05
2.0029414e-05
-1.7756068e-12
-3.8509126e-05
2.2655737e-05
-9.6827188e-13
-4.874661e-05
2.4570083e-05
-2.7516146e-13
-5.9439545e-05
2.5801488e-05
2.8601656e-13
-7.033601e-05
2.6391612e-05
7.3290364e-13
-8.1194936e-05
2.6380088e-05
1.1099794e-12
-9.178447e-05
2.5797535e-05
1.4464569e-12
-0.00010187967
2.4664071e-05
1.7330728e-12
-0.00011126077
2.2991577e-05
1.9564337e-12
-0.00011971296
2.078833e-05
2.1198203e-12
-0.000127028
1.8064849e-05
2.2353177e-12
-0.00013300797
1.4840087e-05
2.2959019e-12
-0.00013747087
1.114725e-05
2.2836374e-12
-0.00014025785
7.0386932e-06
2.1857831e-12
-0.00014124153
2.5894969e-06
2.0063253e-12
-0.00014033464
-2.1008148e-06
1.7669012e-12
-0.00013749889
-6.9083802e-06
1.4402876e-12
-0.0001327524
-1.1686975e-05
1.0438651e-12
-0.00012617576
-1.6272958e-05
6.1008537e-13
-0.00011791558
-2.0491731e-05
1.7928379e-13
-0.00010818499
-2.4166436e-05
-2.151653e-13
-9.7260426e-05
-2.7128212e-05
-5.473476e-13
-8.5474474e-05
-2.9227456e-05
-7.8981538e-13
-7.3204505e-05
-3.0345334e-05
-9.0856801e-13
-6.0857249e-05
-3.04047e-05
-8.6572914e-13
-4.8849748e-05
-2.9379546e-05
-6.4167887e-13
-3.7587356e-05
-2.7302339e-05
-2.7563305e-13
-2.7439727e-05
-2.4268902e-05
1.4250321e-13
-1.8715849e-05
-2.0441107e-05
5.3995537e-13
-1.1639143e-05
-1.6048409e-05
1.0420517e-12
-6.3235855e-06
-1.1390257e-05
2.0039624e-12
-2.7516808e-06
-6.8418792e-06
3.5841281e-12
-7.572804e-07
-2.8631938e-06
4.6474458e-12
-9.6053366e-09
-1.8258419e-08
4.0917554e-12
9.6400772e-07
3.6563199e-12
-1.2278262e-06
1.8322203e-06
-1.3698721e-11
-4.7875318e-06
7.6535005e-06
5.2210606e-12
-1.052023e-05
1.4144744e-05
-5.383804e-12
-1.8212016e-05
2.0446774e-05
-6.5385412e-12
-2.7600384e-05
2.6088546e-05
-4.2271355e-12
-3.8391318e-05
3.0820353e-05
-3.5792538e-12
-5.027651e-05
3.4540933e-05
-3.3187364e-12
-6.2946579e-05
3.7240154e-05
-2.9380843e-12
-7.6099125e-05
3.8954036e-05
-2.544232e-12
-8.9442151e-05
3.9734638e-05
-2.1733256e-12
-0.00010269418
3.9632114e-05
-1.8034418e-12
-0.00011558264
3.8685999e-05
-1.4212795e-12
-0.00012784197
3.6923406e-05
-1.0365229e-12
-0.0001392125
3.4362108e-05
-6.5749198e-13
-0.00014944091
3.1016745e-05
-2.741918e-13
-0.00015828273
2.6906664e-05
1.1800907e-13
-0.00016550683
2.2064188e-05
5.1681531e-13
-0.00017090195
1.6542367e-05
9.096423e-13
-0.00017428469
1.0421437e-05
1.2784051e-12
-0.00017550865
3.8134535e-06
1.6091994e-12
-0.00017447392
-3.1355503e-06
1.8981826e-12
-0.00017113645
-1.0245846e-05
2.1298606e-12
-0.00016551642
-1.7307012e-05
2.2999963e-12
-0.0001577048
-2.4084575e-05
2.4126847e-12
-0.00014786759
-3.0328954e-05
2.4822167e-12
-0.00013624663
-3.5787395e-05
2.5233709e-12
-0.00012315675
-4.0218102e-05
2.5445916e-12
-0.0001089783
-4.3405902e-05
2.5466457e-12
-9.4145181e-05
-4.5178463e-05
2.527337e-12
-7.9127962e-05
-4.5421925e-05
2.5036756e-12
-6.4412783e-05
-4.4094734e-05
2.5364776e-12
-5.047653e-05
-4.1238599e-05
2.6974641e-12
-3.7759533e-05
-3.6985893e-05
2.9790301e-12
-2.6637205e-05
-3.1563416e-05
3.1831608e-12
-1.7392299e-05
-2.5293305e-05
3.0153749e-12
-1.0189559e-05
-1.8593014e-05
2.7734264e-12
-5.054666e-06
-1.1976782e-05
3.6225477e-12
-1.8598895e-06
-6.0579899e-06
3.9885087e-12
-3.2227001e-07
-1.5558814e-06
6.8648629e-13
6.4172359e-07
5.8408563e-12
-1.6929488e-06
3.5251819e-06
-1.6337974e-11
-6.3705656e-06
1.2331104e-05
1.0528571e-11
-1.3669617e-05
2.1443802e-05
-4.5163585e-12
-2.3230923e-05
3.0008087e-05
-6.7446089e-12
-3.469055e-05
3.7548178e-05
-4.0947019e-12
-4.7683375e-05
4.3813182e-05
-3.6097369e-12
-6.1849182e-05
4.8706743e-05
-3.559076e-12
-7.6837743e-05
5.2228718e-05
-3.2560303e-12
-9.2311528e-05
5.4427824e-05
-2.888537e-12
-0.00010794593
5.5369039e-05
-2.5321504e-12
-0.00012342768
5.5113869e-05
-2.1736499e-12
-0.00013845257
5.371089e-05
-1.8000529e-12
-0.00015272341
5.119425e-05
-1.4164638e-12
-0.00016594922
4.7587923e-05
-1.03093e-12
-0.00017784615
4.2913674e-05
-6.3214919e-13
-0.00018814045
3.7200964e-05
-2.1501876e-13
-0.00019657357
3.0497305e-05
2.1711831e-13
-0.0002029091
2.2877901e-05
6.5400196e-13
-0.00020694132
1.4453654e-05
1.0787093e-12
-0.00020850472
5.3768521e-06
1.4742901e-12
-0.00020748412
-4.1561539e-06
1.8288246e-12
-0.00020382457
-1.3905396e-05
2.1417119e-12
-0.00019754055
-2.3591039e-05
2.4022529e-12
-0.0001887235
-3.2901626e-05
2.6040301e-12
-0.0001775471
-4.1505357e-05
2.7498612e-12
-0.00016426933
-4.9065173e-05
2.8517034e-12
-0.00014923056
-5.5256871e-05
2.9268061e-12
-0.000132847
-5.9789465e-05
2.9873658e-12
-0.00011559883
-6.2426638e-05
3.0228923e-12
-9.8012918e-05
-6.3007841e-05
3.003694e-12
-8.0640271e-05
-6.1467385e-05
2.9364959e-12
-6.4028941e-05
-5.7849935e-05
2.9124302e-12
-4.8693711e-05
-5.232113e-05
3.0414571e-12
-3.5084415e-05
-4.5172719e-05
3.3152402e-12
-2.3555173e-05
-3.6822557e-05
3.4017773e-12
-1.4337076e-05
-2.781111e-05
3.3295385e-12
-7.5171534e-06
-1.8796705e-05
4.1065257e-12
-3.0266489e-06
-1.0548513e-05
3.662895e-12
-6.4249484e-07
-3.9400326e-06
-1.7583958e-12
-7.8137143e-10
8.4421918e-12
-2.1326399e-06
5.6578392e-06
-1.920533e-11
-7.8899702e-06
1.8088419e-05
1.5227357e-11
-1.6715059e-05
3.0268898e-05
-3.872288e-12
-2.8101805e-05
4.1394843e-05
-6.9176529e-12
-4.1579292e-05
5.102567e-05
-3.7721117e-12
-5.6706274e-05
5.8940168e-05
-3.309957e-12
-7.3068218e-05
6.5068689e-05
-3.3644032e-12
-9.0274752e-05
6.9435255e-05
-3.0813693e-12
-0.00010795669
7.2109766e-05
-2.7192237e-12
-0.00012576238
7.3174726e-05
-2.3773285e-12
-0.00014335367
7.2705168e-05
-2.0402061e-12
-0.00016040231
7.0759525e-05
-1.6893028e-12
-0.00017658721
6.7379159e-05
-1.3266281e-12
-0.00019159352
6.2594231e-05
-9.5876724e-13
-0.00020511351
5.6433666e-05
-5.804095e-13
-0.00021684974
4.89372e-05
-1.8605601e-13
-0.00022652028
4.0167841e-05
2.2222669e-13
-0.00023386577
3.022339e-05
6.3512539e-13
-0.00023865812
1.924601e-05
1.034336e-12
-0.00024071032
7.4290487e-06
1.4016314e-12
-0.0002398869
-4.979578e-06
1.7271651e-12
-0.00023611453
-1.7677771e-05
2.0229093e-12
-0.00022939226
-3.0313303e-05
2.2789603e-12
-0.00021980053
-4.2493366e-05
2.483489e-12
-0.00020750811
-5.3797774e-05
2.6285878e-12
-0.00019277631
-6.3796974e-05
2.7192528e-12
-0.00017595909
-7.20741e-05
2.7743031e-12
-0.00015749828
-7.8250271e-05
2.8194808e-12
-0.00013791306
-8.2011868e-05
2.8650817e-12
-0.0001177829
-8.3138e-05
2.8769201e-12
-9.7724275e-05
-8.1526021e-05
2.805301e-12
-7.8361432e-05
-7.7212792e-05
2.6921824e-12
-6.0292938e-05
-7.0389635e-05
2.6789198e-12
-4.4056108e-05
-6.1409556e-05
2.890473e-12
-3.0092244e-05
-5.0786424e-05
3.1589025e-12
-1.8715998e-05
-3.9187336e-05
3.5433635e-12
-1.0092441e-05
-2.7420272e-05
4.7797853e-12
-4.2250949e-06
-1.6415861e-05
3.6922261e-12
-9.5844791e-07
-7.2066676e-06
-4.5534711e-12
-9.5924151e-07
1.0489723e-11
-2.5446843e-06
8.2025456e-06
-2.2065903e-11
-9.3274951e-06
2.4871213e-05
1.9404289e-11
-1.961254e-05
4.0553948e-05
-3.5100862e-12
-3.2752169e-05
5.4534482e-05
-7.2987238e-12
-4.8169064e-05
6.6442568e-05
-3.6822718e-12
-6.5344922e-05
7.6116028e-05
-3.2512439e-12
-8.3810498e-05
8.3534266e-05
-3.4203028e-12
-0.00010313645
8.8761205e-05
-3.1784965e-12
-0.00012292491
9.1898232e-05
-2.8453547e-12
-0.00014280177
9.3051585e-05
-2.5348434e-12
-0.00016240979
9.2313191e-05
-2.2257537e-12
-0.00018140311
8.9752853e-05
-1.8946237e-12
-0.00019944348
8.5419527e-05
-1.5419933e-12
-0.00021619852
7.9349272e-05
-1.1747068e-12
-0.0002313423
7.1577456e-05
-7.9193082e-13
-0.00024455817
6.2153065e-05
-3.898466e-13
-0.00025554363
5.1153301e-05
2.9643311e-14
-0.00026401726
3.8697019e-05
4.6175763e-13
-0.00026972717
2.4955928e-05
8.9232695e-13
-0.00027246089
1.016276e-05
1.2978508e-12
-0.00027205613
-5.3843341e-06
1.6586517e-12
-0.00026841219
-2.1321716e-05
1.9884761e-12
-0.00026150156
-3.7223931e-05
2.2772128e-12
-0.00025138085
-5.2614074e-05
2.5205827e-12
-0.00023820036
-6.6978269e-05
2.7128493e-12
-0.00022221116
-7.9786177e-05
2.8504511e-12
-0.00020376847
-9.051679e-05
2.93058e-12
-0.00018332989
-9.8688858e-05
2.9579748e-12
-0.00016144715
-0.00010389461
2.9619494e-12
-0.00013875047
-0.00010583468
2.977232e-12
-0.00011592493
-0.00010435156
2.9931648e-12
-9.3679368e-05
-9.9458358e-05
2.9822288e-12
-7.2709282e-05
-9.1359722e-05
2.9595064e-12
-5.3656367e-05
-8.046248e-05
2.9606809e-12
-3.7068185e-05
-6.7374615e-05
2.9908018e-12
-2.3362198e-05
-5.2893313e-05
3.4666273e-12
-1.2798415e-05
-3.798406e-05
5.3866455e-12
-5.4645225e-06
-2.3749754e-05
3.7105809e-12
-1.2771809e-06
-1.1394e-05
-7.534422e-12
-2.2364359e-06
1.2939252e-11
-2.9280468e-06
1.1130616e-05
-2.4870359e-11
-1.0672104e-05
3.2615249e-05
2.3127323e-11
-2.2332929e-05
5.2214777e-05
-3.3224576e-12
-3.7130638e-05
6.93322e-05
-7.7701215e-12
-5.4386385e-05
8.3698316e-05
-3.6863695e-12
-7.3507313e-05
9.5236957e-05
-3.2630332e-12
-9.3971278e-05
0.00010399823
-3.5311127e-12
-0.00011531218
0.00011010212
-3.3330913e-12
-0.00013710667
0.00011369272
-3.0369892e-12
-0.00015896237
0.00011490729
-2.7631234e-12
-0.00018050811
0.00011385892
-2.4830361e-12
-0.00020138614
0.00011063089
-2.1730332e-12
-0.00022124691
0.00010528031
-1.8327135e-12
-0.00023974622
9.7848585e-05
-1.47011e-12
-0.00025654488
8.8376116e-05
-1.0845758e-12
-0.00027131076
7.6918947e-05
-6.7086466e-13
-0.00028372304
6.3565579e-05
-2.3213187e-13
-0.00029347841
4.8452386e-05
2.2620003e-13
-0.00030029909
3.1776617e-05
6.9481437e-13
-0.00030394251
1.3806179e-05
1.1501879e-12
-0.00030421239
-5.1144638e-06
1.5648337e-12
-0.00030097081
-2.4563296e-05
1.9561239e-12
-0.00029415172
-4.4043026e-05
2.294169e-12
-0.00028377413
-6.2991662e-05
2.5756573e-12
-0.00026995505
-8.0797349e-05
2.8065325e-12
-0.00025292054
-9.6820689e-05
2.9999551e-12
-0.00023301345
-0.00011042388
3.1560291e-12
-0.00021069601
-0.0001210063
3.2420892e-12
-0.00018654531
-0.00012804531
3.231067e-12
-0.00016124011
-0.00013113987
3.1603522e-12
-0.00013553785
-0.00013005383
3.1017557e-12
-0.00011024182
-0.00012475439
3.0940306e-12
-8.6160003e-05
-0.00011544155
3.1361183e-12
-6.4058382e-05
-0.00010256412
3.1172767e-12
-4.461304e-05
-8.6819965e-05
2.9621381e-12
-2.8366289e-05
-6.9140071e-05
3.3141626e-12
-1.5691957e-05
-5.0658402e-05
5.8234034e-12
-6.7747248e-06
-3.266699e-05
3.7063563e-12
-1.6069232e-06
-1.6561793e-05
-1.0557143e-11
-3.8433747e-06
1.5483789e-11
-3.28121e-06
1.4411855e-05
-2.7549201e-11
-1.1914123e-05
4.1248134e-05
2.6441611e-11
-2.4851916e-05
6.5152574e-05
-3.2275733e-12
-4.1194039e-05
8.5674333e-05
-8.255698e-12
-6.0167843e-05
0.00010267212
-3.7213242e-12
-8.1110998e-05
0.00011618012
-3.2883051e-12
-0.00010345216
0.0001263394
-3.6385931e-12
-0.00012669182
0.00013334178
-3.4804116e-12
-0.00015038471
0.00013738561
-3.2204423e-12
-0.00017412442
0.00013864701
-2.982855e-12
-0.0001975306
0.00013726511
-2.7321757e-12
-0.00022023892
0.00013333921
-2.4474161e-12
-0.00024189395
0.00012693533
-2.1257878e-12
-0.00026214484
0.00011809949
-1.7750682e-12
-0.00028064376
0.00010687503
-1.3946376e-12
-0.00029704665
9.3321842e-05
-9.7762961e-13
-0.00031101642
7.7535354e-05
-5.2563734e-13
-0.0003222281
5.9664067e-05
-4.7329702e-14
-0.00033037603
3.9924549e-05
4.471109e-13
-0.00033518305
1.8613199e-05
9.3095723e-13
-0.00033641184
-3.8856834e-06
1.37377e-12
-0.00033387743
-2.7097708e-05
1.8466349e-12
-0.00032746299
-5.0457459e-05
2.2624835e-12
-0.00031713556
-7.331909e-05
2.6053642e-12
-0.00030296294
-9.4969973e-05
2.8677276e-12
-0.00028512968
-0.00011465394
3.0668034e-12
-0.00026395048
-0.00013160308
3.23869e-12
-0.00023987855
-0.00014507824
3.3813501e-12
-0.0002135065
-0.00015441736
3.4341124e-12
-0.00018555723
-0.00015908914
3.3627346e-12
-0.0001568628
-0.00015874827
3.2322375e-12
-0.00012833053
-0.00015328667
3.1510015e-12
-0.00010089747
-0.00014287461
3.1896049e-12
-7.5476151e-05
-0.00012798545
3.1961953e-12
-5.2896788e-05
-0.00010939933
2.9425347e-12
-3.3852375e-05
-8.8184494e-05
3.2441663e-12
-1.8853288e-05
-6.5657498e-05
6.2886712e-12
-8.1976261e-06
-4.3322656e-05
3.7090403e-12
-1.9610158e-06
-2.2798394e-05
-1.3753279e-11
-5.8044084e-06
1.817422e-11
-3.6017723e-06
1.8013657e-05
-3.0027641e-11
-1.304299e-05
5.0689321e-05
2.9390317e-11
-2.714543e-05
7.9255021e-05
-3.1853899e-12
-4.4900884e-05
0.0001034298
-8.7329547e-12
-6.5452486e-05
0.00012322373
-3.7853354e-12
-8.807529e-05
0.00013880292
-3.3404136e-12
-0.00011215384
0.00015041796
-3.7649769e-12
-0.00013715943
0.00015834737
-3.6422486e-12
-0.00016262892
0.00016285511
-3.4144901e-12
-0.00018814611
0.00016416421
-3.2115362e-12
-0.00021332614
0.00016244514
-2.9922117e-12
-0.00023780307
0.00015781614
-2.7391359e-12
-0.00026122074
0.00015035301
-2.445034e-12
-0.00028322674
0.00014010549
-2.1127614e-12
-0.00030346914
0.00012711743
-1.7409424e-12
-0.00032159572
0.00011144842
-1.3234535e-12
-0.0003372556
9.3195238e-05
-8.6040488e-13
-0.000350103
7.251147e-05
-3.6231247e-13
-0.00035980324
4.9624793e-05
1.5663128e-13
-0.00036604107
2.4851038e-05
6.6108367e-13
-0.00036853218
-1.3945786e-06
1.1005744e-12
-0.00036703548
-2.8594411e-05
1.6578583e-12
-0.00036137176
-5.6121173e-05
2.1532463e-12
-0.00035144156
-8.3249291e-05
2.59393e-12
-0.0003372467
-0.00010916483
2.9550057e-12
-0.00031891196
-0.00013298869
3.2119224e-12
-0.00029670523
-0.00015380983
3.383233e-12
-0.00027105338
-0.0001707301
3.5118253e-12
-0.00024255053
-0.00018292021
3.5938544e-12
-0.00021195505
-0.00018968461
3.573431e-12
-0.00018017227
-0.00019053104
3.446163e-12
-0.00014822084
-0.0001852381
3.3048822e-12
-0.00011718299
-0.00017391246
3.2833109e-12
-8.8141679e-05
-0.00015702677
3.2796644e-12
-6.2110305e-05
-0.00013543071
2.9292606e-12
-3.9963253e-05
-0.00011033155
3.2452518e-12
-2.2375814e-05
-8.3244944e-05
6.8521859e-12
-9.7819113e-06
-5.5916563e-05
3.7308219e-12
-2.3545112e-06
-3.0225779e-05
-1.7273213e-11
-8.1589403e-06
2.1171142e-11
-3.8864942e-06
2.1900181e-05
-3.2268377e-11
-1.4046691e-05
6.0849485e-05
3.197685e-11
-2.9188028e-05
9.4396364e-05
-3.188148e-12
-4.8208726e-05
0.00012245051
-9.201697e-12
-7.0178486e-05
0.00014519349
-3.8874266e-12
-9.4317704e-05
0.00016294214
-3.43188e-12
-0.00011997277
0.00017607303
-3.9244912e-12
-0.00014659056
0.00018496517
-3.8354616e-12
-0.00017369435
0.00018995891
-3.6388759e-12
-0.00020086245
0.00019133232
-3.4699682e-12
-0.00022770999
0.00018929268
-3.2825476e-12
-0.00025387425
0.0001839804
-3.0638081e-12
-0.00027900344
0.0001754822
-2.8034352e-12
-0.00030274865
0.00016385071
-2.4978925e-12
-0.00032475871
0.00014912749
-2.1434258e-12
-0.00034467754
0.00013136725
-1.7341586e-12
-0.00036214384
0.00011066155
-1.2687652e-12
-0.00037679316
8.7160791e-05
-7.5616025e-13
-0.00038826223
6.1093869e-05
-2.0942386e-13
-0.00039619623
3.2785037e-05
3.6243733e-13
-0.00040025883
2.6680148e-06
9.5831845e-13
-0.00040014715
-2.8706093e-05
1.4514165e-12
-0.00039560847
-6.0659847e-05
1.9608444e-12
-0.00038646325
-9.2394518e-05
2.4596203e-12
-0.00037263029
-0.00012299779
2.9138265e-12
-0.00035415471
-0.00015146428
3.2825281e-12
-0.00033123588
-0.00017672867
3.5327849e-12
-0.00030425249
-0.0001977135
3.6760084e-12
-0.00027378041
-0.00021339229
3.7504554e-12
-0.00024059863
-0.00022286639
3.7521966e-12
-0.00020567849
-0.00022545117
3.6553558e-12
-0.00017015265
-0.00022076394
3.496004e-12
-0.00013526231
-0.0002088028
3.4075825e-12
-0.00010228515
-0.00019000394
3.344456e-12
-7.2450159e-05
-0.00016526569
2.8631894e-12
-4.6849568e-05
-0.00013593214
3.2167927e-12
-2.635927e-05
-0.00010373525
7.4959389e-12
-1.1579522e-05
-7.0696315e-05
3.7636452e-12
-2.8030918e-06
-3.9002188e-05
-2.1263856e-11
-1.0962055e-05
2.4600576e-11
-4.1315506e-06
2.6031764e-05
-3.4233489e-11
-1.4912095e-05
7.1629995e-05
3.416579e-11
-3.0953047e-05
0.00011043732
-3.2419575e-12
-5.1074033e-05
0.0001425715
-9.6603508e-12
-7.4282815e-05
0.00016840228
-4.030823e-12
-9.9753656e-05
0.00018841299
-3.568494e-12
-0.00012680114
0.00020312052
-4.1239571e-12
-0.00015485268
0.00021301672
-4.0691932e-12
-0.00018342234
0.00021852856
-3.9056277e-12
-0.00021208706
0.00021999705
-3.7707721e-12
-0.00024046636
0.00021767199
-3.6121254e-12
-0.00026820544
0.00021171948
-3.4225758e-12
-0.00029496188
0.00020223865
-3.1924596e-12
-0.00032039556
0.00018928439
-2.9144094e-12
-0.00034416137
0.0001728933
-2.5836397e-12
-0.00036590448
0.00015311036
-2.1948244e-12
-0.00038525789
0.00013001496
-1.7445133e-12
-0.00040184228
0.00010374519
-1.2380777e-12
-0.00041526847
7.4520055e-05
-6.8178503e-13
-0.00042514288
4.2659447e-05
-7.0973402e-14
-0.00043107647
8.6016048e-06
5.9845982e-13
-0.00043269943
-2.7083133e-05
1.1589962e-12
-0.00042967838
-6.3680894e-05
1.742091e-12
-0.00042174171
-0.00010033119
2.3124842e-12
-0.00040870886
-0.00013603064
2.8385969e-12
-0.00039052442
-0.00016964872
3.2925458e-12
-0.00036729472
-0.00019995837
3.6311101e-12
-0.00033932346
-0.00022568477
3.8222157e-12
-0.0003071417
-0.00024557406
3.8892233e-12
-0.00027152602
-0.00025848208
3.8748326e-12
-0.00023349817
-0.00026347902
3.7872683e-12
-0.00019430016
-0.00025996195
3.6296324e-12
-0.00015534107
-0.00024776189
3.4966086e-12
-0.00011811626
-0.00022722875
3.3570374e-12
-8.4105403e-05
-0.00019927655
2.7236394e-12
-5.466129e-05
-0.00016537626
3.1215669e-12
-3.0904959e-05
-0.00012749159
8.2134838e-12
-1.3643639e-05
-8.7957641e-05
3.8101017e-12
-3.3227312e-06
-4.9323069e-05
-2.5854755e-11
-1.4284813e-05
2.8575938e-11
-4.3328942e-06
3.0364693e-05
-3.5885346e-11
-1.5625817e-05
8.2922884e-05
3.5915414e-11
-3.2413882e-05
0.00012722539
-3.3506796e-12
-5.3453782e-05
0.00016361141
-1.0102991e-11
-7.7703147e-05
0.00019265165
-4.2163928e-12
-0.00010429874
0.00021500858
-3.7535637e-12
-0.00013252964
0.00023135142
-4.3669757e-12
-0.00016180867
0.00024229576
-4.3458093e-12
-0.00019164472
0.00024836462
-4.2147557e-12
-0.00022161735
0.00024996968
-4.1121543e-12
-0.00025135453
0.00024740917
-3.9795368e-12
-0.0002805139
0.00024087886
-3.8144777e-12
-0.00030876743
0.00023049218
-3.6093488e-12
-0.00033578923
0.0002163062
-3.3537939e-12
-0.00036124616
0.00019835024
-3.0430799e-12
-0.00038479078
0.00017665498
-2.6729808e-12
-0.00040605653
0.00015128071
-2.2394725e-12
-0.0004246552
0.00012234386
-1.7485733e-12
-0.000440177
9.004186e-05
-1.2045232e-12
-0.00045219382
5.4676273e-05
-6.0061663e-13
-0.00046026651
1.6674293e-05
6.6148704e-14
-0.00046395763
-2.3392016e-05
7.3165773e-13
-0.0004628494
-6.4789133e-05
1.4243874e-12
-0.00045656944
-0.00010661114
2.1061146e-12
-0.00044482351
-0.00014777657
2.7319048e-12
-0.00042743522
-0.00018703701
3.2705021e-12
-0.00040439126
-0.00022300233
3.6929998e-12
-0.00037588888
-0.00025418716
3.95871e-12
-0.00034238033
-0.00027908262
4.0529269e-12
-0.00030460708
-0.00029625534
4.0133337e-12
-0.00026361473
-0.00030447139
3.8915495e-12
-0.00022073947
-0.00030283721
3.7154096e-12
-0.00017755898
-0.00029094238
3.5513744e-12
-0.00013580528
-0.00026898246
3.3376069e-12
-9.7244918e-05
-0.00023783691
2.5398493e-12
-6.3540216e-05
-0.00019908096
2.9887156e-12
-3.6112035e-05
-0.00015491978
9.0443162e-12
-1.6027364e-05
-0.00010804232
3.8884868e-12
-3.9295368e-06
-6.1420863e-05
-3.1167343e-11
-1.8214379e-05
3.3211727e-11
-4.4866873e-06
3.4851418e-05
-3.7212535e-11
-1.6175432e-05
9.4611592e-05
3.7182179e-11
-3.3546043e-05
0.00014459601
-3.5202106e-12
-5.5308308e-05
0.00018537369
-1.0530825e-11
-8.0381453e-05
0.0002177248
-4.4537217e-12
-0.00010787307
0.0002425002
-3.9976583e-12
-0.00013705264
0.00026053101
-4.6618315e-12
-0.00016732282
0.00027256594
-4.6685775e-12
-0.00019819101
0.00027923281
-4.5621052e-12
-0.00022924284
0.00028102152
-4.4838798e-12
-0.00026011852
0.00027828486
-4.3744155e-12
-0.00029049236
0.00027125271
-4.2341861e-12
-0.00032005563
0.00026005546
-4.0562797e-12
-0.00034850236
0.00024475294
-3.8254522e-12
-0.00037551778
0.00022536566
-3.5356539e-12
-0.00040076897
0.00020190618
-3.1809538e-12
-0.00042389761
0.00017440935
-2.7541474e-12
-0.0004445148
0.00014296105
-2.2649248e-12
-0.00046219845
0.00010772552
-1.7303399e-12
-0.00047649385
6.8971674e-05
-1.1514323e-12
-0.00048691833
2.7098774e-05
-5.129225e-13
-0.00049297155
-1.7338801e-05
1.8853679e-13
-0.00049415222
-6.3608459e-05
9.6317186e-13
-0.00048998332
-0.00011078005
1.7722192e-12
-0.00048004638
-0.0001577135
2.539347e-12
-0.00046402569
-0.00020305769
3.1950712e-12
-0.00044176143
-0.00024526659
3.7084283e-12
-0.00041330935
-0.00028263924
4.0618923e-12
-0.00037900175
-0.00031339021
4.2302406e-12
-0.0003395016
-0.00033575551
4.2093615e-12
-0.00029583847
-0.00034813452
4.0443787e-12
-0.00024941362
-0.00034926207
3.814405e-12
-0.00020196174
-0.00033839426
3.6059774e-12
-0.00015546255
-0.00031548166
3.3116908e-12
-0.00011200408
-0.00028129538
2.3296832e-12
-7.361249e-05
-0.00023747255
2.8386098e-12
-4.2074095e-05
-0.00018645818
1.002592e-11
-1.8782679e-05
-0.00013133374
4.0097098e-12
-4.6396737e-06
-7.5563829e-05
-3.7325536e-11
-2.2854087e-05
3.8632885e-11
-4.5897885e-06
3.9441245e-05
-3.8202253e-11
-1.6550941e-05
0.00010657271
3.7942334e-11
-3.4329781e-05
0.00016237486
-3.7448417e-12
-5.6605099e-05
0.00020764902
-1.0936375e-11
-8.2268919e-05
0.00024338862
-4.7416353e-12
-0.0001104073
0.00027063859
-4.2994915e-12
-0.00014027537
0.00029039908
-5.0059039e-12
-0.00017126933
0.00030355992
-5.0334264e-12
-0.00020289819
0.00031086167
-4.9403071e-12
-0.00023475662
0.00031287996
-4.8727834e-12
-0.00026650035
0.00031002859
-4.7765793e-12
-0.00029782428
0.00030257664
-4.6548549e-12
-0.00032844374
0.00029067492
-4.5011914e-12
-0.00035807842
0.00027438763
-4.2960819e-12
-0.00038643878
0.00025372603
-4.0334758e-12
-0.00041321448
0.00022868188
-3.7029739e-12
-0.00043806463
0.00019925951
-3.284389e-12
-0.00046061005
0.00016550647
-2.7790792e-12
-0.00048042763
0.0001275431
-2.2186796e-12
-0.00049704775
8.5591803e-05
-1.6327044e-12
-0.00050995565
4.000668e-05
-1.0188608e-12
-0.00051859818
-8.6962674e-06
-3.4241318e-13
-0.00052239766
-5.9808992e-05
4.31142e-13
-0.00052077463
-0.00011240308
1.3030239e-12
-0.00051318177
-0.00016530637
2.1959334e-12
-0.00049915016
-0.0002170893
2.9965965e-12
-0.00047834872
-0.00026606802
3.6311255e-12
-0.00045065536
-0.00031033259
4.0854403e-12
-0.0004162355
-0.00034781008
4.3525288e-12
-0.00037561957
-0.00037637145
4.4041865e-12
-0.00032976641
-0.00039398768
4.2356138e-12
-0.00028009562
-0.00039893287
3.9448021e-12
-0.00022847023
-0.00039001965
3.6707278e-12
-0.00017711551
-0.00036683638
3.2710693e-12
-0.00012846978
-0.00032994111
2.0634093e-12
-8.4980269e-05
-0.00028096207
2.6416446e-12
-4.8875513e-05
-0.00022256295
1.1163708e-11
-2.1959383e-05
-0.00015824987
4.1681446e-12
-5.4693045e-06
-9.205386e-05
-4.4458346e-11
-2.8323433e-05
4.497803e-11
-4.6402833e-06
4.4081566e-05
-3.8832993e-11
-1.674644e-05
0.00011867883
3.8195759e-11
-3.4753143e-05
0.00018038157
-4.0109161e-12
-5.732331e-05
0.0002302192
-1.1303839e-11
-8.333189e-05
0.00026939721
-5.0635954e-12
-0.00011184999
0.00029915669
-4.6413122e-12
-0.00014212264
0.00032067173
-5.3807606e-12
-0.00017354256
0.00033497985
-5.4252935e-12
-0.00020562273
0.00034294184
-5.3418217e-12
-0.0002379693
0.00034522653
-5.2778116e-12
-0.00027025631
0.00034231561
-5.1839127e-12
-0.00030220282
0.00033452316
-5.0641163e-12
-0.00033355271
0.00032202482
-4.9131172e-12
-0.00036405705
0.00030489197
-4.7118664e-12
-0.00039345862
0.0002831276
-4.4629351e-12
-0.00042147831
0.00025670157
-4.1602301e-12
-0.00044780312
0.00022558432
-3.771315e-12
-0.00047207572
0.00018977907
-3.2724147e-12
-0.00049388589
0.00014935328
-2.6838901e-12
-0.00051276445
0.00010447037
-2.05306e-12
-0.00052818059
5.5422828e-05
-1.4108755e-12
-0.00053954416
2.6673107e-06
-7.4005663e-13
-0.00054621496
-5.3138193e-05
-8.9318215e-15
-0.00054752101
-0.00011109704
8.3949439e-13
-0.00054278918
-0.0001700382
1.7729507e-12
-0.0005313907
-0.00022848779
2.6811659e-12
-0.00051280383
-0.0002846549
3.4470154e-12
-0.00048669426
-0.00033644216
4.020606e-12
-0.0004530107
-0.00038149363
4.3947928e-12
-0.00041208813
-0.00041729403
4.5401384e-12
-0.0003647446
-0.00044133122
4.4074539e-12
-0.00031235092
-0.00045132655
4.0724414e-12
-0.00025684741
-0.00044552316
3.7216973e-12
-0.00020068307
-0.00042300072
3.1863947e-12
-0.00014666307
-0.00038396111
1.6940943e-12
-9.7711882e-05
-0.00032991326
2.3473258e-12
-5.6587036e-05
-0.00026368781
1.2445496e-11
-2.5603785e-05
-0.00018923313
4.3514563e-12