/*--------------------------------*- C++ -*----------------------------------*\
  =========                 |
  \\      /  F ield         | OpenFOAM: The Open Source CFD Toolbox
   \\    /   O peration     | Website:  https://openfoam.org
    \\  /    A nd           | Version:  7
     \\/     M anipulation  |
\*---------------------------------------------------------------------------*/
FoamFile
{
    version     2.0;
    format      ascii;
    class       volVectorField;
    location    "18";
    object      U;
}
// * * * * * * * * * * * * * * * * * * * * * * * * * * * * * * * * * * * * * //

dimensions      [0 1 -1 0 0 0 0];

internalField   nonuniform List<vector> 
16000
(
(6.6036706e-05 -6.7320116e-05 -4.0549254e-07)
(0.00016272864 -5.6342354e-05 5.6975062e-06)
(0.0001418849 4.7021043e-07 1.9196185e-05)
(-5.064983e-05 6.1889837e-05 3.6615538e-05)
(-0.00040997431 0.00011562268 5.4720037e-05)
(-0.00090897874 0.00015772953 7.1544393e-05)
(-0.0015175993 0.00018848598 8.5752735e-05)
(-0.0022066977 0.000209587 9.6529806e-05)
(-0.0029503284 0.0002228524 0.00010341525)
(-0.0037261017 0.0002297853 0.00010616234)
(-0.0045145944 0.00023145072 0.00010464411)
(-0.0052984637 0.00022847766 9.8797612e-05)
(-0.0060615527 0.00022112162 8.8597923e-05)
(-0.0067881377 0.00020935826 7.4055301e-05)
(-0.0074624108 0.0001929906 5.5228378e-05)
(-0.0080682422 0.00017176001 3.2247364e-05)
(-0.0085892364 0.00014545446 5.3421755e-06)
(-0.0090090717 0.00011400893 -2.5129184e-05)
(-0.0093120951 7.7593491e-05 -5.8656568e-05)
(-0.0094841298 3.6685314e-05 -9.4561991e-05)
(-0.0095134376 -7.8821475e-06 -0.00013199563)
(-0.0093917477 -5.4913295e-05 -0.00016994639)
(-0.0091152913 -0.00010282647 -0.00020726816)
(-0.0086857388 -0.00014972681 -0.00024272361)
(-0.0081109152 -0.00019348475 -0.00027504349)
(-0.00740522 -0.000231855 -0.00030299936)
(-0.0065896559 -0.00026262682 -0.00032548489)
(-0.005691405 -0.00028379205 -0.00034159996)
(-0.0047429264 -0.00029371435 -0.00035073)
(-0.003780594 -0.00029128114 -0.00035261329)
(-0.0028429403 -0.00027602015 -0.00034738955)
(-0.0019686157 -0.00024816662 -0.00033562546)
(-0.0011941749 -0.00020868091 -0.0003183163)
(-0.00055174183 -0.00015925272 -0.00029686667)
(-6.660449e-05 -0.00010240817 -0.00027304582)
(0.00024481839 -4.1764434e-05 -0.00024891129)
(0.00037884676 1.7838588e-05 -0.0002268448)
(0.00034971054 6.7070126e-05 -0.00020928233)
(0.00020614322 8.9863019e-05 -0.00019889563)
(5.7452788e-05 5.7415603e-05 -0.00018444807)
(5.7991071e-05 -0.00016699217 -6.6324706e-06)
(4.0856856e-05 -3.9926094e-05 -3.7736455e-07)
(-0.00029498553 0.00024856473 1.1254298e-05)
(-0.0010109743 0.00056208219 2.5617073e-05)
(-0.0020990676 0.00084741596 4.0598372e-05)
(-0.003513771 0.0010830069 5.4602886e-05)
(-0.0051941754 0.0012641613 6.6503302e-05)
(-0.0070758964 0.0013939084 7.5547253e-05)
(-0.0090971742 0.0014777881 8.1253026e-05)
(-0.011201074 0.0015213469 8.3321252e-05)
(-0.013335542 0.0015290284 8.1568899e-05)
(-0.015452427 0.0015037953 7.5886005e-05)
(-0.017506149 0.0014471836 6.621393e-05)
(-0.019452482 0.0013596153 5.2541581e-05)
(-0.02124771 0.001240855 3.4914906e-05)
(-0.022848345 0.0010905323 1.3455064e-05)
(-0.024211445 0.00090867429 -1.1618852e-05)
(-0.025295541 0.00069620517 -3.9966625e-05)
(-0.026062099 0.00045537809 -7.11073e-05)
(-0.026477424 0.00019010793 -0.00010440646)
(-0.026514877 -9.3824882e-05 -0.00013907326)
(-0.026157139 -0.00038869579 -0.00017417629)
(-0.025398463 -0.00068497322 -0.00020865999)
(-0.024246654 -0.00097160765 -0.00024139231)
(-0.022724469 -0.0012365137 -0.00027121801)
(-0.020870336 -0.0014672258 -0.00029702589)
(-0.018738193 -0.0016516885 -0.00031782397)
(-0.016396303 -0.0017791277 -0.00033281661)
(-0.013925017 -0.0018409275 -0.00034147656)
(-0.0114135 -0.0018314321 -0.0003436049)
(-0.0089555485 -0.0017485974 -0.00033937233)
(-0.0066446905 -0.001594438 -0.0003293374)
(-0.0045687769 -0.0013752749 -0.00031443995)
(-0.002804249 -0.001101891 -0.00029597103)
(-0.0014101343 -0.00078989131 -0.00027552189)
(-0.00042178159 -0.0004606027 -0.00025490654)
(0.00015563412 -0.00014260506 -0.00023603891)
(0.00035662656 0.00012226238 -0.0002209359)
(0.00027519026 0.00027109644 -0.00021169988)
(9.0091316e-05 0.00020508487 -0.00019551128)
(1.9118165e-06 -0.00014891051 -2.0416177e-05)
(-0.00025604168 0.00029703814 -1.179764e-05)
(-0.0010503718 0.001023556 9.8356187e-08)
(-0.0023876044 0.0017973694 1.3075453e-05)
(-0.0042390091 0.0025096361 2.6108416e-05)
(-0.0065448532 0.0031097055 3.8056556e-05)
(-0.0092240886 0.0035805069 4.8092842e-05)
(-0.012188598 0.0039229652 5.5656656e-05)
(-0.015351193 0.0041456849 6.036646e-05)
(-0.018628851 0.0042590734 6.1965859e-05)
(-0.021943461 0.0042722943 6.0282236e-05)
(-0.025221232 0.0041919648 5.5197776e-05)
(-0.028391509 0.0040219822 4.6635805e-05)
(-0.031385617 0.0037640724 3.4560845e-05)
(-0.034136124 0.0034187681 1.8988908e-05)
(-0.03657677 0.0029866 4.5882575e-09)
(-0.038643158 0.0024693414 -2.2218124e-05)
(-0.040274196 0.0018711813 -4.7394551e-05)
(-0.041414221 0.0011997269 -7.5110902e-05)
(-0.04201566 0.00046675165 -0.00010481207)
(-0.042041996 -0.00031137209 -0.00013580014)
(-0.04147085 -0.0011135785 -0.00016724011)
(-0.040296922 -0.0019145428 -0.00019818519)
(-0.038534459 -0.0026854378 -0.00022761266)
(-0.036219016 -0.0033951768 -0.0002544747)
(-0.033408254 -0.0040120474 -0.00027776092)
(-0.030181545 -0.004505651 -0.0002965686)
(-0.026638224 -0.004849025 -0.00031017486)
(-0.022894425 -0.0050207869 -0.0003181038)
(-0.019078512 -0.0050071217 -0.00032018155)
(-0.015325237 -0.0048034468 -0.00031657256)
(-0.011768847 -0.004415641 -0.0003077924)
(-0.0085354219 -0.0038608273 -0.00029469487)
(-0.0057347119 -0.0031678696 -0.00027843426)
(-0.0034517077 -0.0023779844 -0.00026040567)
(-0.0017380806 -0.0015461592 -0.00024216448)
(-0.00060380765 -0.00074424903 -0.00022531898)
(-8.1287707e-06 -6.648067e-05 -0.00021146011)
(0.00015534743 0.00036027785 -0.00020227734)
(7.3527016e-05 0.00035432032 -0.00018535904)
(-6.4681644e-05 5.0460374e-05 -3.8665914e-05)
(-0.00060832489 0.0010457046 -2.612831e-05)
(-0.0019303335 0.0023815187 -1.2149504e-05)
(-0.0039459924 0.0037561196 1.1405339e-06)
(-0.006588244 0.0050147423 1.3725715e-05)
(-0.0097780292 0.0060793432 2.4846719e-05)
(-0.013415496 0.0069196838 3.3966299e-05)
(-0.017393392 0.0075331896 4.0749274e-05)
(-0.021605065 0.0079304178 4.4959872e-05)
(-0.025947474 0.0081260355 4.6426545e-05)
(-0.030322078 0.0081337642 4.5018749e-05)
(-0.034634491 0.0079640236 4.0630046e-05)
(-0.038793548 0.0076234478 3.3172994e-05)
(-0.042710401 0.0071156567 2.2585038e-05)
(-0.046298054 0.0064428029 8.8424995e-06)
(-0.049471621 0.0056075183 -8.0199843e-06)
(-0.052149404 0.0046149703 -2.7886925e-05)
(-0.054254779 0.0034748 -5.0539064e-05)
(-0.055718811 0.0022027605 -7.5633146e-05)
(-0.056483417 0.00082191657 -0.00010268777)
(-0.056504821 -0.00063670677 -0.00013107837)
(-0.055757129 -0.0021341389 -0.00016004009)
(-0.054235655 -0.003624173 -0.00018869111)
(-0.051959695 -0.0050548126 -0.00021606469)
(-0.048974508 -0.0063704447 -0.00024115819)
(-0.045352182 -0.0075146625 -0.0002629944)
(-0.041191138 -0.0084336027 -0.00028069121)
(-0.036614078 -0.0090795985 -0.00029353388)
(-0.031764288 -0.0094148935 -0.00030104286)
(-0.026800248 -0.0094151296 -0.0003030289)
(-0.021888695 -0.009072336 -0.00029962831)
(-0.01719634 -0.0083972115 -0.00029131306)
(-0.012880577 -0.0074206342 -0.00027887337)
(-0.0090795878 -0.0061945444 -0.00026337329)
(-0.0059022747 -0.0047926377 -0.00024608214)
(-0.0034184655 -0.0033116936 -0.00022838996)
(-0.0016495884 -0.0018745544 -0.00021172273)
(-0.00055986434 -0.00063483818 -0.00019747231)
(-5.0158598e-05 0.00021483342 -0.0001868705)
(3.807525e-05 0.00041373936 -0.00016805903)
(-0.00013085232 0.00044555519 -5.817982e-05)
(-0.00097083669 0.00224249 -4.111662e-05)
(-0.0028458631 0.0043587199 -2.4236826e-05)
(-0.0055641141 0.0064564696 -9.8072333e-06)
(-0.0090082936 0.0083524728 3.1082259e-06)
(-0.01307378 0.0099502296 1.4084861e-05)
(-0.017639999 0.011210354 2.2859781e-05)
(-0.022581755 0.012128066 2.9328316e-05)
(-0.027776032 0.012715932 3.3413408e-05)
(-0.033103827 0.012992523 3.504245e-05)
(-0.038450531 0.012975753 3.4138336e-05)
(-0.043705509 0.012679654 3.061253e-05)
(-0.048761284 0.01211366 2.4367836e-05)
(-0.053512836 0.011283649 1.5310549e-05)
(-0.057857411 0.01019409 3.3693715e-06)
(-0.061695096 0.0088507761 -1.1481055e-05)
(-0.064930215 0.007263713 -2.9193951e-05)
(-0.067473569 0.0054498318 -4.9623909e-05)
(-0.069245379 0.0034352644 -7.250298e-05)
(-0.07017877 0.0012569756 -9.74224e-05)
(-0.070223558 -0.0010364114 -0.00012382295)
(-0.069350104 -0.0033847336 -0.00015099644)
(-0.067552916 -0.0057173693 -0.0001781023)
(-0.06485372 -0.0079554039 -0.00020419916)
(-0.061303679 -0.010014805 -0.00022829258)
(-0.056984471 -0.011810527 -0.00024939668)
(-0.05200794 -0.013261369 -0.00026660571)
(-0.046514059 -0.01429533 -0.00027916965)
(-0.040667068 -0.014855098 -0.00028656578)
(-0.03464969 -0.014903295 -0.00028855747)
(-0.02865549 -0.014427057 -0.00028523151)
(-0.022879608 -0.01344162 -0.00027700828)
(-0.017508218 -0.011992724 -0.00026462187)
(-0.012707239 -0.010157891 -0.00024907003)
(-0.0086109951 -0.0080469568 -0.00023153686)
(-0.0053115355 -0.0058026814 -0.00021330249)
(-0.0028484636 -0.0036024184 -0.00019568123)
(-0.0012000508 -0.0016606494 -0.00017993865)
(-0.00028883275 -0.00023396117 -0.00016679484)
(-2.4797336e-06 0.00035035162 -0.00014555702)
(-0.00019284088 0.0010312236 -7.6657319e-05)
(-0.0013238131 0.0038921176 -5.4756024e-05)
(-0.0037513576 0.0069671877 -3.4554137e-05)
(-0.0071723387 0.0099096136 -1.8463539e-05)
(-0.011413274 0.012525838 -4.671044e-06)
(-0.016339287 0.014712648 6.6882272e-06)
(-0.021806693 0.016428418 1.5601447e-05)
(-0.027672175 0.017669775 2.2183324e-05)
(-0.033797893 0.018452912 2.6512343e-05)
(-0.040051539 0.018800848 2.861539e-05)
(-0.046305737 0.018735744 2.8469897e-05)
(-0.052437203 0.018275161 2.6004857e-05)
(-0.058325792 0.017431334 2.1110462e-05)
(-0.063853861 0.016212592 1.3656396e-05)
(-0.068906236 0.014626172 3.5162086e-06)
(-0.073370989 0.012681759 -9.4041112e-06)
(-0.077141053 0.010395206 -2.5135057e-05)
(-0.080116666 0.0077920176 -4.3612191e-05)
(-0.082208506 0.0049102376 -6.4647093e-05)
(-0.083341363 0.001802503 -8.7903712e-05)
(-0.08345813 -0.0014629542 -0.00011288337)
(-0.082523863 -0.004802502 -0.0001389222)
(-0.080529669 -0.0081185726 -0.00016520289)
(-0.077496132 -0.011302504 -0.00019078459)
(-0.073475936 -0.014238698 -0.00021464975)
(-0.068555416 -0.016810025 -0.00023576709)
(-0.062854657 -0.018904263 -0.00025316693)
(-0.056525859 -0.020421274 -0.00026602245)
(-0.049749696 -0.021280489 -0.00027372816)
(-0.042729493 -0.021428164 -0.00027596542)
(-0.035683225 -0.020843873 -0.00027274558)
(-0.028833504 -0.019545698 -0.00026442349)
(-0.022395941 -0.017593746 -0.00025167813)
(-0.016566548 -0.015091892 -0.0002354592)
(-0.011509099 -0.012187968 -0.00021690207)
(-0.0073434678 -0.0090731517 -0.00019723124)
(-0.0041343408 -0.0059814722 -0.00017772158)
(-0.001881542 -0.0031890722 -0.00015960857)
(-0.00053619032 -0.0010144791 -0.00014321687)
(-4.1249433e-05 0.00015882899 -0.00011912047)
(-0.000250082 0.0017983836 -9.2141189e-05)
(-0.0016595408 0.0059834374 -6.5254298e-05)
(-0.0046238095 0.01019736 -4.1571224e-05)
(-0.0087309512 0.014105238 -2.3519493e-05)
(-0.013749694 0.017520094 -8.4844434e-06)
(-0.019512382 0.0203445 3.6509991e-06)
(-0.025850593 0.022543023 1.30987e-05)
(-0.03260256 0.02411891 2.0174717e-05)
(-0.039616517 0.025094912 2.510123e-05)
(-0.046748734 0.025499962 2.7996676e-05)
(-0.053861635 0.025361072 2.888689e-05)
(-0.060822239 0.024699517 2.7712605e-05)
(-0.06750085 0.023530363 2.4345095e-05)
(-0.073770276 0.021864449 1.8610203e-05)
(-0.079505782 0.019711942 1.0318196e-05)
(-0.084585911 0.017086722 -7.0225643e-07)
(-0.088894165 0.014010932 -1.4567482e-05)
(-0.092321499 0.010519222 -3.1301592e-05)
(-0.094769516 0.0066622422 -5.0801292e-05)
(-0.096154202 0.0025091343 -7.2805838e-05)
(-0.096410038 -0.0018512476 -9.6875735e-05)
(-0.095494266 -0.0063105422 -0.00012238481)
(-0.093391122 -0.010742618 -0.00014852666)
(-0.090115742 -0.015006984 -0.00017434199)
(-0.085717447 -0.018953834 -0.00019876428)
(-0.080282055 -0.022430681 -0.0002206845)
(-0.073932837 -0.025290398 -0.00023903121)
(-0.066829682 -0.027400323 -0.00025285936)
(-0.059166103 -0.028651948 -0.00026143838)
(-0.05116376 -0.028970527 -0.00026432809)
(-0.043064378 -0.028323875 -0.00026143155)
(-0.035119153 -0.026729572 -0.00025301627)
(-0.027576047 -0.024259952 -0.00023969916)
(-0.020665712 -0.021044481 -0.00022239317)
(-0.014587264 -0.017269568 -0.00020221652)
(-0.0094951624 -0.013176374 -0.00018038999)
(-0.0054861457 -0.009057509 -0.00015821802)
(-0.002587815 -0.0052521279 -0.00013698973)
(-0.00078443876 -0.0021406394 -0.00011670868)
(-7.687375e-05 -0.00016065202 -8.9499614e-05)
(-0.00030291189 0.0027362079 -0.00010296235)
(-0.0019752126 0.0084970423 -7.0995467e-05)
(-0.0054513574 0.014026781 -4.3851352e-05)
(-0.010216515 0.019018925 -2.3709902e-05)
(-0.01598292 0.023308059 -7.2179676e-06)
(-0.022549638 0.026814705 5.9675558e-06)
(-0.029723058 0.029518603 1.6261239e-05)
(-0.037323078 0.031435732 2.4160771e-05)
(-0.045184841 0.03259925 3.0016111e-05)
(-0.053154745 0.033046218 3.4024381e-05)
(-0.061087132 0.032809636 3.6248988e-05)
(-0.068841828 0.031914961 3.663283e-05)
(-0.076282266 0.030380207 3.5019249e-05)
(-0.083274364 0.028218656 3.118128e-05)
(-0.08968628 0.025443272 2.4856671e-05)
(-0.095389095 0.022071956 1.5787185e-05)
(-0.10025838 0.018132954 3.7608911e-06)
(-0.1041766 0.01366984 -1.1344436e-05)
(-0.10703617 0.0087456594 -2.9519358e-05)
(-0.10874322 0.0034458904 -5.0585457e-05)
(-0.10922173 -0.0021200063 -7.4166646e-05)
(-0.10841801 -0.0078186689 -9.9674882e-05)
(-0.10630532 -0.013494649 -0.00012630948)
(-0.10288854 -0.018974201 -0.00015308102)
(-0.098208229 -0.024071022 -0.00017885456)
(-0.092344175 -0.028593987 -0.00020241555)
(-0.085417544 -0.032356736 -0.00022255499)
(-0.077591358 -0.03518881 -0.00023816712)
(-0.069068605 -0.03694778 -0.00024834962)
(-0.060087545 -0.037531616 -0.00025249395)
(-0.050913868 -0.036890305 -0.0002503528)
(-0.041829677 -0.035035666 -0.00024207437)
(-0.033119655 -0.032048335 -0.00022819654)
(-0.025055231 -0.028081173 -0.00020959777)
(-0.017878232 -0.023358812 -0.00018740298)
(-0.011785588 -0.018173731 -0.00016287544)
(-0.0069135731 -0.012879679 -0.00013741508)
(-0.0033236177 -0.0078819882 -0.00011244684)
(-0.0010368025 -0.0036261629 -8.774193e-05)
(-0.00011093101 -0.00060711263 -5.7298721e-05)
(-0.00035164036 0.0038333382 -0.00010765768)
(-0.0022693511 0.011408877 -7.0505796e-05)
(-0.0062265725 0.018424873 -4.0031851e-05)
(-0.011613078 0.024616701 -1.7784612e-05)
(-0.018087745 0.029853615 2.7604372e-07)
(-0.025417451 0.034085396 1.4701988e-05)
(-0.033384084 0.037315846 2.6092635e-05)
(-0.041789948 0.03958014 3.5108506e-05)
(-0.050458148 0.04092623 4.2210473e-05)
(-0.059226693 0.041402052 4.7659552e-05)
(-0.067943743 0.041048144 5.1543733e-05)
(-0.076464137 0.039894889 5.3796512e-05)
(-0.084646805 0.037963436 5.4222668e-05)
(-0.092353132 0.035269344 5.2532166e-05)
(-0.099446335 0.031827938 4.8379791e-05)
(-0.10579182 0.027660495 4.1409382e-05)
(-0.11125847 0.022800516 3.1301574e-05)
(-0.11572075 0.017299482 1.7823416e-05)
(-0.11906157 0.011231681 8.7744901e-07)
(-0.12117586 0.004697754 -1.9452911e-05)
(-0.12197472 -0.0021732877 -4.2866071e-05)
(-0.12139009 -0.0092238082 -6.8820598e-05)
(-0.11937992 -0.016269149 -9.6524585e-05)
(-0.11593354 -0.023101535 -0.00012495491)
(-0.11107701 -0.029496219 -0.00015289548)
(-0.10487802 -0.035220093 -0.00017900304)
(-0.09744985 -0.04004272 -0.00020189665)
(-0.088953559 -0.043749541 -0.00022026486)
(-0.07959782 -0.046156713 -0.00023298068)
(-0.069635508 -0.047126703 -0.00023921049)
(-0.059356533 -0.046583412 -0.00023850211)
(-0.049076634 -0.044525384 -0.0002308388)
(-0.039122385 -0.04103559 -0.00021664947)
(-0.029813235 -0.036286529 -0.00019676913)
(-0.021442385 -0.030539878 -0.00017234491)
(-0.014258375 -0.024140864 -0.00014472218)
(-0.0084454724 -0.017508104 -0.00011545938)
(-0.0041054526 -0.011118581 -8.6196727e-05)
(-0.0012999897 -0.0054895756 -5.6540395e-05)
(-0.0001446525 -0.0011817975 -2.2585278e-05)
(-0.00039633235 0.0050780061 -0.00010490825)
(-0.0025404298 0.014691525 -6.2432919e-05)
(-0.0069432053 0.023354848 -2.8830851e-05)
(-0.012907401 0.03085668 -4.5324756e-06)
(-0.020042831 0.037112411 1.5143994e-05)
(-0.028086407 0.042111351 3.0947782e-05)
(-0.036797114 0.045889801 4.3648864e-05)
(-0.045961002 0.048508578 5.405373e-05)
(-0.055390482 0.050035031 6.2718131e-05)
(-0.064916721 0.050531036 6.9952329e-05)
(-0.0743835 0.05004653 7.5855648e-05)
(-0.083642713 0.04861776 8.0340216e-05)
(-0.092550954 0.046269276 8.3161126e-05)
(-0.10096724 0.043018645 8.3954351e-05)
(-0.10875186 0.038882852 8.2280296e-05)
(-0.11576621 0.033885449 7.767226e-05)
(-0.12187364 0.028063721 6.9689119e-05)
(-0.12694112 0.021475257 5.797089e-05)
(-0.13084172 0.01420353 4.2295057e-05)
(-0.13345789 0.0063621566 2.2630783e-05)
(-0.13468557 -0.001902405 -8.1385882e-07)
(-0.13443895 -0.010409992 -2.7563251e-05)
(-0.13265618 -0.018947791 -5.6845801e-05)
(-0.12930574 -0.027273981 -8.7610793e-05)
(-0.124393 -0.035123888 -0.00011855658)
(-0.117967 -0.042219155 -0.00014819352)
(-0.11012652 -0.048280001 -0.00017493621)
(-0.10102463 -0.053040484 -0.00019722013)
(-0.090870836 -0.056266272 -0.00021363312)
(-0.079929627 -0.057773992 -0.00022304751)
(-0.068514606 -0.057450676 -0.0002247357)
(-0.056977496 -0.055271408 -0.00021845249)
(-0.045692059 -0.051313043 -0.00020447046)
(-0.035033717 -0.045762012 -0.00018355754)
(-0.025356881 -0.038914817 -0.00015688734)
(-0.016972325 -0.031170947 -0.00012591946)
(-0.010122323 -0.023018943 -9.2430711e-05)
(-0.0049569176 -0.015015456 -5.8355154e-05)
(-0.0015837918 -0.0077598795 -2.3186535e-05)
(-0.00017999218 -0.0018920041 1.4681068e-05)
(-0.00043680754 0.006457696 -9.3511835e-05)
(-0.002786446 0.018314418 -4.5538246e-05)
(-0.0075948144 0.028774429 -9.0580737e-06)
(-0.014086661 0.037689839 1.7192617e-05)
(-0.021827789 0.045032211 3.8493103e-05)
(-0.030528115 0.05083958 5.5781811e-05)
(-0.039925975 0.05518853 6.9987637e-05)
(-0.049792957 0.058171694 8.2048262e-05)
(-0.059932382 0.059880427 9.2600018e-05)
(-0.0701702 0.060393759 0.00010198919)
(-0.080347596 0.059773074 0.00011031435)
(-0.090315454 0.058061582 0.00011745517)
(-0.099930093 0.055287557 0.0001231065)
(-0.10905024 0.051470242 0.00012681953)
(-0.11753521 0.046627348 0.00012804837)
(-0.12524409 0.040783219 0.00012620184)
(-0.13203599 0.033976899 0.0001207002)
(-0.1377711 0.026269576 0.00011103625)
(-0.1423126 0.017750992 9.6838673e-05)
(-0.14552959 0.0085445744 7.7935656e-05)
(-0.14730094 -0.0011889378 5.4413671e-05)
(-0.14752013 -0.011249589 2.6650696e-05)
(-0.14610139 -0.021398647 -4.6231923e-06)
(-0.14298703 -0.031361158 -3.8348055e-05)
(-0.13815547 -0.040831768 -7.3143002e-05)
(-0.13163 -0.049483983 -0.00010736253)
(-0.12348736 -0.056983296 -0.00013918832)
(-0.11386527 -0.063004346 -0.00016675384)
(-0.10296758 -0.067251767 -0.00018829373)
(-0.091065692 -0.069483809 -0.00020230332)
(-0.078494718 -0.069537038 -0.00020768966)
(-0.065643465 -0.067349723 -0.00020389284)
(-0.052937604 -0.062981019 -0.00019095828)
(-0.040816693 -0.056622983 -0.0001695423)
(-0.029707239 -0.048603096 -0.00014083332)
(-0.019994603 -0.039376345 -0.00010642776)
(-0.01199121 -0.029507421 -6.8377214e-05)
(-0.0059055562 -0.019643145 -2.8989397e-05)
(-0.0018994451 -0.010478789 1.231573e-05)
(-0.00021909382 -0.0027504286 5.4656586e-05)
(-0.00047269139 0.0079587614 -7.2377886e-05)
(-0.0030048809 0.022243625 -1.8700271e-05)
(-0.0081743476 0.034636006 2.0372337e-05)
(-0.015137576 0.045060325 4.8449617e-05)
(-0.023421937 0.053553045 7.1361252e-05)
(-0.032713785 0.060209015 9.0227975e-05)
(-0.042733457 0.065152123 0.00010612762)
(-0.053240168 0.068512572 0.00012011616)
(-0.064029908 0.070410178 0.00013289837)
(-0.074925092 0.070944373 0.00014484558)
(-0.08576605 0.070190154 0.00015604571)
(-0.096404536 0.06819892 0.00016633681)
(-0.10669859 0.065003067 0.00017534448)
(-0.11650869 0.06062315 0.00018252537)
(-0.12569521 0.055076536 0.00018721567)
(-0.13411679 0.048386576 0.00018868499)
(-0.14162988 0.040591618 0.00018619615)
(-0.14808899 0.031753339 0.00017907077)
(-0.15334801 0.021964098 0.00016675943)
(-0.15726247 0.011353091 0.00014891323)
(-0.15969296 9.1145188e-05 0.00012545317)
(-0.16051011 -0.011606046 9.664059e-05)
(-0.15960087 -0.023477103 6.3104419e-05)
(-0.15687652 -0.035216098 2.5886395e-05)
(-0.15228232 -0.046477365 -1.3572407e-05)
(-0.14580835 -0.056884225 -5.3473122e-05)
(-0.1375009 -0.066042445 -9.1743982e-05)
(-0.12747342 -0.073558922 -0.00012616933)
(-0.11591558 -0.079065568 -0.00015455634)
(-0.10309845 -0.082247608 -0.00017492592)
(-0.08937399 -0.082874514 -0.00018570741)
(-0.075166999 -0.080830669 -0.00018591162)
(-0.060958298 -0.076141996 -0.00017525536)
(-0.047259325 -0.068994297 -0.00015420999)
(-0.034580346 -0.059739627 -0.0001239439)
(-0.023395546 -0.048888668 -8.6198604e-05)
(-0.014102332 -0.0370892 -4.3352749e-05)
(-0.0069808822 -0.025090979 1.8287932e-06)
(-0.0022588272 -0.013702184 4.9972483e-05)
(-0.00026412468 -0.0037758958 9.7531716e-05)
(-0.00050348012 0.0095661242 -4.05368e-05)
(-0.0031928424 0.026441577 1.9073211e-05)
(-0.0086742531 0.040886567 6.0424553e-05)
(-0.016046404 0.052905512 9.0186666e-05)
(-0.024804192 0.062607166 0.00011468688)
(-0.034614072 0.07015013 0.00013522116)
(-0.045181226 0.075711779 0.00015300715)
(-0.056254704 0.07946512 0.00016920783)
(-0.067624964 0.08156265 0.00018458667)
(-0.079112542 0.082127407 0.00019953186)
(-0.090558605 0.081250246 0.00021411364)
(-0.10181758 0.078992106 0.00022812212)
(-0.11275117 0.075390003 0.00024110713)
(-0.12322371 0.070465497 0.00025242301)
(-0.13309873 0.064234486 0.00026127765)
(-0.14223657 0.056717399 0.000266787)
(-0.15049297 0.04794914 0.00026803643)
(-0.15771854 0.037988342 0.00026414966)
(-0.1637592 0.026925737 0.0002543647)
(-0.16845766 0.014891482 0.00023811446)
(-0.1716563 0.002061343 0.00021510905)
(-0.1732018 -0.011338552 0.00018542497)
(-0.17295147 -0.025028739 0.00014955043)
(-0.17078171 -0.038675999 0.00010845591)
(-0.16659902 -0.051896282 6.3603276e-05)
(-0.16035279 -0.064262114 1.6925048e-05)
(-0.15204967 -0.075315608 -2.9246722e-05)
(-0.14176841 -0.084588009 -7.2307424e-05)
(-0.12967352 -0.091626262 -0.0001095608)
(-0.11602549 -0.09602616 -0.00013844302)
(-0.10118505 -0.097470377 -0.00015676924)
(-0.085608586 -0.095768125 -0.00016297281)
(-0.069832755 -0.090891649 -0.00015630122)
(-0.054447293 -0.08300376 -0.00013692836)
(-0.040058141 -0.072470763 -0.00010593478)
(-0.027244411 -0.05985702 -6.5193594e-05)
(-0.016506443 -0.045900234 -1.7455572e-05)
(-0.0082131385 -0.031467726 3.3968174e-05)
(-0.0026741111 -0.017500781 8.9729954e-05)
(-0.00031726981 -0.0049936145 0.00014344995)
(-0.00052861049 0.011263103 2.8415804e-06)
(-0.0033473104 0.030866919 6.8626633e-05)
(-0.0090869158 0.04746769 0.00011192014)
(-0.016799524 0.061156061 0.00014321555)
(-0.025953762 0.072119017 0.00016927785)
(-0.036199902 0.080584622 0.00019157)
(-0.04723082 0.086789014 0.00021144075)
(-0.058787568 0.090952668 0.00023015032)
(-0.070656804 0.093264692 0.00024851359)
(-0.082658744 0.093874866 0.00026693067)
(-0.094636963 0.092892218 0.00028545057)
(-0.10645027 0.090388712 0.00030381263)
(-0.11796595 0.086406653 0.00032148783)
(-0.12905427 0.080968431 0.00033772342)
(-0.13958421 0.07408744 0.00035159094)
(-0.14942022 0.065779265 0.00036203972)
(-0.15841984 0.056072523 0.00036795796)
(-0.16643223 0.045019056 0.00036824328)
(-0.1732976 0.032703337 0.00036188322)
(-0.17884785 0.019251081 0.00034804481)
(-0.18290856 0.0048369859 0.00032617072)
(-0.18530294 -0.010308608 0.00029608082)
(-0.18585784 -0.025894406 0.00025805695)
(-0.18441242 -0.041565337 0.00021292727)
(-0.18082989 -0.056902913 0.00016211304)
(-0.17501201 -0.071430371 0.00010763751)
(-0.16691634 -0.084624161 5.2078721e-05)
(-0.15657517 -0.095933341 -1.545507e-06)
(-0.14411445 -0.10480801 -4.9965293e-05)
(-0.12977036 -0.11073706 -8.991419e-05)
(-0.11389999 -0.11329383 -0.00011843379)
(-0.096982535 -0.11218653 -0.00013319418)
(-0.079607198 -0.10730736 -0.00013278466)
(-0.062445845 -0.098773008 -0.00011691736)
(-0.046211374 -0.086947953 -8.6470802e-05)
(-0.031605465 -0.072444292 -4.3403002e-05)
(-0.019252749 -0.056095128 9.1313374e-06)
(-0.0096324264 -0.038901232 6.7180396e-05)
(-0.0031575904 -0.021960254 0.00013140397)
(-0.00038075427 -0.0064352396 0.00019243304)
(-0.00054753208 0.013031403 5.8424715e-05)
(-0.0034654481 0.035474632 0.0001306352)
(-0.009405309 0.054315804 0.0001755159)
(-0.017384422 0.069736224 0.00020818612)
(-0.026851441 0.082005419 0.00023578075)
(-0.037444057 0.09142531 0.00025992003)
(-0.048845536 0.098295122 0.00028207521)
(-0.060790942 0.10288686 0.00030359559)
(-0.07306468 0.10542988 0.000325343)
(-0.08548803 0.10610374 0.00034772799)
(-0.097908393 0.10503806 0.00037077883)
(-0.11019054 0.10231749 0.00039418544)
(-0.12220915 0.097990519 0.00041734095)
(-0.13384255 0.092080438 0.00043938469)
(-0.14496759 0.084597335 0.00045924741)
(-0.15545554 0.075550215 0.00047570169)
(-0.16516874 0.064958705 0.00048742084)
(-0.1739581 0.052864136 0.00049304895)
(-0.1816615 0.039339985 0.00049128413)
(-0.1881033 0.024501789 0.00048097553)
(-0.19309531 0.0085165632 0.00046123265)
(-0.1964396 -0.0083883994 0.0004315443)
(-0.19793384 -0.02591766 0.00039189587)
(-0.19737952 -0.043701724 0.00034288256)
(-0.19459377 -0.061294073 0.00028579789)
(-0.18942508 -0.078172974 0.00022268343)
(-0.18177292 -0.093750131 0.00015631885)
(-0.17161058 -0.10738844 9.0133195e-05)
(-0.15901 -0.11843092 2.8022902e-05)
(-0.14416566 -0.12624211 -2.5927495e-05)
(-0.12741377 -0.13026146 -6.7809503e-05)
(-0.10924178 -0.13006574 -9.430607e-05)
(-0.090282694 -0.125434 -0.00010310353)
(-0.071290042 -0.11640547 -9.3222242e-05)
(-0.053092916 -0.1033187 -6.5160698e-05)
(-0.036533978 -0.086821277 -2.0865703e-05)
(-0.02238691 -0.067843972 3.6096756e-05)
(-0.011267976 -0.047537128 0.00010103762)
(-0.0037215749 -0.027180947 0.00017460443)
(-0.00045687575 -0.0081389012 0.00024430343)
(-0.00055978292 0.014851291 0.000126693)
(-0.0035449599 0.040216512 0.00020558355)
(-0.0096238029 0.061362854 0.0002516829)
(-0.017790976 0.078564541 0.00028556272)
(-0.027481353 0.092176139 0.00031465265)
(-0.03832336 0.10257642 0.00034071879)
(-0.049993069 0.11013104 0.00036534679)
(-0.062221282 0.11516701 0.00038996876)
(-0.074791458 0.11795723 0.00041549219)
(-0.087527093 0.11871409 0.00044234054)
(-0.10028063 0.11759026 0.00047052623)
(-0.11292423 0.11468501 0.00049969577)
(-0.12534168 0.11005419 0.00052917018)
(-0.13742143 0.10372242 0.00055798477)
(-0.14905075 0.095696061 0.00058492963)
(-0.16011069 0.085976179 0.000608595)
(-0.17047183 0.074571075 0.00062742551)
(-0.17999078 0.061508163 0.00063978746)
(-0.18850745 0.046845383 0.00064405247)
(-0.19584333 0.03068236 0.00063869963)
(-0.20180113 0.013171497 0.00062243638)
(-0.20616626 -0.0054710222 0.00059433613)
(-0.20871077 -0.02495458 0.00055398636)
(-0.20920054 -0.044904697 0.00050163773)
(-0.20740638 -0.064856 0.00043834091)
(-0.20311999 -0.084249561 0.00036604868)
(-0.19617512 -0.10243715 0.00028765905)
(-0.18647392 -0.11869546 0.00020697131)
(-0.17401742 -0.13225346 0.00012852891)
(-0.15893776 -0.14233566 5.7332048e-05)
(-0.14152782 -0.14822225 -1.5796205e-06)
(-0.1222621 -0.14932419 -4.3645701e-05)
(-0.10180136 -0.14526696 -6.5345087e-05)
(-0.080973919 -0.13597116 -6.4697016e-05)
(-0.060730233 -0.12171446 -4.1557325e-05)
(-0.042071718 -0.10315829 2.3063614e-06)
(-0.02594884 -0.081327439 6.2951553e-05)
(-0.013147388 -0.057536585 0.00013486186)
(-0.004378301 -0.033277219 0.00021865017)
(-0.00054804229 -0.01014922 0.00029859752)
(-0.00056506854 0.016701978 0.00020791751)
(-0.0035844884 0.045042077 0.00029374767)
(-0.0097390913 0.068537489 0.00034068984)
(-0.018012972 0.087555074 0.00037560537)
(-0.027833042 0.10253498 0.00040613753)
(-0.038821334 0.11393437 0.0004341855)
(-0.05064872 0.12218773 0.00046144229)
(-0.063043122 0.12767995 0.00048941918)
(-0.075788059 0.13073059 0.00051907179)
(-0.088710157 0.13158781 0.00055084344)
(-0.10166792 0.13043001 0.00058474034)
(-0.11454212 0.12737323 0.0006203766)
(-0.12722724 0.12248227 0.00065701205)
(-0.13962392 0.11578393 0.00069358712)
(-0.15163235 0.10728092 0.00072875692)
(-0.16314651 0.096965583 0.00076092938)
(-0.17404902 0.084833154 0.00078831256)
(-0.18420673 0.070894309 0.00080897649)
(-0.19346679 0.05518743 0.00082093438)
(-0.2016537 0.03779087 0.00082224706)
(-0.20856744 0.018835565 0.00081115267)
(-0.21398324 -0.0014818468 0.00078622153)
(-0.21765368 -0.022885547 0.0007465341)
(-0.219314 -0.045007344 0.00069186823)
(-0.21869154 -0.06737501 0.00062289037)
(-0.21552081 -0.089404059 0.00054132083)
(-0.20956489 -0.11039594 0.00045004648)
(-0.20064414 -0.12954644 0.00035314403)
(-0.18867185 -0.14596868 0.00025577393)
(-0.17369491 -0.15873537 0.00016391028)
(-0.15593549 -0.1669434 8.3888834e-05)
(-0.13582661 -0.16980115 2.1786875e-05)
(-0.11403183 -0.16673298 -1.7306865e-05)
(-0.091438494 -0.15748838 -3.0011952e-05)
(-0.069116743 -0.1422353 -1.5171979e-05)
(-0.048241655 -0.12161397 2.5893276e-05)
(-0.029970085 -0.096729888 8.896814e-05)
(-0.015295712 -0.069072931 0.00016764131)
(-0.0051398059 -0.040376365 0.00026246887)
(-0.00065680878 -0.012517292 0.00035446405)
(-0.00056334363 0.018562217 0.00030214323)
(-0.0035840407 0.049899953 0.00039518369)
(-0.0097512124 0.075766839 0.00044259358)
(-0.018049794 0.096619267 0.00047835851)
(-0.027903844 0.11298147 0.00051025038)
(-0.038931214 0.12538917 0.00054028812)
(-0.050799051 0.13434717 0.00057026702)
(-0.063233376 0.14030064 0.00060177781)
(-0.076018487 0.1436187 0.0006358314)
(-0.088984832 0.14458829 0.00067290303)
(-0.1019978 0.14341638 0.0007130076)
(-0.11494789 0.14023826 0.00075574302)
(-0.12774175 0.13512965 0.00080032403)
(-0.14029412 0.12812091 0.00084561084)
(-0.15252061 0.11921175 0.00089013512)
(-0.16433131 0.10838575 0.00093212907)
(-0.1756249 0.095624089 0.00096956351)