/*--------------------------------*- C++ -*----------------------------------*\
  =========                 |
  \\      /  F ield         | OpenFOAM: The Open Source CFD Toolbox
   \\    /   O peration     | Website:  https://openfoam.org
    \\  /    A nd           | Version:  7
     \\/     M anipulation  |
\*---------------------------------------------------------------------------*/
FoamFile
{
    version     2.0;
    format      ascii;
    class       volVectorField;
    location    "18";
    object      U_0;
}
// * * * * * * * * * * * * * * * * * * * * * * * * * * * * * * * * * * * * * //

dimensions      [0 1 -1 0 0 0 0];

internalField   nonuniform List<vector> 
16000
(
(6.6032039e-05 -6.7324734e-05 -4.0899887e-07)
(0.00016271956 -5.6347167e-05 5.692816e-06)
(0.00014188038 4.689312e-07 1.9190986e-05)
(-5.0648157e-05 6.1890208e-05 3.6611127e-05)
(-0.00040997102 0.00011562298 5.4716857e-05)
(-0.00090897638 0.00015772941 7.1542089e-05)
(-0.0015175975 0.00018848579 8.5750919e-05)
(-0.0022066953 0.00020958705 9.652837e-05)
(-0.0029503249 0.00022285267 0.00010341407)
(-0.0037260977 0.00022978557 0.00010616114)
(-0.0045145909 0.00023145089 0.00010464229)
(-0.0052984605 0.00022847774 9.8794568e-05)
(-0.0060615487 0.00022112164 8.8593567e-05)
(-0.0067881322 0.00020935824 7.405009e-05)
(-0.0074624035 0.00019299065 5.5223048e-05)
(-0.0080682332 0.00017176027 3.2242747e-05)
(-0.0085892259 0.00014545498 5.3390787e-06)
(-0.0090090602 0.00011400959 -2.5130217e-05)
(-0.0093120837 7.7594078e-05 -5.8655528e-05)
(-0.0094841196 3.6685669e-05 -9.4559439e-05)
(-0.0095134292 -7.8820625e-06 -0.00013199248)
(-0.0093917411 -5.4913443e-05 -0.00016994356)
(-0.009115286 -0.00010282678 -0.00020726631)
(-0.008685734 -0.00014972714 -0.00024272297)
(-0.0081109102 -0.00019348492 -0.0002750438)
(-0.0074052145 -0.00023185489 -0.00030300001)
(-0.0065896502 -0.00026262646 -0.00032548524)
(-0.0056913996 -0.00028379157 -0.00034159956)
(-0.0047429221 -0.00029371388 -0.00035072875)
(-0.0037805911 -0.00029128071 -0.00035261144)
(-0.0028429386 -0.00027601987 -0.00034738754)
(-0.0019686149 -0.00024816677 -0.00033562375)
(-0.0011941751 -0.00020868164 -0.00031831523)
(-0.00055174314 -0.00015925341 -0.00029686634)
(-6.66067e-05 -0.0001024076 -0.00027304597)
(0.0002448165 -4.1762986e-05 -0.00024891139)
(0.00037884834 1.7837282e-05 -0.00022684454)
(0.00034971901 6.7060446e-05 -0.00020928162)
(0.00020615793 8.9846829e-05 -0.00019889438)
(5.7461035e-05 5.7406107e-05 -0.00018444593)
(5.7986263e-05 -0.00016700089 -6.636808e-06)
(4.0850311e-05 -3.9932442e-05 -3.82902e-07)
(-0.0002949859 0.00024856414 1.1249189e-05)
(-0.0010109714 0.00056208329 2.5613188e-05)
(-0.0020990644 0.00084741644 4.0595643e-05)
(-0.0035137677 0.0010830067 5.4600949e-05)
(-0.0051941709 0.0012641611 6.6501955e-05)
(-0.0070758901 0.0013939086 7.5546494e-05)
(-0.0090971661 0.0014777889 8.1252658e-05)
(-0.011201065 0.0015213479 8.332078e-05)
(-0.013335533 0.0015290293 8.1567594e-05)
(-0.015452416 0.0015037959 7.5883261e-05)
(-0.017506137 0.001447184 6.6209692e-05)
(-0.019452467 0.0013596157 5.2536373e-05)
(-0.021247692 0.0012408557 3.4909608e-05)
(-0.022848325 0.0010905334 1.3450674e-05)
(-0.024211424 0.00090867552 -1.162147e-05)
(-0.025295519 0.00069620624 -3.996704e-05)
(-0.026062077 0.00045537874 -7.1105688e-05)
(-0.026477404 0.00019010804 -0.00010440354)
(-0.026514858 -9.3825232e-05 -0.00013907)
(-0.026157123 -0.00038869641 -0.00017417364)
(-0.025398448 -0.0006849738 -0.00020865853)
(-0.02424664 -0.0009716078 -0.00024139213)
(-0.022724455 -0.0012365132 -0.00027121869)
(-0.020870323 -0.0014672246 -0.00029702672)
(-0.018738181 -0.0016516869 -0.00031782426)
(-0.016396293 -0.0017791259 -0.00033281597)
(-0.013925009 -0.0018409257 -0.00034147501)
(-0.011413494 -0.0018314304 -0.00034360276)
(-0.0089555455 -0.001748596 -0.00033937012)
(-0.0066446896 -0.001594438 -0.00032933572)
(-0.0045687772 -0.001375277 -0.00031443929)
(-0.0028042492 -0.0011018939 -0.00029597143)
(-0.0014101349 -0.00078989151 -0.00027552264)
(-0.00042178595 -0.00046059765 -0.00025490673)
(0.00015562447 -0.0001425976 -0.00023603821)
(0.00035662096 0.00012226226 -0.00022093469)
(0.00027520533 0.00027108383 -0.00021169783)
(9.0105671e-05 0.00020507254 -0.00019550821)
(1.9106933e-06 -0.00014891465 -2.0420277e-05)
(-0.00025604202 0.00029703758 -1.1801887e-05)
(-0.0010503694 0.0010235572 9.4976028e-08)
(-0.0023876009 0.0017973697 1.3073126e-05)
(-0.0042390049 0.0025096352 2.6107024e-05)
(-0.0065448477 0.0031097042 3.8055938e-05)
(-0.0092240809 0.0035805059 4.8092957e-05)
(-0.012188587 0.0039229646 5.5657472e-05)
(-0.01535118 0.0041456848 6.0367762e-05)
(-0.018628836 0.0042590735 6.1967118e-05)
(-0.021943445 0.0042722942 6.0282599e-05)
(-0.025221215 0.0041919644 5.5196559e-05)
(-0.02839149 0.0040219818 4.6632996e-05)
(-0.031385594 0.0037640724 3.4557067e-05)
(-0.034136098 0.0034187686 1.8985052e-05)
(-0.036576742 0.0029866006 1.5202956e-09)
(-0.038643128 0.0024693418 -2.221975e-05)
(-0.040274165 0.0018711814 -4.739446e-05)
(-0.04141419 0.0011997266 -7.51093e-05)
(-0.042015631 0.00046675103 -0.00010480959)
(-0.042041968 -0.00031137269 -0.00013579762)
(-0.041470824 -0.0011135786 -0.00016723828)
(-0.040296898 -0.001914542 -0.00019818444)
(-0.038534436 -0.002685436 -0.00022761294)
(-0.036218994 -0.0033951739 -0.00025447554)
(-0.033408234 -0.0040120438 -0.00027776167)
(-0.030181526 -0.004505647 -0.0002965687)
(-0.026638208 -0.004849021 -0.000310174)
(-0.022894413 -0.005020783 -0.00031810205)
(-0.019078504 -0.005007118 -0.00032017934)
(-0.015325232 -0.0048034436 -0.00031657058)
(-0.011768846 -0.004415639 -0.00030779137)
(-0.0085354227 -0.0038608275 -0.00029469522)
(-0.0057347103 -0.0031678726 -0.00027843554)
(-0.0034517017 -0.0023779891 -0.00026040652)
(-0.001738075 -0.0015461617 -0.00024216382)
(-0.00060381094 -0.00074424394 -0.00022531692)
(-8.1393074e-06 -6.6465626e-05 -0.00021145713)
(0.00015534917 0.00036028813 -0.00020227282)
(7.3534082e-05 0.00035431728 -0.00018535391)
(-6.4680976e-05 5.0462066e-05 -3.8668178e-05)
(-0.00060832299 0.0010457061 -2.6130179e-05)
(-0.0019303309 0.0023815187 -1.2150763e-05)
(-0.0039459885 0.0037561177 1.1399355e-06)
(-0.0065882382 0.0050147392 1.3725863e-05)
(-0.0097780207 0.0060793397 2.4847647e-05)
(-0.013415484 0.0069196806 3.3968109e-05)
(-0.017393377 0.0075331866 4.0751941e-05)
(-0.021605047 0.0079304148 4.4963079e-05)
(-0.025947454 0.0081260322 4.642965e-05)
(-0.030322057 0.0081337608 4.5020859e-05)
(-0.034634467 0.0079640203 4.0630534e-05)
(-0.038793521 0.007623445 3.317191e-05)
(-0.042710369 0.0071156545 2.2582975e-05)
(-0.046298019 0.0064428011 8.8402042e-06)
(-0.049471584 0.0056075168 -8.0218344e-06)
(-0.052149365 0.004614969 -2.7887823e-05)
(-0.054254739 0.0034747988 -5.0538797e-05)
(-0.055718772 0.0022027595 -7.5631891e-05)
(-0.056483379 0.00082191598 -0.00010268603)
(-0.056504785 -0.00063670651 -0.00013107675)
(-0.055757094 -0.0021341374 -0.00016003908)
(-0.054235622 -0.00362417 -0.00018869095)
(-0.051959663 -0.0050548083 -0.00021606527)
(-0.048974478 -0.0063704393 -0.00024115911)
(-0.045352155 -0.0075146562 -0.00026299503)
(-0.041191113 -0.0084335957 -0.00028069101)
(-0.036614058 -0.0090795913 -0.00029353267)
(-0.031764271 -0.0094148866 -0.00030104085)
(-0.026800235 -0.0094151233 -0.0003030266)
(-0.021888687 -0.0090723306 -0.00029962644)
(-0.017196336 -0.0083972071 -0.00029131241)
(-0.012880578 -0.0074206308 -0.00027887436)
(-0.0090795888 -0.0061945424 -0.00026337523)
(-0.0059022722 -0.0047926391 -0.0002460835)
(-0.0034184581 -0.0033116998 -0.00022838947)
(-0.0016495792 -0.0018745611 -0.00021172024)
(-0.00055986416 -0.00063483415 -0.0001974671)
(-5.0162904e-05 0.00021484124 -0.0001868637)
(3.8075193e-05 0.0004137394 -0.00016805258)
(-0.00013085167 0.00044555801 -5.8179714e-05)
(-0.00097083528 0.00224249 -4.1116124e-05)
(-0.0028458607 0.0043587172 -2.4236189e-05)
(-0.0055641093 0.006456465 -9.8062815e-06)
(-0.0090082854 0.008352467 3.109824e-06)
(-0.013073768 0.0099502234 1.4087297e-05)
(-0.017639983 0.011210347 2.2863145e-05)
(-0.022581735 0.012128059 2.9332499e-05)
(-0.02777601 0.012715925 3.3418051e-05)
(-0.033103802 0.012992515 3.504692e-05)
(-0.038450503 0.012975746 3.4141804e-05)
(-0.043705478 0.012679647 3.0614437e-05)
(-0.048761249 0.012113654 2.4368215e-05)
(-0.053512796 0.011283643 1.5309872e-05)
(-0.057857369 0.010194085 3.3682263e-06)
(-0.061695051 0.0088507718 -1.1482138e-05)
(-0.064930168 0.0072637093 -2.9194571e-05)
(-0.067473522 0.0054498289 -4.9623882e-05)
(-0.069245332 0.0034352626 -7.2502398e-05)
(-0.070178723 0.0012569752 -9.7421573e-05)
(-0.070223513 -0.0010364101 -0.00012382228)
(-0.06935006 -0.0033847305 -0.00015099628)
(-0.067552875 -0.0057173645 -0.00017810284)
(-0.064853681 -0.0079553978 -0.0002042003)
(-0.061303641 -0.010014798 -0.00022829387)
(-0.056984437 -0.011810518 -0.00024939745)
(-0.052007909 -0.01326136 -0.00026660545)
(-0.046514032 -0.01429532 -0.00027916823)
(-0.040667047 -0.014855089 -0.00028656356)
(-0.034649673 -0.014903286 -0.00028855505)
(-0.028655478 -0.014427049 -0.00028522971)
(-0.022879601 -0.013441614 -0.000277008)
(-0.017508215 -0.011992718 -0.00026462343)
(-0.012707236 -0.010157884 -0.00024907246)
(-0.0086109928 -0.0080469504 -0.00023153837)
(-0.0053115317 -0.00580268 -0.000213302)
(-0.0028484543 -0.0036024231 -0.00019567849)
(-0.0012000456 -0.001660655 -0.00017993296)
(-0.00028883529 -0.00023396241 -0.00016678801)
(-2.480946e-06 0.00035034962 -0.00014555045)
(-0.00019284072 0.0010312245 -7.6655167e-05)
(-0.0013238125 0.0038921151 -5.4753652e-05)
(-0.003751355 0.0069671824 -3.4551963e-05)
(-0.0071723322 0.0099096063 -1.8461231e-05)
(-0.011413263 0.012525829 -4.6682253e-06)
(-0.016339272 0.014712638 6.6917771e-06)
(-0.021806674 0.016428407 1.5605752e-05)
(-0.027672152 0.017669763 2.2188238e-05)
(-0.033797866 0.018452899 2.651758e-05)
(-0.040051508 0.018800835 2.8620436e-05)
(-0.046305703 0.018735731 2.8474025e-05)
(-0.052437165 0.01827515 2.6007534e-05)
(-0.05832575 0.017431323 2.1111647e-05)
(-0.063853814 0.016212582 1.365643e-05)
(-0.068906186 0.014626164 3.5155394e-06)
(-0.073370936 0.012681752 -9.4050695e-06)
(-0.077140999 0.0103952 -2.5135971e-05)
(-0.08011661 0.0077920131 -4.361286e-05)
(-0.08220845 0.004910235 -6.464749e-05)
(-0.083341308 0.0018025027 -8.7903985e-05)
(-0.083458076 -0.0014629521 -0.00011288381)
(-0.082523811 -0.0048024977 -0.00013892315)
(-0.08052962 -0.0081185665 -0.00016520457)
(-0.077496085 -0.011302496 -0.00019078686)
(-0.073475892 -0.014238689 -0.00021465201)
(-0.068555375 -0.016810014 -0.00023576857)
(-0.062854619 -0.018904251 -0.0002531671)
(-0.056525827 -0.020421262 -0.00026602134)
(-0.049749669 -0.021280477 -0.00027372622)
(-0.042729472 -0.021428152 -0.00027596331)
(-0.035683211 -0.020843862 -0.00027274412)
(-0.028833494 -0.019545688 -0.00026442359)
(-0.022395934 -0.017593738 -0.00025167995)
(-0.016566541 -0.015091885 -0.00023546172)
(-0.011509095 -0.012187963 -0.00021690386)
(-0.0073434669 -0.0090731497 -0.00019723184)
(-0.0041343352 -0.0059814738 -0.00017771997)
(-0.0018815362 -0.0031890804 -0.00015960428)
(-0.00053619052 -0.0010144857 -0.00014321156)
(-4.1250439e-05 0.00015882379 -0.00011911541)
(-0.00025008204 0.0017983827 -9.2137532e-05)
(-0.0016595403 0.005983433 -6.5250476e-05)
(-0.0046238061 0.010197352 -4.1567829e-05)
(-0.0087309432 0.014105228 -2.3516201e-05)
(-0.013749681 0.017520081 -8.4809062e-06)
(-0.019512364 0.020344485 3.6549466e-06)
(-0.02585057 0.022543007 1.3103042e-05)
(-0.032602533 0.024118892 2.0179374e-05)
(-0.039616485 0.025094894 2.5106077e-05)
(-0.046748698 0.025499943 2.8001348e-05)
(-0.053861595 0.025361054 2.8890757e-05)
(-0.060822194 0.0246995 2.7715152e-05)
(-0.067500802 0.023530348 2.4346221e-05)
(-0.073770223 0.021864435 1.8610143e-05)
(-0.079505725 0.01971193 1.0317288e-05)
(-0.084585851 0.017086711 -7.036876e-07)
(-0.088894103 0.014010924 -1.4569139e-05)
(-0.092321436 0.010519216 -3.1303236e-05)
(-0.094769453 0.0066622392 -5.0802798e-05)
(-0.096154139 0.0025091344 -7.2807278e-05)
(-0.096409976 -0.0018512447 -9.6877409e-05)
(-0.095494208 -0.0063105367 -0.00012238713)
(-0.093391066 -0.01074261 -0.00014852985)
(-0.090115688 -0.015006974 -0.00017434583)
(-0.085717396 -0.018953822 -0.00019876801)
(-0.080282007 -0.022430667 -0.00022068724)
(-0.073932794 -0.025290383 -0.00023903244)
(-0.066829645 -0.027400308 -0.00025285921)
(-0.059166071 -0.028651933 -0.00026143737)
(-0.051163734 -0.028970513 -0.00026432685)
(-0.043064358 -0.028323861 -0.00026143083)
(-0.03511914 -0.026729559 -0.00025301693)
(-0.027576038 -0.02425994 -0.00023970142)
(-0.020665705 -0.021044473 -0.00022239623)
(-0.014587259 -0.017269564 -0.00020221937)
(-0.0094951589 -0.013176372 -0.00018039207)
(-0.0054861421 -0.0090575085 -0.00015821785)
(-0.0025878117 -0.0052521337 -0.00013698771)
(-0.00078443704 -0.0021406462 -0.00011670561)
(-7.6873499e-05 -0.00016065763 -8.9496446e-05)
(-0.00030291189 0.0027362064 -0.00010295759)
(-0.0019752116 0.0084970367 -7.0990539e-05)
(-0.0054513532 0.014026772 -4.3847062e-05)
(-0.010216506 0.019018911 -2.3706113e-05)
(-0.015982905 0.023308042 -7.2143626e-06)
(-0.022549618 0.026814685 5.9710878e-06)
(-0.029723033 0.029518581 1.6264691e-05)
(-0.037323048 0.031435708 2.4164209e-05)
(-0.045184805 0.032599226 3.0019619e-05)
(-0.053154704 0.033046194 3.4027756e-05)
(-0.061087086 0.032809613 3.6251709e-05)
(-0.068841778 0.031914939 3.6634417e-05)
(-0.076282212 0.030380187 3.5019565e-05)
(-0.083274305 0.028218638 3.1180488e-05)
(-0.089686217 0.025443256 2.4855034e-05)
(-0.095389029 0.022071943 1.5784969e-05)
(-0.10025831 0.018132944 3.7583529e-06)
(-0.10417653 0.013669834 -1.1347054e-05)
(-0.1070361 0.008745656 -2.9521887e-05)
(-0.10874315 0.0034458909 -5.0587938e-05)
(-0.10922167 -0.0021200021 -7.4169415e-05)
(-0.10841794 -0.0078186613 -9.9678439e-05)
(-0.10630526 -0.013494638 -0.00012631411)
(-0.10288848 -0.018974188 -0.00015308645)
(-0.098208172 -0.024071007 -0.00017885989)
(-0.092344121 -0.028593969 -0.00020241978)
(-0.085417496 -0.032356716 -0.00022255762)
(-0.077591316 -0.03518879 -0.00023816836)
(-0.069068569 -0.036947761 -0.00024835008)
(-0.060087515 -0.037531599 -0.00025249426)
(-0.050913843 -0.036890289 -0.00025035362)
(-0.041829659 -0.035035651 -0.00024207628)
(-0.033119643 -0.03204832 -0.00022819959)
(-0.025055223 -0.028081161 -0.00020960125)
(-0.017878225 -0.023358804 -0.00018740645)
(-0.011785583 -0.018173726 -0.0001628782)
(-0.0069135696 -0.012879677 -0.00013741621)
(-0.0033236154 -0.0078819903 -0.00011244661)
(-0.0010368007 -0.0036261676 -8.7740664e-05)
(-0.00011093046 -0.0006071177 -5.7297152e-05)
(-0.00035164016 0.0038333364 -0.00010765205)
(-0.0022693499 0.01140887 -7.0500055e-05)
(-0.0062265679 0.018424861 -4.0027104e-05)
(-0.011613068 0.024616683 -1.7780872e-05)
(-0.01808773 0.029853594 2.7905436e-07)
(-0.02541743 0.034085371 1.4704369e-05)
(-0.033384057 0.037315818 2.6094475e-05)
(-0.041789914 0.03958011 3.5110086e-05)
(-0.050458108 0.040926201 4.2212082e-05)
(-0.059226647 0.041402022 4.766113e-05)
(-0.067943692 0.041048116 5.1544851e-05)
(-0.076464082 0.039894862 5.3796724e-05)
(-0.084646745 0.037963411 5.4221818e-05)
(-0.092353068 0.035269322 5.2530367e-05)
(-0.099446267 0.031827919 4.8377258e-05)
(-0.10579175 0.02766048 4.1406332e-05)
(-0.1112584 0.022800504 3.1298226e-05)
(-0.11572068 0.017299474 1.7820014e-05)
(-0.1190615 0.011231677 8.7420007e-07)
(-0.12117579 0.0046977551 -1.9456029e-05)
(-0.12197465 -0.002173282 -4.2869456e-05)
(-0.12139002 -0.0092237983 -6.8824882e-05)
(-0.11937985 -0.016269135 -9.6530179e-05)
(-0.11593347 -0.023101518 -0.00012496153)
(-0.11107694 -0.029496199 -0.00015290216)
(-0.10487796 -0.035220071 -0.00017900865)
(-0.097449796 -0.040042696 -0.00020190065)
(-0.088953512 -0.043749516 -0.00022026754)
(-0.07959778 -0.046156688 -0.00023298275)
(-0.069635474 -0.047126681 -0.00023921255)
(-0.059356504 -0.046583392 -0.0002385046)
(-0.049076611 -0.044525365 -0.00023084192)
(-0.039122367 -0.041035573 -0.00021665299)
(-0.029813223 -0.036286514 -0.00019677264)
(-0.021442377 -0.030539867 -0.00017234849)
(-0.014258368 -0.024140857 -0.00014472509)
(-0.0084454687 -0.017508101 -0.00011546122)
(-0.0041054506 -0.011118582 -8.6197563e-05)
(-0.0012999884 -0.005489579 -5.654029e-05)
(-0.00014465217 -0.0011818021 -2.2584792e-05)
(-0.00039633199 0.0050780041 -0.00010490207)
(-0.0025404285 0.014691517 -6.2426736e-05)
(-0.0069432009 0.023354832 -2.8826138e-05)
(-0.012907391 0.030856658 -4.5292589e-06)
(-0.020042815 0.037112384 1.5145985e-05)
(-0.028086384 0.042111321 3.0948693e-05)
(-0.036797085 0.045889768 4.3648943e-05)
(-0.045960966 0.048508543 5.4053469e-05)
(-0.055390439 0.050034996 6.2717962e-05)
(-0.064916671 0.050531002 6.9952269e-05)
(-0.074383446 0.050046498 7.585532e-05)
(-0.083642654 0.048617729 8.033919e-05)
(-0.09255089 0.046269247 8.3159221e-05)
(-0.10096717 0.04301862 8.395165e-05)
(-0.10875179 0.03888283 8.2276993e-05)
(-0.11576614 0.033885431 7.7668556e-05)
(-0.12187357 0.028063707 6.9685225e-05)
(-0.12694105 0.021475248 5.7967072e-05)
(-0.13084164 0.014203527 4.2291561e-05)
(-0.13345781 0.0063621586 2.2627593e-05)
(-0.13468549 -0.0019023975 -8.1722e-07)
(-0.13443887 -0.010409979 -2.7567573e-05)
(-0.13265611 -0.018947774 -5.685164e-05)
(-0.12930567 -0.027273959 -8.761792e-05)
(-0.12439293 -0.035123863 -0.00011856395)
(-0.11796694 -0.042219127 -0.00014819992)
(-0.11012647 -0.048279972 -0.00017494108)
(-0.10102458 -0.053040453 -0.0001972238)
(-0.090870793 -0.056266241 -0.00021363636)
(-0.07992959 -0.057773963 -0.00022305087)
(-0.068514574 -0.057450649 -0.00022473941)
(-0.056977468 -0.055271384 -0.00021845649)
(-0.045692037 -0.051313022 -0.00020447433)
(-0.035033702 -0.045761995 -0.00018356109)
(-0.025356871 -0.038914803 -0.00015689086)
(-0.016972318 -0.031170939 -0.00012592248)
(-0.010122319 -0.023018939 -9.2432995e-05)
(-0.0049569153 -0.015015456 -5.835657e-05)
(-0.0015837908 -0.0077598826 -2.3187121e-05)
(-0.00017999209 -0.0018920087 1.4680864e-05)
(-0.00043680724 0.0064576935 -9.3505411e-05)
(-0.002786445 0.018314407 -4.5531984e-05)
(-0.0075948102 0.02877441 -9.0536499e-06)
(-0.01408665 0.037689813 1.7195212e-05)
(-0.021827772 0.04503218 3.8494146e-05)
(-0.030528092 0.050839545 5.578154e-05)
(-0.039925944 0.055188493 6.9986469e-05)
(-0.049792918 0.058171656 8.2046828e-05)
(-0.059932336 0.059880389 9.2598798e-05)
(-0.070170148 0.060393721 0.00010198821)
(-0.08034754 0.059773037 0.00011031324)
(-0.090315393 0.058061547 0.00011745349)
(-0.099930027 0.055287525 0.00012310403)
(-0.10905017 0.051470213 0.00012681635)
(-0.11753513 0.046627324 0.00012804469)
(-0.12524401 0.040783199 0.00012619788)
(-0.13203592 0.033976885 0.00012069623)
(-0.13777102 0.026269567 0.00011103254)
(-0.14231252 0.017750989 9.6835499e-05)
(-0.1455295 0.0085445773 7.7932995e-05)
(-0.14730086 -0.0011889286 5.4410986e-05)
(-0.14752005 -0.011249574 2.6647086e-05)
(-0.14610131 -0.021398626 -4.6284139e-06)
(-0.14298696 -0.031361132 -3.8354762e-05)
(-0.1381554 -0.040831739 -7.3150191e-05)
(-0.13162993 -0.04948395 -0.00010736896)
(-0.12348729 -0.056983261 -0.00013919337)
(-0.11386521 -0.063004309 -0.00016675783)
(-0.10296754 -0.067251729 -0.00018829737)
(-0.091065652 -0.069483772 -0.00020230712)
(-0.078494683 -0.069537003 -0.00020769372)
(-0.065643435 -0.067349692 -0.00020389697)
(-0.05293758 -0.062980992 -0.00019096207)
(-0.040816675 -0.056622962 -0.00016954578)
(-0.029707227 -0.04860308 -0.00014083674)
(-0.019994594 -0.039376333 -0.00010643085)
(-0.011991205 -0.029507414 -6.8379719e-05)
(-0.0059055533 -0.019643143 -2.8991073e-05)
(-0.0018994443 -0.010478792 1.2314736e-05)
(-0.00021909388 -0.0027504335 5.4655894e-05)
(-0.00047269128 0.0079587579 -7.2371428e-05)
(-0.0030048802 0.022243612 -1.8694156e-05)
(-0.0081743433 0.034635984 2.0376472e-05)
(-0.015137565 0.045060296 4.8451792e-05)
(-0.02342192 0.05355301 7.1361762e-05)
(-0.032713761 0.060208976 9.0227168e-05)
(-0.042733425 0.065152081 0.00010612604)
(-0.053240129 0.068512529 0.00012011449)
(-0.064029862 0.070410135 0.00013289704)
(-0.074925039 0.07094433 0.00014484458)
(-0.085765993 0.070190112 0.00015604462)
(-0.096404474 0.068198881 0.00016633519)
(-0.10669852 0.065003031 0.00017534208)
(-0.11650862 0.060623118 0.00018252227)
(-0.12569513 0.055076508 0.00018721213)
(-0.13411672 0.048386553 0.00018868132)
(-0.1416298 0.040591602 0.00018619264)
(-0.14808891 0.031753329 0.00017906772)
(-0.15334793 0.021964095 0.00016675709)
(-0.15726238 0.011353094 0.00014891157)
(-0.15969287 9.1155423e-05 0.00012545164)
(-0.16051003 -0.011606029 9.6638279e-05)
(-0.1596008 -0.023477079 6.3100544e-05)
(-0.15687645 -0.03521607 2.588094e-05)
(-0.15228225 -0.046477332 -1.3578582e-05)
(-0.14580828 -0.056884188 -5.3478832e-05)
(-0.13750083 -0.066042405 -9.1748534e-05)
(-0.12747337 -0.07355888 -0.00012617284)
(-0.11591553 -0.079065523 -0.00015455936)
(-0.10309841 -0.082247563 -0.00017492887)
(-0.089373953 -0.08287447 -0.00018571041)
(-0.075166968 -0.080830629 -0.00018591457)
(-0.060958272 -0.076141961 -0.00017525806)
(-0.047259305 -0.068994268 -0.00015421267)
(-0.034580332 -0.059739604 -0.00012394673)
(-0.023395536 -0.048888652 -8.6201373e-05)
(-0.014102326 -0.037089191 -4.3355108e-05)
(-0.0069808792 -0.025090975 1.8270953e-06)
(-0.0022588266 -0.013702186 4.9971214e-05)
(-0.00026412489 -0.0037759008 9.7530601e-05)
(-0.0005034801 0.0095661195 -4.0530583e-05)
(-0.0031928416 0.026441561 1.907901e-05)
(-0.0086742485 0.040886541 6.0428424e-05)
(-0.016046393 0.052905478 9.0188613e-05)
(-0.024804174 0.062607126 0.00011468725)
(-0.034614047 0.070150086 0.00013522039)
(-0.045181194 0.075711732 0.00015300585)
(-0.056254664 0.079465072 0.00016920663)
(-0.067624917 0.081562601 0.0001845859)
(-0.079112489 0.082127359 0.00019953144)
(-0.090558548 0.0812502 0.00021411312)
(-0.10181752 0.078992063 0.00022812102)
(-0.1127511 0.075389963 0.00024110523)
(-0.12322364 0.070465461 0.00025242042)
(-0.13309865 0.064234455 0.00026127469)
(-0.14223649 0.056717375 0.00026678404)
(-0.15049289 0.047949122 0.00026803378)
(-0.15771846 0.037988331 0.00026414758)
(-0.16375912 0.026925732 0.00025436337)
(-0.16845758 0.014891485 0.00023811387)
(-0.17165622 0.0020613532 0.00021510875)
(-0.17320173 -0.011338534 0.00018542411)
(-0.17295139 -0.025028713 0.00014954822)
(-0.17078164 -0.038675967 0.00010845218)
(-0.16659895 -0.051896245 6.3598685e-05)
(-0.16035272 -0.064262074 1.6920657e-05)
(-0.1520496 -0.075315564 -2.9250137e-05)
(-0.14176835 -0.084587961 -7.230972e-05)
(-0.12967346 -0.091626211 -0.00010956224)
(-0.11602545 -0.096026108 -0.00013844392)
(-0.10118501 -0.097470325 -0.00015676989)
(-0.085608553 -0.095768077 -0.00016297335)
(-0.069832729 -0.090891606 -0.0001563018)
(-0.054447273 -0.083003723 -0.00013692939)
(-0.040058127 -0.072470733 -0.00010593641)
(-0.027244401 -0.059856998 -6.5195546e-05)
(-0.016506436 -0.04590022 -1.745743e-05)
(-0.0082131359 -0.03146772 3.3966623e-05)
(-0.0026741111 -0.017500782 8.9728487e-05)
(-0.00031727016 -0.0049936192 0.00014344846)
(-0.00052861037 0.011263097 2.8472578e-06)
(-0.0033473094 0.030866901 6.863193e-05)
(-0.0090869109 0.04746766 0.00011192365)
(-0.016799513 0.061156022 0.00014321729)
(-0.025953744 0.072118971 0.00016927822)
(-0.036199877 0.080584572 0.00019156952)
(-0.047230788 0.086788961 0.00021144001)
(-0.058787529 0.090952614 0.00023014983)
(-0.070656759 0.093264638 0.00024851357)
(-0.082658693 0.093874813 0.00026693093)
(-0.094636908 0.092892166 0.00028545068)
(-0.10645021 0.090388663 0.00030381215)
(-0.11796588 0.086406608 0.00032148655)
(-0.1290542 0.080968391 0.00033772148)
(-0.13958414 0.074087406 0.00035158872)
(-0.14942015 0.065779238 0.00036203762)
(-0.15841977 0.056072503 0.00036795625)
(-0.16643215 0.045019043 0.00036824211)
(-0.17329752 0.032703331 0.00036188273)
(-0.17884777 0.019251083 0.00034804501)
(-0.18290848 0.0048369957 0.0003261713)
(-0.18530286 -0.01030859 0.00029608115)
(-0.18585776 -0.025894379 0.00025805636)
(-0.18441235 -0.041565303 0.0002129255)
(-0.18082982 -0.056902873 0.00016211046)
(-0.17501194 -0.071430325 0.00010763494)
(-0.16691628 -0.084624112 5.2076913e-05)
(-0.15657511 -0.095933289 -1.5461746e-06)
(-0.14411439 -0.10480796 -4.9964779e-05)
(-0.12977031 -0.110737 -8.9912692e-05)
(-0.11389995 -0.11329377 -0.00011843172)
(-0.0969825 -0.11218647 -0.00013319199)
(-0.07960717 -0.10730731 -0.00013278282)
(-0.062445825 -0.098772965 -0.00011691643)
(-0.046211359 -0.086947918 -8.6470912e-05)
(-0.031605455 -0.072444265 -4.3403839e-05)
(-0.019252743 -0.056095109 9.1302176e-06)
(-0.0096324244 -0.038901222 6.7179162e-05)
(-0.0031575908 -0.021960252 0.00013140244)
(-0.00038075473 -0.0064352433 0.00019243133)
(-0.00054753185 0.013031396 5.8429594e-05)
(-0.0034654469 0.035474611 0.00013063972)
(-0.0094053042 0.05431577 0.00017551877)
(-0.017384411 0.06973618 0.00020818743)
(-0.026851424 0.082005368 0.00023578098)
(-0.037444033 0.091425253 0.0002599197)
(-0.048845506 0.098295063 0.00028207484)
(-0.060790905 0.1028868 0.00030359554)
(-0.073064637 0.10542982 0.00032534338)
(-0.085487982 0.10610368 0.00034772857)
(-0.097908341 0.105038 0.00037077922)
(-0.11019049 0.10231744 0.00039418528)
(-0.12220909 0.097990469 0.00041734008)
(-0.13384248 0.092080394 0.00043938324)
(-0.14496752 0.084597298 0.00045924577)
(-0.15545547 0.075550185 0.00047570027)
(-0.16516867 0.064958683 0.00048741986)
(-0.17395803 0.052864121 0.00049304846)
(-0.18166142 0.039339978 0.00049128419)
(-0.18810323 0.024501791 0.00048097615)
(-0.19309523 0.0085165728 0.00046123369)
(-0.19643953 -0.008388381 0.0004315454)
(-0.19793377 -0.025917633 0.00039189659)
(-0.19737945 -0.043701688 0.00034288263)
(-0.1945937 -0.061294029 0.00028579743)
(-0.18942502 -0.078172924 0.00022268288)
(-0.18177285 -0.093750077 0.00015631876)
(-0.17161052 -0.10738838 9.0134049e-05)
(-0.15900995 -0.11843086 2.8024998e-05)
(-0.14416561 -0.12624205 -2.5924185e-05)
(-0.12741373 -0.1302614 -6.7805411e-05)
(-0.10924175 -0.13006568 -9.4301838e-05)
(-0.090282666 -0.12543394 -0.00010309983)
(-0.071290021 -0.11640542 -9.3219681e-05)
(-0.0530929 -0.10331866 -6.5159404e-05)
(-0.036533968 -0.086821245 -2.0865365e-05)
(-0.022386904 -0.067843949 3.6096528e-05)
(-0.011267974 -0.047537115 0.00010103692)
(-0.0037215756 -0.027180942 0.0001746031)
(-0.00045687625 -0.0081389034 0.00024430176)
(-0.00055978269 0.014851283 0.00012669676)
(-0.0035449587 0.040216488 0.00020558686)
(-0.0096237984 0.061362816 0.00025168471)
(-0.017790966 0.078564492 0.00028556323)
(-0.027481337 0.092176082 0.00031465236)
(-0.038323338 0.10257636 0.00034071817)
(-0.049993041 0.11013098 0.00036534628)
(-0.062221248 0.11516694 0.00038996858)
(-0.074791419 0.11795716 0.00041549234)
(-0.087527049 0.11871402 0.0004423408)
(-0.10028059 0.1175902 0.00047052629)
(-0.11292418 0.11468495 0.00049969536)
(-0.12534162 0.11005414 0.00052916919)
(-0.13742137 0.10372238 0.00055798332)
(-0.14905069 0.09569602 0.00058492813)
(-0.16011062 0.085976145 0.00060859385)
(-0.17047176 0.07457105 0.00062742491)
(-0.17999071 0.061508147 0.0006397874)
(-0.18850739 0.046845375 0.00064405288)
(-0.19584327 0.030682362 0.00063870046)
(-0.20180106 0.013171507 0.00062243758)
(-0.20616619 -0.0054710032 0.00059433758)
(-0.2087107 -0.024954552 0.00055398789)
(-0.20920047 -0.04490466 0.00050163917)
(-0.20740631 -0.064855955 0.00043834217)
(-0.20311993 -0.084249509 0.00036604979)
(-0.19617506 -0.10243709 0.00028766026)
(-0.18647386 -0.1186954 0.00020697305)
(-0.17401736 -0.1322534 0.00012853167)
(-0.15893771 -0.1423356 5.7335989e-05)
(-0.14152778 -0.14822219 -1.5748185e-06)
(-0.12226206 -0.14932413 -4.3640689e-05)
(-0.10180133 -0.1452669 -6.5340551e-05)
(-0.080973896 -0.13597111 -6.4693518e-05)
(-0.060730217 -0.12171442 -4.1554991e-05)
(-0.042071707 -0.10315825 2.3077756e-06)
(-0.025948834 -0.081327412 6.2952309e-05)
(-0.013147386 -0.057536567 0.00013486191)
(-0.0043783018 -0.033277212 0.00021864931)
(-0.00054804278 -0.01014922 0.00029859622)
(-0.00056506846 0.016701969 0.00020791976)
(-0.0035844875 0.045042049 0.00029374929)
(-0.0097390871 0.068537446 0.00034069014)
(-0.018012962 0.08755502 0.00037560465)
(-0.027833028 0.10253491 0.00040613625)
(-0.038821314 0.1139343 0.00043418407)
(-0.050648695 0.12218766 0.00046144104)
(-0.063043091 0.12767988 0.00048941821)
(-0.075788024 0.13073052 0.00051907104)
(-0.088710119 0.13158773 0.0005508427)
(-0.10166787 0.13042994 0.00058473941)
(-0.11454207 0.12737316 0.00062037531)
(-0.12722719 0.12248221 0.00065701033)
(-0.13962387 0.11578388 0.0006935851)
(-0.1516323 0.10728087 0.00072875505)
(-0.16314645 0.096965547 0.0007609281)
(-0.17404897 0.084833128 0.00078831209)
(-0.18420667 0.070894292 0.00080897676)
(-0.19346673 0.055187423 0.00082093519)
(-0.20165364 0.037790872 0.00082224821)
(-0.20856738 0.018835576 0.00081115405)
(-0.21398318 -0.0014818269 0.00078622315)
(-0.21765362 -0.022885518 0.00074653598)
(-0.21931394 -0.045007306 0.00069187036)
(-0.21869149 -0.067374964 0.00062289254)
(-0.21552076 -0.089404005 0.00054132276)
(-0.20956484 -0.11039588 0.00045004812)
(-0.20064409 -0.12954637 0.00035314571)
(-0.1886718 -0.14596861 0.00025577624)
(-0.17369486 -0.1587353 0.00016391357)
(-0.15593545 -0.16694333 8.3892966e-05)
(-0.13582657 -0.16980108 2.1791369e-05)
(-0.1140318 -0.16673292 -1.730255e-05)
(-0.091438471 -0.15748832 -3.0008258e-05)
(-0.069116726 -0.14223525 -1.5169042e-05)
(-0.048241643 -0.12161393 2.5895575e-05)
(-0.029970078 -0.096729856 8.8969878e-05)
(-0.015295711 -0.06907291 0.00016764225)
(-0.0051398066 -0.040376354 0.00026246874)
(-0.00065680919 -0.01251729 0.00035446341)
(-0.0005633437 0.018562207 0.0003021437)
(-0.0035840401 0.049899923 0.00039518336)
(-0.0097512085 0.075766793 0.00044259221)
(-0.018049786 0.096619209 0.00047835638)
(-0.027903831 0.1129814 0.00051024785)
(-0.038931197 0.1253891 0.00054028553)
(-0.050799029 0.13434709 0.00057026462)
(-0.06323335 0.14030056 0.0006017756)
(-0.076018458 0.14361862 0.00063582927)
(-0.0889848 0.14458821 0.00067290081)
(-0.10199776 0.14341631 0.00071300519)
(-0.11494785 0.14023819 0.00075574038)
(-0.12774171 0.13512959 0.00080032115)
(-0.14029407 0.12812085 0.00084560792)
(-0.15252056 0.11921171 0.00089013264)
(-0.16433126 0.10838571 0.00093212751)