/*--------------------------------*- C++ -*----------------------------------*\
  =========                 |
  \\      /  F ield         | OpenFOAM: The Open Source CFD Toolbox
   \\    /   O peration     | Website:  https://openfoam.org
    \\  /    A nd           | Version:  7
     \\/     M anipulation  |
\*---------------------------------------------------------------------------*/
FoamFile
{
    version     2.0;
    format      ascii;
    class       volScalarField;
    location    "5.6";
    object      p;
}
// * * * * * * * * * * * * * * * * * * * * * * * * * * * * * * * * * * * * * //

dimensions      [1 -1 -2 0 0 0 0];

internalField   nonuniform List<scalar> 
19968
(
1
1
1
1
1
1
1
1
1
1
1
1
1
1
1
1
1
1
1
1
1
1
1
1
1
1
1
1
1
1
1
1
1
1
1
1
1
1
1
1
1
1
1
1
1
1
1
1
1.52409
8.00299
10.441
10.4736
10.5302
10.5822
10.6338
10.6871
10.7442
10.8036
10.8617
10.9158
10.9654
11.0127
11.0606
11.1112
11.1627
11.2125
11.2599
11.305
11.3479
11.3899
11.432
11.4747
11.5173
11.5587
11.5981
11.6354
11.6705
11.7033
11.7334
11.7608
11.786
11.8103
11.8346
11.8597
11.8852
11.9102
11.9337
11.9548
11.9733
11.9894
12.0032
12.015
12.0245
12.0317
12.0368
12.0403
1
1
1
1
1
1
1
1
1
1
1
1
1
1
1
1
1
1
1
1
1
1
1
1
1
1
1
1
1
1
1
1
1
1
1
1
1
1
1
1
1
1
1
1
1
1
1
1
1.49661
7.93741
10.4281
10.4682
10.5261
10.5787
10.6309
10.6847
10.7421
10.8014
10.8593
10.9134
10.9631
11.0106
11.0585
11.1088
11.1596
11.2087
11.2554
11.3
11.3428
11.3848
11.4271
11.47
11.5126
11.554
11.5934
11.6307
11.6658
11.6986
11.7288
11.7562
11.7814
11.8057
11.83
11.855
11.8804
11.9053
11.9284
11.9492
11.9674
11.9832
11.9968
12.0083
12.0177
12.0247
12.0297
12.0331
1
1
1
1
1
1
1
1
1
1
1
1
1
1
1
1
1
1
1
1
1
1
1
1
1
1
1
1
1
1
1
1
1
1
1
1
1
1
1
1
1
1
1
1
1
1
1
1
1.43342
7.79419
10.4153
10.4554
10.5149
10.5684
10.6221
10.6769
10.7349
10.7944
10.8525
10.907
10.9569
11.0049
11.053
11.1029
11.1528
11.2011
11.247
11.291
11.3335
11.3755
11.418
11.4609
11.5036
11.5451
11.5846
11.622
11.6573
11.6902
11.7205
11.7479
11.7731
11.7973
11.8215
11.8465
11.8718
11.8966
11.9196
11.9402
11.9582
11.9738
11.9871
11.9983
12.0074
12.0141
12.0188
12.022
1
1
1
1
1
1
1
1
1
1
1
1
1
1
1
1
1
1
1
1
1
1
1
1
1
1
1
1
1
1
1
1
1
1
1
1
1
1
1
1
1
1
1
1
1
1
1
1
1.34266
7.55898
10.3971
10.4396
10.5007
10.5548
10.6099
10.6659
10.7244
10.7843
10.8429
10.898
10.9482
10.9968
11.0451
11.0945
11.1434
11.1904
11.2352
11.2782
11.3201
11.362
11.4045
11.4473
11.4899
11.5315
11.5712
11.609
11.6445
11.6776
11.7079
11.7353
11.7605
11.7845
11.8084
11.8329
11.8577
11.8819
11.9043
11.9244
11.9421
11.9575
11.9708
11.9819
11.9908
11.9974
12.0021
12.0053
1
1
1
1
1
1
1
1
1
1
1
1
1
1
1
1
1
1
1
1
1
1
1
1
1
1
1
1
1
1
1
1
1
1
1
1
1
1
1
1
1
1
1
1
1
1
1
1
1.22214
7.24036
10.3909
10.4279
10.4901
10.5438
10.5981
10.6532
10.7107
10.7701
10.8289
10.8848
10.9359
10.9859
11.0349
11.0842
11.1324
11.1782
11.2217
11.2635
11.3046
11.3461
11.3881
11.4306
11.4729
11.5145
11.5547
11.593
11.6291
11.6626
11.6931
11.7207
11.7459
11.7699
11.7935
11.8175
11.8415
11.8648
11.8864
11.9056
11.9223
11.9367
11.9488
11.9587
11.9665
11.9721
11.9759
11.9786
1
1
1
1
1
1
1
1
1
1
1
1
1
1
1
1
1
1
1
1
1
1
1
1
1
1
1
1
1
1
1
1
1
1
1
1
1
1
1
1
1
1
1
1
1
1
1
1
1.01311
6.71754
10.3882
10.4286
10.4809
10.5361
10.59
10.6448
10.7019
10.7604
10.8183
10.8735
10.9246
10.9751
11.0247
11.074
11.1213
11.1653
11.2065
11.2461
11.2854
11.3256
11.3666
11.4078
11.4488
11.4894
11.5291
11.5673
11.6034
11.637
11.6676
11.6952
11.7203
11.7439
11.767
11.7902
11.8135
11.8363
11.8577
11.8771
11.894
11.9085
11.9206
11.9304
11.9377
11.9428
11.9461
11.9483
1
1
1
1
1
1
1
1
1
1
1
1
1
1
1
1
1
1
1
1
1
1
1
1
1
1
1
1
1
1
1
1
1
1
1
1
1
1
1
1
1
1
1
1
1
1
1
1
1.00007
5.97807
10.2938
10.3853
10.4347
10.4971
10.5524
10.6079
10.6655
10.7242
10.7823
10.8378
10.8892
10.9401
10.9901
11.0394
11.0865
11.1297
11.1701
11.2089
11.2477
11.2876
11.3285
11.3691
11.4094
11.4493
11.4887
11.5269
11.5636
11.5979
11.6292
11.6573
11.6827
11.7061
11.7285
11.7509
11.7735
11.796
11.8174
11.8369
11.8542
11.8688
11.881
11.8904
11.8973
11.9018
11.9044
11.9062
1
1
1
1
1
1
1
1
1
1
1
1
1
1
1
1
1
1
1
1
1
1
1
1
1
1
1
1
1
1
1
1
1
1
1
1
1
1
1
1
1
1
1
1
1
1
1
1
1
5.02419
10.1529
10.3563
10.4036
10.4726
10.5284
10.5838
10.641
10.6991
10.7563
10.8108
10.8618
10.9123
10.9619
11.0103
11.0567
11.0986
11.1375
11.1747
11.2123
11.2513
11.2916
11.3313
11.3703
11.4086
11.4466
11.4839
11.5202
11.5547
11.5864
11.6149
11.64
11.6627
11.6839
11.705
11.7263
11.7479
11.7688
11.7882
11.8054
11.82
11.8318
11.8409
11.8471
11.851
11.8529
11.8544
1
1
1
1
1
1
1
1
1
1
1
1
1
1
1
1
1
1
1
1
1
1
1
1
1
1
1
1
1
1
1
1
1
1
1
1
1
1
1
1
1
1
1
1
1
1
1
1
1
3.93948
9.85723
10.3238
10.3741
10.4462
10.5024
10.5576
10.6135
10.6704
10.726
10.7788
10.8286
10.878
10.9266
10.9734
11.0185
11.059
11.096
11.1311
11.167
11.2047
11.244
11.2823
11.3193
11.3553
11.391
11.4264
11.4616
11.4957
11.5275
11.5559
11.5806
11.6022
11.622
11.6414
11.6614
11.6821
11.7027
11.7221
11.7396
11.7544
11.7665
11.7755
11.7816
11.7855
11.7873
11.7887
1
1
1
1
1
1
1
1
1
1
1
1
1
1
1
1
1
1
1
1
1
1
1
1
1
1
1
1
1
1
1
1
1
1
1
1
1
1
1
1
1
1
1
1
1
1
1
1
1
2.81846
9.29768
10.3045
10.3717
10.4393
10.4896
10.5399
10.5911
10.6443
10.697
10.7472
10.795
10.8425
10.8895
10.9345
10.9779
11.017
11.0521
11.0851
11.1189
11.1549
11.1929
11.2294
11.2636
11.2959
11.3275
11.3591
11.3912
11.4233
11.4538
11.4813
11.505
11.5255
11.5442
11.5625
11.5816
11.6014
11.6214
11.6403
11.657
11.6708
11.6818
11.6898
11.6951
11.6986
11.7002
11.7016
1
1
1
1
1
1
1
1
1
1
1
1
1
1
1
1
1
1
1
1
1
1
1
1
1
1
1
1
1
1
1
1
1
1
1
1
1
1
1
1
1
1
1
1
1
1
1
1
1
1.79096
8.31668
10.3549
10.3427
10.402
10.4489
10.4991
10.5498
10.6016
10.6524
10.7011
10.748
10.795
10.8421
10.8872
10.9295
10.9676
11.0017
11.0332
11.0657
11.1005
11.1373
11.1729
11.2051
11.2341
11.2614
11.2884
11.316
11.3443
11.3716
11.3959
11.4163
11.4333
11.4482
11.4628
11.4783
11.4952
11.5128
11.53
11.5456
11.5588
11.5695
11.5777
11.5834
11.5875
11.5894
11.5915
1
1
1
1
1
1
1
1
1
1
1
1
1
1
1
1
1
1
1
1
1
1
1
1
1
1
1
1
1
1
1
1
1
1
1
1
1
1
1
1
1
1
1
1
1
1
1
1
1
1.02954
6.64893
10.3473
10.3667
10.4005
10.4408
10.4838
10.5281
10.5734
10.6188
10.6626
10.7049
10.7469
10.7892
10.8304
10.8688
10.904
10.9357
10.9642
10.9931
11.0251
11.0592
11.0936
11.1236
11.1497
11.1728
11.1951
11.218
11.242
11.2659
11.2876
11.3055
11.3199
11.3323
11.3445
11.358
11.3733
11.3892
11.4038
11.4157
11.424
11.4292
11.4313
11.4312
11.431
11.4303
11.4308
1
1
1
1
1
1
1
1
1
1
1
1
1
1
1
1
1
1
1
1
1
1
1
1
1
1
1
1
1
1
1
1
1
1
1
1
1
1
1
1
1
1
1
1
1
1
1
1
1
1.00005
4.56086
9.91014
10.1959
10.2614
10.326
10.3801
10.4296
10.4762
10.5207
10.5633
10.604
10.6439
10.6841
10.7246
10.7634
10.7984
10.8296
10.8575
10.8844
10.9149
10.9484
10.9828
11.013
11.0377
11.058
11.0758
11.0935
11.1124
11.1318
11.1496
11.1639
11.1742
11.1815
11.1877
11.1947
11.203
11.2114
11.2181
11.2222
11.2241
11.2249
11.2257
11.2257
11.2262
11.225
11.2253
1
1
1
1
1
1
1
1
1
1
1
1
1
1
1
1
1
1
1
1
1
1
1
1
1
1
1
1
1
1
1
1
1
1
1
1
1
1
1
1
1
1
1
1
1
1
1
1
1
1
2.36217
8.77121
10.1471
10.1946
10.2696
10.3248
10.3748
10.4206
10.4631
10.5023
10.5387
10.5739
10.6094
10.6466
10.6839
10.7176
10.7463
10.771
10.793
10.8174
10.8461
10.8762
10.9034
10.9242
10.9393
10.9503
10.9597
10.9696
10.9808
10.9918
11.0003
11.0049
11.0053
11.0038
11.0031
11.0045
11.0071
11.0084
11.0058
10.9996
10.9894
10.9753
10.9541
10.928
10.8996
10.8753
1
1
1
1
1
1
1
1
1
1
1
1
1
1
1
1
1
1
1
1
1
1
1
1
1
1
1
1
1
1
1
1
1
1
1
1
1
1
1
1
1
1
1
1
1
1
1
1
1
1
1.05694
6.33464
10.2224
10.2359
10.2606
10.2888
10.3182
10.3501
10.384
10.4179
10.45
10.4802
10.51
10.5411
10.574
10.6059
10.6328
10.6548
10.6724
10.6893
10.7109
10.7354
10.7587
10.7757
10.7858
10.7906
10.7914
10.7906
10.7909
10.7926
10.7935
10.7907
10.7824
10.7694
10.7539
10.7375
10.719
10.6951
10.6629
10.6222
10.5747
10.5235
10.4775
10.4354
10.4124
10.399
1
1
1
1
1
1
1
1
1
1
1
1
1
1
1
1
1
1
1
1
1
1
1
1
1
1
1
1
1
1
1
1
1
1
1
1
1
1
1
1
1
1
1
1
1
1
1
1
1
1
1.00008
3.24397
9.30409
10.0656
10.1076
10.1493
10.1859
10.2238
10.2642
10.3047
10.3412
10.3718
10.3977
10.422
10.4473
10.4746
10.5008
10.5225
10.5393
10.5526
10.5663
10.5827
10.5987
10.6106
10.6164
10.6147
10.6059
10.5922
10.5771
10.5632
10.5504
10.5356
10.5152
10.4875
10.4521
10.4106
10.3637
10.3112
10.252
10.1868
10.116
10.0413
9.9519
9.86564
9.74796
9.8367
1
1
1
1
1
1
1
1
1
1
1
1
1
1
1
1
1
1
1
1
1
1
1
1
1
1
1
1
1
1
1
1
1
1
1
1
1
1
1
1
1
1
1
1
1
1
1
1
1
1
1
1.23038
7.33214
10.0833
10.072
10.0875
10.1124
10.1415
10.1779
10.2192
10.2568
10.2864
10.3075
10.3236
10.3385
10.356
10.3769
10.3966
10.4126
10.4236
10.4306
10.4378
10.4456
10.4509
10.4505
10.4424
10.426
10.4023
10.3737
10.3437
10.3143
10.2843
10.2496
10.2058
10.1495
10.0796
9.99619
9.89943
9.78338
9.64252
9.45557
9.20536
8.83049
8.27958
7.35596
5.49006
1
1
1
1
1
1
1
1
1
1
1
1
1
1
1
1
1
1
1
1
1
1
1
1
1
1
1
1
1
1
1
1
1
1
1
1
1
1
1
1
1
1
1
1
1
1
1
1
1
1
1
1.00175
4.63707
9.64089
9.90891
9.95744
9.99776
10.0312
10.0686
10.1127
10.1547
10.1887
10.2119
10.2255
10.2342
10.2437
10.2581
10.2753
10.29
10.2999
10.304
10.3064
10.3082
10.3067
10.2994
10.2849
10.2633
10.2345
10.1981
10.1557
10.1102
10.063
10.0116
9.95126
9.87542
9.78057
9.66237
9.52296
9.35033
9.1429
8.86593
8.51124
7.99942
7.35576
6.1311
4.52305
1
1
1
1
1
1
1
1
1
1
1
1
1
1
1
1
1
1
1
1
1
1
1
1
1
1
1
1
1
1
1
1
1
1
1
1
1
1
1
1
1
1
1
1
1
1
1
1
1
1
1
0.999996
1.94285
8.22751
9.86689
9.89395
9.9357
9.96322
9.99548
10.036
10.0752
10.1093
10.1327
10.1432
10.1452
10.1466
10.1527
10.1641
10.1756
10.1832
10.1835
10.1805
10.1753
10.1659
10.1499
10.1264
10.0963
10.0603
10.0169
9.96484
9.90492
9.84008
9.76934
9.69036
9.59444
9.47721
9.3297
9.15429
8.93888
8.67933
8.35344
7.93659
7.41306
6.64728
5.64081
4.52841
1
1
1
1
1
1
1
1
1
1
1
1
1
1
1
1
1
1
1
1
1
1
1
1
1
1
1
1
1
1
1
1
1
1
1
1
1
1
1
1
1
1
1
1
1
1
1
1
1
1
1
0.999999
1.03205
5.34335
9.64709
9.83331
9.87979
9.9176
9.94501
9.96974
9.98714
10.0086
10.0284
10.0386
10.0407
10.0409
10.0442
10.0513
10.0583
10.06
10.0549
10.0451
10.0323
10.016
9.99383
9.96323
9.92488
9.88053
9.82911
9.76907
9.69814
9.61934
9.53137
9.43452
9.31984
9.18286
9.0143
8.81374
8.57396
8.28581
7.93937
7.50717
6.98478
6.31308
5.55028
4.7054
1
1
1
1
1
1
1
1
1
1
1
1
1
1
1
1
1
1
1
1
1
1
1
1
1
1
1
1
1
1
1
1
1
1
1
1
1
1
1
1
1
1
1
1
1
1
1
1
1
1
1
1
1
2.14571
8.35097
9.81711
9.80564
9.84679
9.87415
9.89803
9.91228
9.92573
9.93784
9.94296
9.9425
9.93935
9.93872
9.94055
9.94143
9.93715
9.92627
9.90945
9.88829
9.86408
9.83618
9.80168
9.75813
9.70581
9.64427
9.57464
9.49415
9.40527
9.30507
9.19336
9.06292
8.9096
8.72741
8.51461
8.26685
7.97375
7.6315
7.21293
6.73503
6.17641
5.58383
4.91581
1
1
1
1
1
1
1
1
1
1
1
1
1
1
1
1
1
1
1
1
1
1
1
1
1
1
1
1
1
1
1
1
1
1
1
1
1
1
1
1
1
1
1
1
1
1
1
1
1
1
1
1
0.999999
1.04313
5.3771
9.66395
9.75106
9.77477
9.79307
9.80814
9.81982
9.83185
9.84372
9.84921
9.84952
9.8437
9.83808
9.83325
9.82763
9.818
9.80209
9.77791
9.74601
9.71094
9.67549
9.63802
9.59245
9.53524
9.46499
9.38547
9.2963
9.19957
9.09157
8.97019
8.82908
8.66463
8.47396
8.25638
8.01037
7.72551
7.4039
7.02336
6.60138
6.13372
5.64941
5.1074
1
1
1
1
1
1
1
1
1
1
1
1
1
1
1
1
1
1
1
1
1
1
1
1
1
1
1
1
1
1
1
1
1
1
1
1
1
1
1
1
1
1
1
1
1
1
1
1
1
1
1
1
1
1.00004
1.96997
8.13787
9.75893
9.71908
9.72905
9.73196
9.73269
9.73559
9.74345
9.75
9.75312
9.74687
9.73677
9.72184
9.70613
9.69151
9.67184
9.6448
9.60688
9.56325
9.51952
9.47604
9.42676
9.36563
9.28933
9.20315
9.109
9.0077
8.89544
8.76844
8.62139
8.45144
8.25755
8.0402
7.80087
7.52911
7.23203
6.89637
6.53194
6.13495
5.72186
5.2666
1
1
1
1
1
1
1
1
1
1
1
1
1
1
1
1
1
1
1
1
1
1
1
1
1
1
1
1
1
1
1
1
1
1
1
1
1
1
1
1
1
1
1
1
1
1
1
1
1
1
1
1
1
1
1.02932
4.77604
9.36956
9.63508
9.63462
9.64124
9.65175
9.65559
9.66035
9.66586
9.66918
9.66375
9.65114
9.62697
9.5999
9.57621
9.54978
9.51966
9.47738
9.42744
9.37525
9.32311
9.26673
9.20039
9.11975
9.0303
8.93401
8.83018
8.71537
8.58561
8.43705
8.26735
8.0767
7.86393
7.6346
7.37629
7.09934
6.80713
6.48708
6.14693
5.78671
5.40659
1
1
1
1
1
1
1
1
1
1
1
1
1
1
1
1
1
1
1
1
1
1
1
1
1
1
1
1
1
1
1
1
1
1
1
1
1
1
1
1
1
1
1
1
1
1
1
1
1
1
1
1
1
1
1.00002
1.48764
7.51663
9.66292
9.61228
9.60077
9.58378
9.57512
9.56863
9.56618
9.56396
9.55723
9.54351
9.51655
9.48371
9.45295
9.42192
9.38961
9.34599
9.29561
9.24003
9.18072
9.11585
9.04235
8.9579
8.86814
8.77248
8.66848
8.55271
8.42164
8.27324
8.1061
7.92372
7.71833
7.50435
7.25971
7.00406
6.74379
6.45359
6.15728
5.84062
5.51922
1
1
1
1
1
1
1
1
1
1
1
1
1
1
1
1
1
1
1
1
1
1
1
1
1
1
1
1
1
1
1
1
1
1
1
1
1
1
1
1
1
1
1
1
1
1
1
1
1
1
1
1
1
1
1
1.00709
3.78644
8.9493
9.42267
9.46151
9.47991
9.47571
9.46475
9.45326
9.44258
9.43275
9.42324
9.40109
9.36939
9.33358
9.29744
9.26122
9.21665
9.16817
9.11159
9.04593
8.97311
8.89365
8.80674
8.71781
8.62331
8.51957
8.40379
8.27293
8.12676
7.96404
7.79254
7.5955
7.39809
7.1705
6.94016
6.69755
6.43478
6.17138
5.89124
5.60845
1
1
1
1
1
1
1
1
1
1
1
1
1
1
1
1
1
1
1
1
1
1
1
1
1
1
1
1
1
1
1
1
1
1
1
1
1
1
1
1
1
1
1
1
1
1
1
1
1
1
1
1
1
1
1
1
1.20732
6.18928
9.38434
9.41022
9.39792
9.38617
9.37662
9.36121
9.34436
9.32901
9.31884
9.29966
9.26593
9.22508
9.18326
9.14153
9.09532
9.04773
8.99151
8.92341
8.8457
8.76185
8.6734
8.58433
8.48998
8.38601
8.27099
8.14113
7.99771
7.83928
7.67609
7.4889
7.30731
7.09878
6.89074
6.6636
6.43152
6.18891
5.93772
5.67798
1
1
1
1
1
1
1
1
1
1
1
1
1
1
1
1
1
1
1
1
1
1
1
1
1
1
1
1
1
1
1
1
1
1
1
1
1
1
1
1
1
1
1
1
1
1
1
1
1
1
1
1
1
1
1
1
1.00131
2.14471
8.00493
9.30671
9.26132
9.26918
9.26914
9.26127
9.24498
9.22575
9.21071
9.19308
9.16043
9.11916
9.07495
9.02861
8.98015
8.93019
8.87265
8.80459
8.72538
8.64013
8.55249
8.46181
8.36731
8.26239
8.14875
8.02211
7.8849
7.73069
7.57327
7.40026
7.22919
7.03827
6.84728
6.64054
6.43208
6.20409
5.98057
5.74136
1
1
1
1
1
1
1
1
1
1
1
1
1
1
1
1
1
1
1
1
1
1
1
1
1
1
1
1
1
1
1
1
1
1
1
1
1
1
1
1
1
1
1
1
1
1
1
1
1
1
1
1
1
1
1
1
1
1.03749
4.13621
8.87528
9.16172
9.18174
9.18665
9.17686
9.1584
9.13495
9.11307
9.09093
9.05729
9.01666
8.97419
8.92848
8.87952
8.82638
8.76358
8.6947
8.61563
8.53143
8.44388
8.35466
8.25937
8.15512
8.0412
7.91857
7.78749
7.63917
7.48817
7.32881
7.16417
6.98879
6.80948
6.62238
6.42759
6.21677
6.01588
5.79456
1
1
1
1
1
1
1
1
1
1
1
1
1
1
1
1
1
1
1
1
1
1
1
1
1
1
1
1
1
1
1
1
1
1
1
1
1
1
1
1
1
1
1
1
1
1
1
1
1
1
1
1
1
1
1
1
1
1.00007
1.25161
5.70369
8.99514
9.15845
9.1417
9.13023
9.10406
9.06796
9.03584
9.0056
8.96756
8.92354
8.87963
8.8351
8.78659
8.73135
8.6646
8.59345
8.51601
8.43256
8.3459
8.25516
8.16072
8.05769
7.94399
7.8249
7.69603
7.55891
7.416
7.26836
7.11131
6.94858
6.77767
6.60559
6.4216
6.23028
6.04526
5.84063
1
1
1
1
1
1
1
1
1
1
1
1
1
1
1
1
1
1
1
1
1
1
1
1
1
1
1
1
1
1
1
1
1
1
1
1
1
1
1
1
1
1
1
1
1
1
1
1
1
1
1
1
1
1
1
1
1
1
1.002
1.61913
7.20249
9.15806
9.10383
9.07238
9.02337
8.97962
8.93997
8.90476
8.86565
8.82321
8.77926
8.73614
8.69068
8.63632
8.57043
8.49759
8.42206
8.33811
8.25195
8.16194
8.0686
7.96833
7.85804
7.74246
7.62032
7.49221
7.35739
7.21846
7.06855
6.91559
6.75283
6.59146
6.41827
6.24312
6.06894
5.87885
1
1
1
1
1
1
1
1
1
1
1
1
1
1
1
1
1
1
1
1
1
1
1
1
1
1
1
1
1
1
1
1
1
1
1
1
1
1
1
1
1
1
1
1
1
1
1
1
1
1
1
1
1
1
1
1
1
1
1
1.01103
2.97085
8.28366
8.9649
8.90251
8.87216
8.84552
8.82115
8.79311
8.76116
8.72501
8.68515
8.64123
8.59566
8.5446
8.48032
8.40946
8.33668
8.25479
8.16935
8.0801
7.98779
7.88826
7.78159
7.67023
7.55381
7.43189
7.30446
7.17262
7.03028
6.88561
6.73195
6.58001
6.41734
6.25573
6.0901
5.91412
1
1
1
1
1
1
1
1
1
1
1
1
1
1
1
1
1
1
1
1
1
1
1
1
1
1
1
1
1
1
1
1
1
1
1
1
1
1
1
1
1
1
1
1
1
1
1
1
1
1
1
1
1
1
1
1
1
1
1
1.00002
1.10177
4.31504
8.59467
8.79547
8.76801
8.77004
8.75692
8.7335
8.7005
8.66053
8.61653
8.56872
8.51809
8.4679
8.40478
8.33554
8.26383
8.18351
8.09845
8.00945
7.9175
7.82031
7.7164
7.60862
7.49703
7.38001
7.25892
7.13309
6.99868
6.86087
6.71594
6.57162
6.41876
6.26789
6.10833
5.94499
1
1
1
1
1
1
1
1
1
1
1
1
1
1
1
1
1
1
1
1
1
1
1
1
1
1
1
1
1
1
1
1
1
1
1
1
1
1
1
1
1
1
1
1
1
1
1
1
1
1
1
1
1
1
1
1
1
1
1
1
1.00046
1.28452
5.14337
8.57426
8.71126
8.71185
8.70372
8.67942
8.6465
8.60522
8.5578
8.50543
8.44929
8.39379
8.33044
8.26333
8.19198
8.11429
8.03193
7.94515
7.85449
7.75959
7.65888
7.55267
7.44452
7.3321
7.21671
7.09632
6.96956
6.83852
6.70182
6.56309
6.41936
6.27716
6.124
5.97174
1
1
1
1
1
1
1
1
1
1
1
1
1
1
1
1
1
1
1
1
1
1
1
1
1
1
1
1
1
1
1
1
1
1
1
1
1
1
1
1
1
1
1
1
1
1
1
1
1
1
1
1
1
1
1
1
1
1
1
1
1
1.00266
1.47787
5.81013
8.5777
8.68509
8.65698
8.62649
8.59106
8.54877
8.5009
8.44791
8.39067
8.33109
8.26722
8.20042
8.1289
8.05251
7.97223
7.88809
7.79978
7.70734
7.61
7.50637
7.39914
7.29049
7.18014
7.06453
6.94325
6.81693
6.6867
6.55315
6.41767
6.28322
6.13864
5.99539
1
1
1
1
1
1
1
1
1
1
1
1
1
1
1
1
1
1
1
1
1
1
1
1
1
1
1
1
1
1
1
1
1
1
1
1
1
1
1
1
1
1
1
1
1
1
1
1
1
1
1
1
1
1
1
1
1
1
1
1
1
1
1.00687
1.69789
6.39458
8.551
8.60348
8.57415
8.53408
8.49165
8.44377
8.39081
8.33342
8.27318
8.20937
8.14091
8.06836
7.99253
7.91392
7.8323
7.7469
7.65728
7.56291
7.46283
7.3574
7.25162
7.14497
7.0334
6.91635
6.79467
6.6711
6.54378
6.41544
6.28801
6.15329
6.01714
1
1
1
1
1
1
1
1
1
1
1
1
1
1
1
1
1
1
1
1
1
1
1
1
1
1
1
1
1
1
1
1
1
1
1
1
1
1
1
1
1
1
1
1
1
1
1
1
1
1
1
1
1
1
1
1
1
1
1
1
1
1
1.00001
1.01384
1.95423
6.82881
8.51643
8.52679
8.4939
8.4468
8.39724
8.34139
8.28041
8.21882
8.15426
8.08526
8.013
7.93822
7.86115
7.78146
7.69848
7.61153
7.51986
7.42274
7.32048
7.21751
7.11318
7.00487
6.89213
6.77618
6.65938
6.53827
6.41518
6.29441
6.16933
6.0396
1
1
1
1
1
1
1
1
1
1
1
1
1
1
1
1
1
1
1
1
1
1
1
1
1
1
1
1
1
1
1
1
1
1
1
1
1
1
1
1
1
1
1
1
1
1
1
1
1
1
1
1
1
1
1
1
1
1
1
1
1
1
1
1.00003
1.02498
2.20527
7.18496
8.47834
8.45215
8.40395
8.34828
8.2879
8.22718
8.16491
8.09813
8.02952
7.95881
7.88605
7.81091
7.73286
7.65129
7.56588
7.47598
7.3816
7.28391
7.18503
7.0841
6.97979
6.8719
6.76108
6.64978
6.53437
6.41524
6.30041
6.1836
6.06027
1
1
1
1
1
1
1
1
1
1
1
1
1
1
1
1
1
1
1
1
1
1
1
1
1
1
1
1
1
1
1
1
1
1
1
1
1
1
1
1
1
1
1
1
1
1
1
1
1
1
1
1
1
1
1
1
1
1
1
1
1
1
1
1
1.00007
1.03922
2.51421
7.43107
8.39144
8.34734
8.299
8.2366
8.17316
8.11111
8.04795
7.98315
7.91557
7.8447
7.77037
7.69231
7.61038
7.52467
7.43546
7.34388
7.25071
7.15609
7.05879
6.95813
6.85445
6.74794
6.64175
6.53198
6.4169
6.30691
6.19679
6.08007
1
1
1
1
1
1
1
1
1
1
1
1
1
1
1
1
1
1
1
1
1
1
1
1
1
1
1
1
1
1
1
1
1
1
1
1
1
1
1
1
1
1
1
1
1
1
1
1
1
1
1
1
1
1
1
1
1
1
1
1
1
1
1
1
1
1.00014
1.06109
2.80626
7.51392
8.28334
8.22902
8.17424
8.12144
8.06224
8.00265
7.93979
7.87378
7.80435
7.73077
7.65312
7.57164
7.48691
7.3998
7.3112
7.2215
7.13043
7.03637
6.939
6.83874
6.73597
6.63391
6.52917
6.41886
6.31271
6.20778
6.09706
1
1
1
1
1
1
1
1
1
1
1
1
1
1
1
1
1
1
1
1
1
1
1
1
1
1
1
1
1
1
1
1
1
1
1
1
1
1
1
1
1
1
1
1
1
1
1
1
1
1
1
1
1
1
1
1
1
1
1
1
1
1
1
1
1
1
1.00027
1.08694
2.92215
7.46067
8.17279
8.12729
8.07659
8.02434
7.96815
7.90728
7.84164
7.77074
7.69567
7.61825
7.53795
7.45524
7.37076
7.28491
7.19764
7.10821
7.01587
6.9208
6.82329
6.72432
6.62559
6.52544
6.42053
6.31756
6.21668
6.11114
1
1
1
1
1
1
1
1
1
1
1
1
1
1
1
1
1
1
1
1
1
1
1
1
1
1
1
1
1
1
1
1
1
1
1
1
1
1
1
1
1
1
1
1
1
1
1
1
1
1
1
1
1
1
1
1
1
1
1
1
1
1
1
1
1
1
1
1.00046
1.10009
2.88535
7.34771
8.08894
8.04576
7.99491
7.93727
7.87451
7.80819
7.73704
7.66228
7.58563
7.50651
7.42583
7.34362
7.25984
7.17414
7.08613
6.9959
6.90339
6.80922
6.71411
6.61813
6.52168
6.42122
6.32165
6.22371
6.12211
1
1
1
1
1
1
1
1
1
1
1
1
1
1
1
1
1
1
1
1
1
1
1
1
1
1
1
1
1
1
1
1
1
1
1
1
1
1
1
1
1
1
1
1
1
1
1
1
1
1
1
1
1
1
1
1
1
1
1
1
1
1
1
1
1
1
1
1
1.00059
1.09781
2.83016
7.17501
7.99426
7.95963
7.89862
7.83652
7.76725
7.69759
7.62759
7.55382
7.4774
7.39907
7.31907
7.23722
7.15329
7.06717
6.97888
6.8889
6.79788
6.70566
6.6131
6.51912
6.42288
6.32676
6.23083
6.13314
1
1
1
1
1
1
1
1
1
1
1
1
1
1
1
1
1
1
1
1
1
1
1
1
1
1
1
1
1
1
1
1
1
1
1
1
1
1
1
1
1
1
1
1
1
1
1
1
1
1
1
1
1
1
1
1
1
1
1
1
1
1
1
1
1
1
1
1
1
1.00058
1.09246
2.71409
6.93185
7.89205
7.86553
7.79787
7.73158
7.66246
7.59347
7.52214
7.44906
7.37344
7.29529
7.21472
7.13226
7.04775
6.96187
6.87519
6.78734
6.69875
6.60911
6.51764
6.42619
6.33275
6.24083
6.14737
1
1
1
1
1
1
1
1
1
1
1
1
1
1
1
1
1
1
1
1
1
1
1
1
1
1
1
1
1
1
1
1
1
1
1
1
1
1
1
1
1
1
1
1
1
1
1
1
1
1
1
1
1
1
1
1
1
1
1
1
1
1
1
1
1
1
1
1
1
1
1.00054
1.08138
2.53835
6.60975
7.76979
7.76244
7.69333
7.63179
7.56404
7.49438
7.42254
7.34858
7.27204
7.19335
7.11282
7.03085
6.94796
6.86407
6.77929
6.69392
6.60695
6.51999
6.43185
6.343
6.25434
6.16325
1
1
1
1
1
1
1
1
1
1
1
1
1
1
1
1
1
1
1
1
1
1
1
1
1
1
1
1
1
1
1
1
1
1
1
1
1
1
1
1
1
1
1
1
1
1
1
1
1
1
1
1
1
1
1
1
1
1
1
1
1
1
1
1
1
1
1
1
1
1
1
1.00045
1.06586
2.31986
6.1619
7.64121
7.67261
7.60281
7.53775
7.46708
7.39566
7.32234
7.24771
7.17149
7.09414
7.01546
6.93607
6.85564
6.77496
6.69324
6.61111
6.5275
6.44258
6.35738
6.27043
6.18168
1
1
1
1
1
1
1
1
1
1
1
1
1
1
1
1
1
1
1
1
1
1
1
1
1
1
1
1
1
1
1
1
1
1
1
1
1
1
1
1
1
1
1
1
1
1
1
1
1
1
1
1
1
1
1
1
1
1
1
1
1
1
1
1
1
1
1
1
1
1
1
1
1.00033
1.04898
2.06096
5.58938
7.48253
7.60011
7.50605
7.43793
7.36745
7.29644
7.22479
7.152
7.07813
7.00338
6.92811
6.85213
6.77531
6.69776
6.61816
6.53816
6.45466
6.37138
6.2829
6.19935
1
1
1
1
1
1
1
1
1
1
1
1
1
1
1
1
1
1
1
1
1
1
1
1
1
1
1
1
1
1
1
1
1
1
1
1
1
1
1
1
1
1
1
1
1
1
1
1
1
1
1
1
1
1
1
1
1
1
1
1
1
1
1
1
1
1
1
1
1
1
1
1
1
1.00022
1.03248
1.79097
4.85296
7.30126
7.49713
7.41331
7.34924
7.28351
7.21547
7.14541
7.07532
7.00367
6.93141
6.8576
6.78304
6.70787
6.63017
6.55009
6.46752
6.38361
6.29748
6.20829
1
1
1
1
1
1
1
1
1
1
1
1
1
1
1
1
1
1
1
1
1
1
1
1
1
1
1
1
1
1
1
1
1
1
1
1
1
1
1
1
1
1
1
1
1
1
1
1
1
1
1
1
1
1
1
1
1
1
1
1
1
1
1
1
1
1
1
1
1
1
1
1
1
1
1.00012
1.01909
1.5277
4.0773
6.99826
7.39766
7.34202
7.28293
7.21195
7.14411
7.07483
7.00392
6.9333
6.8612
6.78901
6.71062
6.63373
6.55151
6.47369
6.39174
6.33567
6.28067
1
1
1
1
1
1
1
1
1
1
1
1
1
1
1
1
1
1
1
1
1
1
1
1
1
1
1
1
1
1
1
1
1
1
1
1
1
1
1
1
1
1
1
1
1
1
1
1
1
1
1
1
1
1
1
1
1
1
1
1
1
1
1
1
1
1
1
1
1
1
1
1
1
1
1
1.00006
1.00956
1.31727
3.32352
6.55293
7.29422
7.29184
7.20414
7.14001
7.07135
7.00614
6.9383
6.86486
6.78824
6.71252
6.63338
6.56743
6.51314
6.49514
6.56605
6.77557
1
1
1
1
1
1
1
1
1
1
1
1
1
1
1
1
1
1
1
1
1
1
1
1
1
1
1
1
1
1
1
1
1
1
1
1
1
1
1
1
1
1
1
1
1
1
1
1
1
1
1
1
1
1
1
1
1
1
1
1
1
1
1
1
1
1
1
1
1
1
1
1
1
1
1
1
1.00002
1.00413
1.17174
2.65813
5.8922
7.14366
7.26264
7.14312
7.07779
7.0145
6.93448
6.86557
6.78476
6.7252
6.69391
6.72553
6.87095
7.19927
7.67579
8.16196
1
1
1
1
1
1
1
1
1
1
1
1
1
1
1
1
1
1
1
1
1
1
1
1
1
1
1
1
1
1
1
1
1
1
1
1
1
1
1
1
1
1
1
1
1
1
1
1
1
1
1
1
1
1
1
1
1
1
1
1
1
1
1
1
1
1
1
1
1
1
1
1
1
1
1
1
1
1.00001
1.00157
1.08415
2.09177
5.00921
6.95893
7.14452
7.0879
7.01653
6.91949
6.86061
6.85357
6.94923
7.21455
7.65347
8.21636
8.72614
9.08347
9.22394
1
1
1
1
1
1
1
1
1
1
1
1
1
1
1
1
1
1
1
1
1
1
1
1
1
1
1
1
1
1
1
1
1
1
1
1
1
1
1
1
1
1
1
1
1
1
1
1
1
1
1
1
1
1
1
1
1
1
1
1
1
1
1
1
1
1
1
1
1
1
1
1
1
1
1
1
1
1
1
1.00052
1.03671
1.64244
4.01947
6.58412
7.057
6.94391
6.99886
7.20255
7.6075
8.21936
8.84757
9.30779
9.54961
9.5961
9.56525
9.45673
1
1
1
1
1
1
1
1
1
1
1
1
1
1
1
1
1
1
1
1
1
1
1
1
1
1
1
1
1
1
1
1
1
1
1
1
1
1
1
1
1
1
1
1
1
1
1
1
1
1
1
1
1
1
1
1
1
1
1
1
1
1
1
1
1
1
1
1
1
1
1
1
1
1
1
1
1
1
1
1
1.00015
1.01413
1.32716
3.06745
5.99564
6.90624
8.18211
8.83244
9.45644
9.8666
10.0551
10.0849
10.0066
9.8624
9.70237
9.52292
1
1
1
1
1
1
1
1
1
1
1
1
1
1
1
1
1
1
1
1
1
1
1
1
1
1
1
1
1
1
1
1
1
1
1
1
1
1
1
1
1
1
1
1
1
1
1
1
1
1
1
1
1
1
1
1
1
1
1
1
1
1
1
1
1
1
1
1
1
1
1
1
1
1
1
1
1
1
1
1
1
1.00004
1.00445
1.14468
2.21575
7.25086
10.6001
10.6121
10.5704
10.4751
10.3548
10.2265
10.0622
9.86656
9.70222
9.57592
1
1
1
1
1
1
1
1
1
1
1
1
1
1
1
1
1
1
1
1
1
1
1
1
1
1
1
1
1
1
1
1
1
1
1
1
1
1
1
1
1
1
1
1
1
1
1
1
1
1
1
1
1
1
1
1
1
1
1
1
1
1
1
1
1
1
1
1
1
1
1
1
1
1
1
1
1
1
1
1
1
1
1.00001
1.00142
1.0456
7.0241
11.2925
10.945
10.7082
10.4832
10.287
10.1265
9.97918
9.84968
9.74817
9.67703
1
1
1
1
1
1
1
1
1
1
1
1
1
1
1
1
1
1
1
1
1
1
1
1
1
1
1
1
1
1
1
1
1
1
1
1
1
1
1
1
1
1
1
1
1
1
1
1
1
1
1
1
1
1
1
1
1
1
1
1
1
1
1
1
1
1
1
1
1
1
1
1
1
1
1
1
1
1
1
1
1
1
1
1
1.00013
6.13994
10.6186
10.4586
10.3725
10.2656
10.1737
10.0936
10.017
9.9527
9.88909
9.82296
1
1
1
1
1
1
1
1
1
1
1
1
1
1
1
1
1
1
1
1
1
1
1
1
1
1
1
1
1
1
1
1
1
1
1
1
1
1
1
1
1
1
1
1
1
1
1
1
1
1
1
1
1
1
1
1
1
1
1
1
1
1
1
1
1
1
1
1
1
1
1
1
1
1
1
1
1
1
1
1
1
1
1
1
1
4.49129
9.99203
10.3031
10.3096
10.2946
10.2388
10.1791
10.1163
10.059
9.99889
9.93282
1
1
1
1
1
1
1
1
1
1
1
1
1
1
1
1
1
1
1
1
1
1
1
1
1
1
1
1
1
1
1
1
1
1
1
1
1
1
1
1
1
1
1
1
1
1
1
1
1
1
1
1
1
1
1
1
1
1
1
1
1
1
1
1
1
1
1
1
1
1
1
1
1
1
1
1
1
1
1
1
1
1
1
1
1
2.87183
9.18213
10.2792
10.2293
10.2184
10.2071
10.1764
10.138
10.0964
10.054
10.0041
1
1
1
1
1
1
1
1
1
1
1
1
1
1
1
1
1
1
1
1
1
1
1
1
1
1
1
1
1
1
1
1
1
1
1
1
1
1
1
1
1
1
1
1
1
1
1
1
1
1
1
1
1
1
1
1
1
1
1
1
1
1
1
1
1
1
1
1
1
1
1
1
1
1
1
1
1
1
1
1
1
1
1
1
1
1.62047
8.09063
10.378
10.312
10.2746
10.2311
10.1986
10.1635
10.1213
10.0748
10.0244
1
1
1
1
1
1
1
1
1
1
1
1
1
1
1
1
1
1
1
1
1
1
1
1
1
1
1
1
1
1
1
1
1
1
1
1
1
1
1
1
1
1
1
1
1
1
1
1
1
1
1
1
1
1
1
1
1
1
1
1
1
1
1
1
1
1
1
1
1
1
1
1
1
1
1
1
1
1
1
1
1
1
1
1
1
1.01921
6.5778
10.3128
10.3257
10.2626
10.2279
10.1956
10.1636
10.1314
10.0938
10.0497
1
1
1
1
1
1
1
1
1
1
1
1
1
1
1
1
1
1
1
1
1
1
1
1
1
1
1
1
1
1
1
1
1
1
1
1
1
1
1
1
1
1
1
1
1
1
1
1
1
1
1
1
1
1
1
1
1
1
1
1
1
1
1
1
1
1
1
1
1
1
1
1
1
1
1
1
1
1
1
1
1
1
1
1
1
1.00001
4.91037
10.0081
10.3056
10.2646
10.2408
10.2072
10.1705
10.1321
10.0892
10.0459
1
1
1
1
1
1
1
1
1
1
1
1
1
1
1
1
1
1
1
1
1
1
1
1
1
1
1
1
1
1
1
1
1
1
1
1
1
1
1
1
1
1
1
1
1
1
1
1
1
1
1
1
1
1
1
1
1
1
1
1
1
1
1
1
1
1
1
1
1
1
1
1
1
1
1
1
1
1
1
1
1
1
1
1
1
1
3.40741
9.53445
10.3536
10.2969
10.2651
10.2229
10.1812
10.142
10.1017
10.0606
1
1
1
1
1
1
1
1
1
1
1
1
1
1
1
1
1
1
1
1
1
1
1
1
1
1
1
1
1
1
1
1
1
1
1
1
1
1
1
1
1
1
1
1
1
1
1
1
1
1
1
1
1
1
1
1
1
1
1
1
1
1
1
1
1
1
1
1
1
1
1
1
1
1
1
1
1
1
1
1
1
1
1
1
1
1
2.19298
8.84688
10.4137
10.3392
10.2984
10.2516
10.2058
10.1622
10.1196
10.0769
1
1
1
1
1
1
1
1
1
1
1
1
1
1
1
1
1
1
1
1
1
1
1
1
1
1
1
1
1
1
1
1
1
1
1
1
1
1
1
1
1
1
1
1
1
1
1
1
1
1
1
1
1
1
1
1
1
1
1
1
1
1
1
1
1
1
1
1
1
1
1
1
1
1
1
1
1
1
1
1
1
1
1
1
1
1
1.39873
7.78059
10.4656
10.3742
10.3165
10.2642
10.2178
10.1736
10.1318
10.0904
1
1
1
1
1
1
1
1
1
1
1
1
1
1
1
1
1
1
1
1
1
1
1
1
1
1
1
1
1
1
1
1
1
1
1
1
1
1
1
1
1
1
1
1
1
1
1
1
1
1
1
1
1
1
1
1
1
1
1
1
1
1
1
1
1
1
1
1
1
1
1
1
1
1
1
1
1
1
1
1
1
1
1
1
1
1
1.00908
6.56019
10.3794
10.3897
10.3248
10.2814
10.237
10.1932
10.151
10.109
1
1
1
1
1
1
1
1
1
1
1
1
1
1
1
1
1
1
1
1
1
1
1
1
1
1
1
1
1
1
1
1
1
1
1
1
1
1
1
1
1
1
1
1
1
1
1
1
1
1
1
1
1
1
1
1
1
1
1
1
1
1
1
1
1
1
1
1
1
1
1
1
1
1
1
1
1
1
1
1
1
1
1
1
1
1
1.00001
5.35047
10.1751
10.3633
10.3071
10.2755
10.2374
10.1978
10.1573
10.1153
1
1
1
1
1
1
1
1
1
1
1
1
1
1
1
1
1
1
1
1
1
1
1
1
1
1
1
1
1
1
1
1
1
1
1
1
1
1
1
1
1
1
1
1
1
1
1
1
1
1
1
1
1
1
1
1
1
1
1
1
1
1
1
1
1
1
1
1
1
1
1
1
1
1
1
1
1
1
1
1
1
1
1
1
1
1
1
4.20521
9.90874
10.3885
10.3268
10.2972
10.2599
10.2212
10.1807
10.1386
1
1
1
1
1
1
1
1
1
1
1
1
1
1
1
1
1
1
1
1
1
1
1
1
1
1
1
1
1
1
1
1
1
1
1
1
1
1
1
1
1
1
1
1
1
1
1
1
1
1
1
1
1
1
1
1
1
1
1
1
1
1
1
1
1
1
1
1
1
1
1
1
1
1
1
1
1
1
1
1
1
1
1
1
1
1
1
3.21025
9.56606
10.4135
10.3387
10.3067
10.2684
10.2303
10.1906
10.1496
1
1
1
1
1
1
1
1
1
1
1
1
1
1
1
1
1
1
1
1
1
1
1
1
1
1
1
1
1
1
1
1
1
1
1
1
1
1
1
1
1
1
1
1
1
1
1
1
1
1
1
1
1
1
1
1
1
1
1
1
1
1
1
1
1
1
1
1
1
1
1
1
1
1
1
1
1
1
1
1
1
1
1
1
1
1
1
2.41913
9.11145
10.4248
10.3496
10.315
10.2768
10.2404
10.2027
10.1637
1
1
1
1
1
1
1
1
1
1
1
1
1
1
1
1
1
1
1
1
1
1
1
1
1
1
1
1
1
1
1
1
1
1
1
1
1
1
1
1
1
1
1
1
1
1
1
1
1
1
1
1
1
1
1
1
1
1
1
1
1
1
1
1
1
1
1
1
1
1
1
1
1
1
1
1
1
1
1
1
1
1
1
1
1
1
1
1.86561
8.53972
10.4271
10.3625
10.327
10.288
10.2509
10.2137
10.176
1
1
1
1
1
1
1
1
1
1
1
1
1
1
1
1
1
1
1
1
1
1
1
1
1
1
1
1
1
1
1
1
1
1
1
1
1
1
1
1
1
1
1
1
1
1
1
1
1
1
1
1
1
1
1
1
1
1
1
1
1
1
1
1
1
1
1
1
1
1
1
1
1
1
1
1
1
1
1
1
1
1
1
1
1
1
1
1.49493
7.91311
10.4124
10.3647
10.3248
10.2886
10.2519
10.2162
10.181
1
1
1
1
1
1
1
1
1
1
1
1
1
1
1
1
1
1
1
1
1
1
1
1
1
1
1
1
1
1
1
1
1
1
1
1
1
1
1
1
1
1
1
1
1
1
1
1
1
1
1
1
1
1
1
1
1
1
1
1
1
1
1
1
1
1
1
1
1
1
1
1
1
1
1
1
1
1
1
1
1
1
1
1
1
1
1
1.20724
7.24042
10.3967
10.3826
10.3365
10.3069
10.2712
10.2351
10.1985
1
1
1
1
1
1
1
1
1
1
1
1
1
1
1
1
1
1
1
1
1
1
1
1
1
1
1
1
1
1
1
1
1
1
1
1
1
1
1
1
1
1
1
1
1
1
1
1
1
1
1
1
1
1
1
1
1
1
1
1
1
1
1
1
1
1
1
1
1
1
1
1
1
1
1
1
1
1
1
1
1
1
1
1
1
1
1
1.0047
6.60571
10.3826
10.4201
10.3592
10.3258
10.2867
10.2487
10.21
1
1
1
1
1
1
1
1
1
1
1
1
1
1
1
1
1
1
1
1
1
1
1
1
1
1
1
1
1
1
1
1
1
1
1
1
1
1
1
1
1
1
1
1
1
1
1
1
1
1
1
1
1
1
1
1
1
1
1
1
1
1
1
1
1
1
1
1
1
1
1
1
1
1
1
1
1
1
1
1
1
1
1
1
1
1
1
1.00001
5.93441
10.3283
10.4321
10.3683
10.3349
10.2959
10.2579
10.2194
1
1
1
1
1
1
1
1
1
1
1
1
1
1
1
1
1
1
1
1
1
1
1
1
1
1
1
1
1
1
1
1
1
1
1
1
1
1
1
1
1
1
1
1
1
1
1
1
1
1
1
1
1
1
1
1
1
1
1
1
1
1
1
1
1
1
1
1
1
1
1
1
1
1
1
1
1
1
1
1
1
1
1
1
1
1
1
1
5.36985
10.2671
10.4504
10.3836
10.3484
10.308
10.2683
10.228
1
1
1
1
1
1
1
1
1
1
1
1
1
1
1
1
1
1
1
1
1
1
1
1
1
1
1
1
1
1
1
1
1
1
1
1
1
1
1
1
1
1
1
1
1
1
1
1
1
1
1
1
1
1
1
1
1
1
1
1
1
1
1
1
1
1
1
1
1
1
1
1
1
1
1
1
1
1
1
1
1
1
1
1
1
1
1
1
4.93284
10.1926
10.4633
10.3944
10.3578
10.3162
10.2751
10.2336
1
1
1
1
1
1
1
1
1
1
1
1
1
1
1
1
1
1
1
1
1
1
1
1
1
1
1
1
1
1
1
1
1
1
1
1
1
1
1
1
1
1
1
1
1
1
1
1
1
1
1
1
1
1
1
1
1
1
1
1
1
1
1
1
1
1
1
1
1
1
1
1
1
1
1
1
1
1
1
1
1
1
1
1
1
1
1
1
4.61535
10.121
10.472
10.4012
10.3638
10.3217
10.2803
10.2389
1
1
1
1
1
1
1
1
1
1
1
1
1
1
1
1
1
1
1
1
1
1
1
1
1
1
1
1
1
1
1
1
1
1
1
1
1
1
1
1
1
1
1
1
1
1
1
1
1
1
1
1
1
1
1
1
1
1
1
1
1
1
1
1
1
1
1
1
1
1
1
1
1
1
1
1
1
1
1
1
1
1
1
1
1
1
1
1
4.40917
10.0635
10.4746
10.4021
10.3649
10.3229
10.2818
10.241
1
1
1
1
1
1
1
1
1
1
1
1
1
1
1
1
1
1
1
1
1
1
1
1
1
1
1
1
1
1
1
1
1
1
1
1
1
1
1
1
1
1
1
1
1
1
1
1
1
1
1
1
1
1
1
1
1
1
1
1
1
1
1
1
1
1
1
1
1
1
1
1
1
1
1
1
1
1
1
1
1
1
1
1
1
1
1
1
4.32067
10.0202
10.4654
10.3973
10.3643
10.3239
10.2841
10.2437
1.15869
0.153603
0.0363915
0.0645305
0.0772464
0.0733339
0.0879482
0.127574
0.181614
0.238207
0.301481
0.37746
0.454437
0.536088
0.618588
0.702783
0.777507
0.865009
0.95036
0.961044
0.957791
0.976294
1.00602
1.02397
1.03472
1.04099
1.05758
1.0795
1.10552
1.13145
1.15673
1.18492
1.20525
1.20867
1.21421
1.22308
1.2295
1.23901
1.26049
1.28532
1.29186
1.29193
1.28808
1.28251
1.29445
1.38691
1.68852
2.45625
4.26745
5.92376
6.16083
6.22567
6.21133
6.29227
6.36049
6.42215
6.45289
6.46255
6.45072
6.44215
6.42949
6.41176