/*--------------------------------*- C++ -*----------------------------------*\
  =========                 |
  \\      /  F ield         | OpenFOAM: The Open Source CFD Toolbox
   \\    /   O peration     | Website:  https://openfoam.org
    \\  /    A nd           | Version:  7
     \\/     M anipulation  |
\*---------------------------------------------------------------------------*/
FoamFile
{
    version     2.0;
    format      ascii;
    class       volScalarField;
    location    "5.6";
    object      rho;
}
// * * * * * * * * * * * * * * * * * * * * * * * * * * * * * * * * * * * * * //

dimensions      [1 -3 0 0 0 0 0];

internalField   nonuniform List<scalar> 
19968
(
1.40001
1.40001
1.40001
1.40001
1.40001
1.40001
1.40001
1.40001
1.40001
1.40001
1.40001
1.40001
1.40001
1.40001
1.40001
1.40001
1.40001
1.40001
1.40001
1.40001
1.40001
1.40001
1.40001
1.40001
1.40001
1.40001
1.40001
1.40001
1.40001
1.40001
1.40001
1.40001
1.40001
1.40001
1.40001
1.40001
1.40001
1.40001
1.40001
1.40001
1.40001
1.40001
1.40001
1.40001
1.40001
1.40001
1.40001
1.40001
1.69391
4.56908
5.43643
5.44753
5.46731
5.48465
5.50134
5.51866
5.53826
5.56015
5.5831
5.60546
5.62599
5.64449
5.66165
5.67849
5.69545
5.71267
5.73029
5.74784
5.76452
5.7801
5.79495
5.80966
5.82461
5.83961
5.85415
5.8678
5.88037
5.89193
5.90261
5.91254
5.92183
5.93071
5.93949
5.9484
5.95743
5.96633
5.97469
5.98224
5.9889
5.99469
5.99963
6.00375
6.00703
6.0094
6.01111
6.01231
1.40001
1.40001
1.40001
1.40001
1.40001
1.40001
1.40001
1.40001
1.40001
1.40001
1.40001
1.40001
1.40001
1.40001
1.40001
1.40001
1.40001
1.40001
1.40001
1.40001
1.40001
1.40001
1.40001
1.40001
1.40001
1.40001
1.40001
1.40001
1.40001
1.40001
1.40001
1.40001
1.40001
1.40001
1.40001
1.40001
1.40001
1.40001
1.40001
1.40001
1.40001
1.40001
1.40001
1.40001
1.40001
1.40001
1.40001
1.40001
1.67866
4.54281
5.43025
5.4452
5.46576
5.48333
5.50023
5.5178
5.53764
5.55962
5.58253
5.60481
5.6252
5.64369
5.66079
5.67752
5.69429
5.71134
5.72877
5.74613
5.76271
5.77828
5.79317
5.80794
5.82292
5.83793
5.85246
5.86611
5.87869
5.89027
5.90097
5.9109
5.92019
5.92906
5.93782
5.94672
5.95572
5.96455
5.97282
5.98026
5.9868
5.99249
5.99735
6.00139
6.0046
6.00692
6.00857
6.00974
1.40001
1.40001
1.40001
1.40001
1.40001
1.40001
1.40001
1.40001
1.40001
1.40001
1.40001
1.40001
1.40001
1.40001
1.40001
1.40001
1.40001
1.40001
1.40001
1.40001
1.40001
1.40001
1.40001
1.40001
1.40001
1.40001
1.40001
1.40001
1.40001
1.40001
1.40001
1.40001
1.40001
1.40001
1.40001
1.40001
1.40001
1.40001
1.40001
1.40001
1.40001
1.40001
1.40001
1.40001
1.40001
1.40001
1.40001
1.40001
1.6445
4.4897
5.42389
5.43987
5.46147
5.47939
5.49688
5.51509
5.53552
5.55789
5.5809
5.60302
5.62304
5.64134
5.65837
5.67511
5.69184
5.70878
5.72599
5.74307
5.75943
5.7749
5.78978
5.80459
5.81963
5.83471
5.84931
5.863
5.87562
5.88723
5.89796
5.90791
5.91719
5.92604
5.93479
5.94367
5.95265
5.96144
5.96965
5.97703
5.98351
5.98913
5.99391
5.99784
6.00093
6.00314
6.0047
6.00579
1.40001
1.40001
1.40001
1.40001
1.40001
1.40001
1.40001
1.40001
1.40001
1.40001
1.40001
1.40001
1.40001
1.40001
1.40001
1.40001
1.40001
1.40001
1.40001
1.40001
1.40001
1.40001
1.40001
1.40001
1.40001
1.40001
1.40001
1.40001
1.40001
1.40001
1.40001
1.40001
1.40001
1.40001
1.40001
1.40001
1.40001
1.40001
1.40001
1.40001
1.40001
1.40001
1.40001
1.40001
1.40001
1.40001
1.40001
1.40001
1.59456
4.40209
5.41663
5.43335
5.45562
5.47394
5.49224
5.51138
5.53258
5.5554
5.57844
5.60021
5.61959
5.6376
5.65466
5.67157
5.68835
5.70517
5.72202
5.73863
5.75458
5.76982
5.78463
5.79947
5.81459
5.82977
5.84448
5.85827
5.87096
5.88261
5.89337
5.90332
5.91258
5.92139
5.93004
5.93877
5.94756
5.95614
5.96417
5.9714
5.97777
5.98332
5.98807
5.99197
5.99504
5.99723
5.99877
5.99986
1.40001
1.40001
1.40001
1.40001
1.40001
1.40001
1.40001
1.40001
1.40001
1.40001
1.40001
1.40001
1.40001
1.40001
1.40001
1.40001
1.40001
1.40001
1.40001
1.40001
1.40001
1.40001
1.40001
1.40001
1.40001
1.40001
1.40001
1.40001
1.40001
1.40001
1.40001
1.40001
1.40001
1.40001
1.40001
1.40001
1.40001
1.40001
1.40001
1.40001
1.40001
1.40001
1.40001
1.40001
1.40001
1.40001
1.40001
1.40001
1.52741
4.28506
5.41518
5.42818
5.45046
5.4691
5.48783
5.50735
5.5286
5.55117
5.57377
5.59507
5.6141
5.6322
5.64968
5.66708
5.68417
5.70094
5.71735
5.73329
5.74862
5.76348
5.77817
5.79301
5.8082
5.82351
5.8384
5.85237
5.86523
5.87703
5.88789
5.89792
5.90722
5.91601
5.92456
5.9331
5.94165
5.94995
5.95769
5.96462
5.97067
5.97586
5.98021
5.98371
5.98636
5.98821
5.98946
5.99035
1.40001
1.40001
1.40001
1.40001
1.40001
1.40001
1.40001
1.40001
1.40001
1.40001
1.40001
1.40001
1.40001
1.40001
1.40001
1.40001
1.40001
1.40001
1.40001
1.40001
1.40001
1.40001
1.40001
1.40001
1.40001
1.40001
1.40001
1.40001
1.40001
1.40001
1.40001
1.40001
1.40001
1.40001
1.40001
1.40001
1.40001
1.40001
1.40001
1.40001
1.40001
1.40001
1.40001
1.40001
1.40001
1.40001
1.40001
1.40001
1.40896
4.09127
5.41426
5.42687
5.44515
5.46509
5.48491
5.50532
5.52663
5.54836
5.56958
5.58959
5.60802
5.62621
5.64413
5.6622
5.67979
5.69638
5.71198
5.72674
5.74099
5.75518
5.76954
5.78419
5.79917
5.81428
5.82901
5.84291
5.85576
5.86758
5.87848
5.88853
5.89781
5.9065
5.91487
5.92317
5.93148
5.93964
5.94734
5.95433
5.96049
5.96576
5.97015
5.9736
5.97611
5.97778
5.97882
5.97957
1.40001
1.40001
1.40001
1.40001
1.40001
1.40001
1.40001
1.40001
1.40001
1.40001
1.40001
1.40001
1.40001
1.40001
1.40001
1.40001
1.40001
1.40001
1.40001
1.40001
1.40001
1.40001
1.40001
1.40001
1.40001
1.40001
1.40001
1.40001
1.40001
1.40001
1.40001
1.40001
1.40001
1.40001
1.40001
1.40001
1.40001
1.40001
1.40001
1.40001
1.40001
1.40001
1.40001
1.40001
1.40001
1.40001
1.40001
1.40001
1.40007
3.789
5.37556
5.40877
5.42702
5.45064
5.47196
5.49327
5.51483
5.53617
5.5567
5.57603
5.59411
5.61231
5.63061
5.64923
5.6674
5.68403
5.69917
5.71319
5.72677
5.74065
5.75505
5.76978
5.78474
5.79968
5.81426
5.82813
5.84113
5.85323
5.86443
5.8747
5.88407
5.8927
5.90087
5.90891
5.91701
5.92506
5.93278
5.93987
5.94616
5.95153
5.95594
5.95932
5.96165
5.96312
5.96393
5.96453
1.40001
1.40001
1.40001
1.40001
1.40001
1.40001
1.40001
1.40001
1.40001
1.40001
1.40001
1.40001
1.40001
1.40001
1.40001
1.40001
1.40001
1.40001
1.40001
1.40001
1.40001
1.40001
1.40001
1.40001
1.40001
1.40001
1.40001
1.40001
1.40001
1.40001
1.40001
1.40001
1.40001
1.40001
1.40001
1.40001
1.40001
1.40001
1.40001
1.40001
1.40001
1.40001
1.40001
1.40001
1.40001
1.40001
1.40001
1.40001
1.40001
3.38564
5.32516
5.40024
5.41825
5.44437
5.46563
5.48663
5.50796
5.52906
5.54924
5.56813
5.58581
5.60372
5.62193
5.64027
5.65812
5.67406
5.68825
5.70123
5.714
5.72742
5.7417
5.75625
5.7708
5.78513
5.79907
5.81248
5.82529
5.83746
5.84884
5.85921
5.86851
5.87686
5.88462
5.8922
5.89989
5.90766
5.91524
5.9223
5.92859
5.93395
5.93831
5.94156
5.94369
5.94496
5.94554
5.94601
1.40001
1.40001
1.40001
1.40001
1.40001
1.40001
1.40001
1.40001
1.40001
1.40001
1.40001
1.40001
1.40001
1.40001
1.40001
1.40001
1.40001
1.40001
1.40001
1.40001
1.40001
1.40001
1.40001
1.40001
1.40001
1.40001
1.40001
1.40001
1.40001
1.40001
1.40001
1.40001
1.40001
1.40001
1.40001
1.40001
1.40001
1.40001
1.40001
1.40001
1.40001
1.40001
1.40001
1.40001
1.40001
1.40001
1.40001
1.40001
1.40001
2.90632
5.23378
5.39959
5.41496
5.44022
5.46065
5.48103
5.50178
5.52256
5.54242
5.56087
5.57807
5.59537
5.61289
5.63019
5.64701
5.66185
5.67483
5.68668
5.69865
5.71153
5.72548
5.73949
5.75321
5.76645
5.77929
5.79182
5.80415
5.81618
5.82757
5.83791
5.84697
5.8549
5.86212
5.86915
5.87638
5.88386
5.89134
5.89845
5.90487
5.91036
5.91481
5.91811
5.92022
5.9215
5.92203
5.9225
1.40001
1.40001
1.40001
1.40001
1.40001
1.40001
1.40001
1.40001
1.40001
1.40001
1.40001
1.40001
1.40001
1.40001
1.40001
1.40001
1.40001
1.40001
1.40001
1.40001
1.40001
1.40001
1.40001
1.40001
1.40001
1.40001
1.40001
1.40001
1.40001
1.40001
1.40001
1.40001
1.40001
1.40001
1.40001
1.40001
1.40001
1.40001
1.40001
1.40001
1.40001
1.40001
1.40001
1.40001
1.40001
1.40001
1.40001
1.40001
1.40001
2.37117
5.0508
5.40592
5.42326
5.44529
5.46267
5.48072
5.4994
5.51892
5.53799
5.55575
5.57217
5.58842
5.60467
5.62048
5.63584
5.64952
5.66142
5.67227
5.68347
5.69574
5.70913
5.72228
5.73465
5.74616
5.7572
5.76812
5.77921
5.79043
5.80128
5.81117
5.81977
5.82721
5.83397
5.84059
5.84748
5.85469
5.86196
5.86886
5.87503
5.88021
5.88431
5.88729
5.88916
5.89031
5.89074
5.89121
1.40001
1.40001
1.40001
1.40001
1.40001
1.40001
1.40001
1.40001
1.40001
1.40001
1.40001
1.40001
1.40001
1.40001
1.40001
1.40001
1.40001
1.40001
1.40001
1.40001
1.40001
1.40001
1.40001
1.40001
1.40001
1.40001
1.40001
1.40001
1.40001
1.40001
1.40001
1.40001
1.40001
1.40001
1.40001
1.40001
1.40001
1.40001
1.40001
1.40001
1.40001
1.40001
1.40001
1.40001
1.40001
1.40001
1.40001
1.40001
1.40001
1.84999
4.71504
5.42831
5.41757
5.43604
5.45185
5.46984
5.48846
5.50769
5.52641
5.54392
5.56026
5.57625
5.59222
5.60756
5.622
5.63491
5.64623
5.65659
5.66738
5.67926
5.6921
5.70464
5.71585
5.72572
5.7348
5.74377
5.7531
5.7628
5.77232
5.78088
5.78809
5.79408
5.79937
5.80457
5.81016
5.81627
5.8227
5.829
5.83477
5.83974
5.84381
5.84686
5.8489
5.85024
5.8508
5.85148
1.40001
1.40001
1.40001
1.40001
1.40001
1.40001
1.40001
1.40001
1.40001
1.40001
1.40001
1.40001
1.40001
1.40001
1.40001
1.40001
1.40001
1.40001
1.40001
1.40001
1.40001
1.40001
1.40001
1.40001
1.40001
1.40001
1.40001
1.40001
1.40001
1.40001
1.40001
1.40001
1.40001
1.40001
1.40001
1.40001
1.40001
1.40001
1.40001
1.40001
1.40001
1.40001
1.40001
1.40001
1.40001
1.40001
1.40001
1.40001
1.40001
1.42181
4.0663
5.40825
5.41873
5.43301
5.44871
5.46512
5.48187
5.49895
5.51586
5.53193
5.54705
5.56169
5.57627
5.59035
5.60341
5.61529
5.62584
5.63523
5.64488
5.65575
5.66748
5.67925
5.6893
5.69769
5.70493
5.71194
5.71935
5.72734
5.73542
5.74273
5.74876
5.75358
5.75775
5.76195
5.76672
5.77216
5.7779
5.78325
5.78767
5.79091
5.79304
5.79394
5.79389
5.79371
5.79331
5.79345
1.40001
1.40001
1.40001
1.40001
1.40001
1.40001
1.40001
1.40001
1.40001
1.40001
1.40001
1.40001
1.40001
1.40001
1.40001
1.40001
1.40001
1.40001
1.40001
1.40001
1.40001
1.40001
1.40001
1.40001
1.40001
1.40001
1.40001
1.40001
1.40001
1.40001
1.40001
1.40001
1.40001
1.40001
1.40001
1.40001
1.40001
1.40001
1.40001
1.40001
1.40001
1.40001
1.40001
1.40001
1.40001
1.40001
1.40001
1.40001
1.40001
1.40004
3.18158
5.24302
5.36108
5.38734
5.41146
5.43125
5.44932
5.46618
5.4822
5.49737
5.51185
5.52599
5.54022
5.55457
5.56818
5.58031
5.59095
5.60029
5.60929
5.61962
5.63105
5.64265
5.65249
5.66019
5.66619
5.67143
5.67677
5.68264
5.68877
5.69438
5.69874
5.70174
5.70378
5.70558
5.70778
5.71057
5.71348
5.71589
5.71748
5.71832
5.71878
5.71921
5.71936
5.71971
5.71951
5.7198
1.40001
1.40001
1.40001
1.40001
1.40001
1.40001
1.40001
1.40001
1.40001
1.40001
1.40001
1.40001
1.40001
1.40001
1.40001
1.40001
1.40001
1.40001
1.40001
1.40001
1.40001
1.40001
1.40001
1.40001
1.40001
1.40001
1.40001
1.40001
1.40001
1.40001
1.40001
1.40001
1.40001
1.40001
1.40001
1.40001
1.40001
1.40001
1.40001
1.40001
1.40001
1.40001
1.40001
1.40001
1.40001
1.40001
1.40001
1.40001
1.40001
1.4
2.15761
4.88758
5.36544
5.37635
5.40091
5.41985
5.43715
5.45268
5.46659
5.47913
5.49095
5.50286
5.51544
5.5289
5.54241
5.5544
5.56431
5.57255
5.5797
5.58773
5.59732
5.6073
5.61603
5.6223
5.62642
5.62909
5.63127
5.63368
5.63652
5.63929
5.64114
5.64169
5.64096
5.63964
5.63874
5.63877
5.6393
5.63959
5.63857
5.63626
5.63252
5.62752
5.62033
5.61214
5.60373
5.59627
1.40001
1.40001
1.40001
1.40001
1.40001
1.40001
1.40001
1.40001
1.40001
1.40001
1.40001
1.40001
1.40001
1.40001
1.40001
1.40001
1.40001
1.40001
1.40001
1.40001
1.40001
1.40001
1.40001
1.40001
1.40001
1.40001
1.40001
1.40001
1.40001
1.40001
1.40001
1.40001
1.40001
1.40001
1.40001
1.40001
1.40001
1.40001
1.40001
1.40001
1.40001
1.40001
1.40001
1.40001
1.40001
1.40001
1.40001
1.40001
1.40001
1.40001
1.44154
3.95319
5.38646
5.39442
5.40474
5.4154
5.42562
5.43573
5.44543
5.45459
5.46347
5.47272
5.48292
5.49422
5.50631
5.51773
5.5269
5.53396
5.53929
5.54439
5.55123
5.55914
5.56651
5.57151
5.57393
5.57437
5.57339
5.57169
5.57032
5.56941
5.56818
5.56581
5.56156
5.55556
5.54885
5.54195
5.53442
5.52508
5.51286
5.49766
5.48005
5.46122
5.4448
5.43079
5.42459
5.42107
1.40001
1.40001
1.40001
1.40001
1.40001
1.40001
1.40001
1.40001
1.40001
1.40001
1.40001
1.40001
1.40001
1.40001
1.40001
1.40001
1.40001
1.40001
1.40001
1.40001
1.40001
1.40001
1.40001
1.40001
1.40001
1.40001
1.40001
1.40001
1.40001
1.40001
1.40001
1.40001
1.40001
1.40001
1.40001
1.40001
1.40001
1.40001
1.40001
1.40001
1.40001
1.40001
1.40001
1.40001
1.40001
1.40001
1.40001
1.40001
1.40001
1.40001
1.40006
2.59924
5.08603
5.3445
5.35787
5.37332
5.38668
5.3993
5.41115
5.42194
5.43142
5.44005
5.44834
5.45683
5.46588
5.47529
5.48375
5.49019
5.49478
5.49814
5.50183
5.50658
5.51126
5.51437
5.51526
5.51356
5.50912
5.50253
5.49539
5.48868
5.48225
5.47502
5.46584
5.45412
5.4397
5.42301
5.40443
5.3839
5.36111
5.33636
5.30999
5.28225
5.24661
5.20622
5.1502
5.1694
1.40001
1.40001
1.40001
1.40001
1.40001
1.40001
1.40001
1.40001
1.40001
1.40001
1.40001
1.40001
1.40001
1.40001
1.40001
1.40001
1.40001
1.40001
1.40001
1.40001
1.40001
1.40001
1.40001
1.40001
1.40001
1.40001
1.40001
1.40001
1.40001
1.40001
1.40001
1.40001
1.40001
1.40001
1.40001
1.40001
1.40001
1.40001
1.40001
1.40001
1.40001
1.40001
1.40001
1.40001
1.40001
1.40001
1.40001
1.40001
1.40001
1.40001
1.40001
1.55164
4.37741
5.36074
5.35482
5.36042
5.36952
5.37896
5.38934
5.40017
5.40964
5.41728
5.42318
5.42803
5.43261
5.43783
5.44376
5.44893
5.45262
5.45466
5.45541
5.4565
5.45794
5.45855
5.4573
5.45325
5.44578
5.43551
5.42339
5.41061
5.39787
5.38479
5.37004
5.35202
5.32935
5.30158
5.26871
5.2309
5.18594
5.13182
5.06048
4.96482
4.81806
4.59255
4.18575
3.29421
1.40001
1.40001
1.40001
1.40001
1.40001
1.40001
1.40001
1.40001
1.40001
1.40001
1.40001
1.40001
1.40001
1.40001
1.40001
1.40001
1.40001
1.40001
1.40001
1.40001
1.40001
1.40001
1.40001
1.40001
1.40001
1.40001
1.40001
1.40001
1.40001
1.40001
1.40001
1.40001
1.40001
1.40001
1.40001
1.40001
1.40001
1.40001
1.40001
1.40001
1.40001
1.40001
1.40001
1.40001
1.40001
1.40001
1.40001
1.40001
1.40001
1.40001
1.4
1.40113
3.22609
5.18158
5.30598
5.3252
5.33912
5.34898
5.35917
5.37086
5.38168
5.39051
5.39658
5.39991
5.40154
5.4032
5.40608
5.40968
5.41225
5.41325
5.4126
5.41158
5.41049
5.4084
5.40436
5.39753
5.38805
5.37586
5.3608
5.34328
5.32437
5.30475
5.28363
5.25916
5.22882
5.1912
5.14462
5.08989
5.02237
4.94145
4.83343
4.69442
4.4898
4.22308
3.68801
2.92434
1.40001
1.40001
1.40001
1.40001
1.40001
1.40001
1.40001
1.40001
1.40001
1.40001
1.40001
1.40001
1.40001
1.40001
1.40001
1.40001
1.40001
1.40001
1.40001
1.40001
1.40001
1.40001
1.40001
1.40001
1.40001
1.40001
1.40001
1.40001
1.40001
1.40001
1.40001
1.40001
1.40001
1.40001
1.40001
1.40001
1.40001
1.40001
1.40001
1.40001
1.40001
1.40001
1.40001
1.40001
1.40001
1.40001
1.40001
1.40001
1.40001
1.40001
1.40001
1.4
1.95693
4.73035
5.31996
5.31978
5.33063
5.33755
5.3456
5.35549
5.36441
5.37248
5.37805
5.37972
5.37843
5.37637
5.37537
5.37585
5.37638
5.37579
5.37332
5.36988
5.36575
5.36022
5.35226
5.34165
5.32877
5.31373
5.29581
5.27443
5.24993
5.22354
5.19496
5.16326
5.12502
5.07849
5.02013
4.95076
4.86553
4.7627
4.63307
4.46596
4.25241
3.93165
3.49151
2.97364
1.40001
1.40001
1.40001
1.40001
1.40001
1.40001
1.40001
1.40001
1.40001
1.40001
1.40001
1.40001
1.40001
1.40001
1.40001
1.40001
1.40001
1.40001
1.40001
1.40001
1.40001
1.40001
1.40001
1.40001
1.40001
1.40001
1.40001
1.40001
1.40001
1.40001
1.40001
1.40001
1.40001
1.40001
1.40001
1.40001
1.40001
1.40001
1.40001
1.40001
1.40001
1.40001
1.40001
1.40001
1.40001
1.40001
1.40001
1.40001
1.40001
1.40001
1.40001
1.4
1.42386
3.53904
5.21136
5.3036
5.32309
5.33569
5.34155
5.34448
5.34407
5.34666
5.35088
5.35249
5.35107
5.34807
5.34518
5.34311
5.34103
5.33759
5.33234
5.32587
5.31848
5.30963
5.29862
5.28475
5.26825
5.2496
5.22824
5.20352
5.17458
5.14267
5.1073
5.06854
5.02284
4.96835
4.9013
4.82136
4.72543
4.60966
4.46953
4.29306
4.07627
3.79145
3.45825
3.07056
1.40001
1.40001
1.40001
1.40001
1.40001
1.40001
1.40001
1.40001
1.40001
1.40001
1.40001
1.40001
1.40001
1.40001
1.40001
1.40001
1.40001
1.40001
1.40001
1.40001
1.40001
1.40001
1.40001
1.40001
1.40001
1.40001
1.40001
1.40001
1.40001
1.40001
1.40001
1.40001
1.40001
1.40001
1.40001
1.40001
1.40001
1.40001
1.40001
1.40001
1.40001
1.40001
1.40001
1.40001
1.40001
1.40001
1.40001
1.40001
1.40001
1.40001
1.40001
1.40001
1.4
2.07251
4.79788
5.31381
5.30662
5.32048
5.32561
5.32737
5.32607
5.32647
5.32858
5.32902
5.32692
5.32253
5.31762
5.31269
5.30739
5.30085
5.29276
5.28317
5.27212
5.25971
5.24587
5.2297
5.21035
5.18791
5.16206
5.13318
5.10017
5.06401
5.02355
4.9787
4.92654
4.86532
4.79245
4.70699
4.60692
4.4878
4.34753
4.17427
3.97346
3.73423
3.47411
3.17187
1.40001
1.40001
1.40001
1.40001
1.40001
1.40001
1.40001
1.40001
1.40001
1.40001
1.40001
1.40001
1.40001
1.40001
1.40001
1.40001
1.40001
1.40001
1.40001
1.40001
1.40001
1.40001
1.40001
1.40001
1.40001
1.40001
1.40001
1.40001
1.40001
1.40001
1.40001
1.40001
1.40001
1.40001
1.40001
1.40001
1.40001
1.40001
1.40001
1.40001
1.40001
1.40001
1.40001
1.40001
1.40001
1.40001
1.40001
1.40001
1.40001
1.40001
1.40001
1.40001
1.4
1.43234
3.56584
5.23862
5.28486
5.29489
5.29852
5.29865
5.29833
5.29993
5.30344
5.30512
5.30387
5.29893
5.29215
5.28417
5.27558
5.26635
5.25609
5.24346
5.22784
5.2109
5.19354
5.1753
5.1541
5.12876
5.09873
5.06535
5.0284
4.98865
4.94461
4.89543
4.83857
4.77247
4.69572
4.60773
4.50756
4.39073
4.25759
4.09846
3.91957
3.71807
3.50501
3.26069
1.40001
1.40001
1.40001
1.40001
1.40001
1.40001
1.40001
1.40001
1.40001
1.40001
1.40001
1.40001
1.40001
1.40001
1.40001
1.40001
1.40001
1.40001
1.40001
1.40001
1.40001
1.40001
1.40001
1.40001
1.40001
1.40001
1.40001
1.40001
1.40001
1.40001
1.40001
1.40001
1.40001
1.40001
1.40001
1.40001
1.40001
1.40001
1.40001
1.40001
1.40001
1.40001
1.40001
1.40001
1.40001
1.40001
1.40001
1.40001
1.40001
1.40001
1.40001
1.40001
1.4
1.40003
1.98279
4.74416
5.30589
5.28256
5.27924
5.27378
5.27059
5.27062
5.27367
5.2766
5.27713
5.2728
5.26486
5.2531
5.24034
5.22907
5.21752
5.20362
5.18569
5.16536
5.14434
5.12296
5.09926
5.07128
5.03788
5.00108
4.96146
4.91922
4.87277
4.82062
4.76065
4.69163
4.61292
4.52438
4.42623
4.31396
4.19004
4.04859
3.89314
3.72162
3.53982
3.33503
1.40001
1.40001
1.40001
1.40001
1.40001
1.40001
1.40001
1.40001
1.40001
1.40001
1.40001
1.40001
1.40001
1.40001
1.40001
1.40001
1.40001
1.40001
1.40001
1.40001
1.40001
1.40001
1.40001
1.40001
1.40001
1.40001
1.40001
1.40001
1.40001
1.40001
1.40001
1.40001
1.40001
1.40001
1.40001
1.40001
1.40001
1.40001
1.40001
1.40001
1.40001
1.40001
1.40001
1.40001
1.40001
1.40001
1.40001
1.40001
1.40001
1.40001
1.40001
1.40001
1.40001
1.40001
1.42195
3.31416
5.14191
5.25169
5.24639
5.24434
5.24575
5.24684
5.24912
5.2517
5.25254
5.24902
5.24079
5.22605
5.20942
5.19514
5.18104
5.16624
5.14721
5.12474
5.10034
5.0751
5.04783
5.01679
4.98067
4.9417
4.90046
4.85647
4.80821
4.75405
4.69248
4.62257
4.54422
4.45673
4.36194
4.25451
4.13828
4.0144
3.87721
3.72952
3.57101
3.40069
1.40001
1.40001
1.40001
1.40001
1.40001
1.40001
1.40001
1.40001
1.40001
1.40001
1.40001
1.40001
1.40001
1.40001
1.40001
1.40001
1.40001
1.40001
1.40001
1.40001
1.40001
1.40001
1.40001
1.40001
1.40001
1.40001
1.40001
1.40001
1.40001
1.40001
1.40001
1.40001
1.40001
1.40001
1.40001
1.40001
1.40001
1.40001
1.40001
1.40001
1.40001
1.40001
1.40001
1.40001
1.40001
1.40001
1.40001
1.40001
1.40001
1.40001
1.40001
1.40001
1.40001
1.40001
1.40001
1.71171
4.50697
5.27867
5.25408
5.24328
5.23115
5.2251
5.22176
5.22039
5.21874
5.21447
5.20595
5.1907
5.17271
5.15623
5.14053
5.12552
5.10675
5.08477
5.05944
5.0314
5.00042
4.9659
4.92747
4.8876
4.84592
4.8012
4.7518
4.69621
4.63361
4.56353
4.48736
4.40181
4.31244
4.20993
4.10197
3.99104
3.86615
3.73714
3.59766
3.45397
1.40001
1.40001
1.40001
1.40001
1.40001
1.40001
1.40001
1.40001
1.40001
1.40001
1.40001
1.40001
1.40001
1.40001
1.40001
1.40001
1.40001
1.40001
1.40001
1.40001
1.40001
1.40001
1.40001
1.40001
1.40001
1.40001
1.40001
1.40001
1.40001
1.40001
1.40001
1.40001
1.40001
1.40001
1.40001
1.40001
1.40001
1.40001
1.40001
1.40001
1.40001
1.40001
1.40001
1.40001
1.40001
1.40001
1.40001
1.40001
1.40001
1.40001
1.40001
1.40001
1.40001
1.40001
1.40001
1.40523
2.8905
5.01941
5.19367
5.20038
5.20212
5.19753
5.19149
5.18544
5.1795
5.17324
5.16572
5.15236
5.13539
5.11724
5.0999
5.0838
5.06522
5.04476
5.01977
4.98969
4.95568
4.91863
4.87883
4.83878
4.79709
4.75201
4.7021
4.64588
4.58321
4.51371
4.44065
4.35723
4.27362
4.17727
4.07923
3.97522
3.8618
3.74684
3.62321
3.49677
1.40001
1.40001
1.40001
1.40001
1.40001
1.40001
1.40001
1.40001
1.40001
1.40001
1.40001
1.40001
1.40001
1.40001
1.40001
1.40001
1.40001
1.40001
1.40001
1.40001
1.40001
1.40001
1.40001
1.40001
1.40001
1.40001
1.40001
1.40001
1.40001
1.40001
1.40001
1.40001
1.40001
1.40001
1.40001
1.40001
1.40001
1.40001
1.40001
1.40001
1.40001
1.40001
1.40001
1.40001
1.40001
1.40001
1.40001
1.40001
1.40001
1.40001
1.40001
1.40001
1.40001
1.40001
1.40001
1.40001
1.54434
3.94814
5.17902
5.18743
5.18186
5.17555
5.1699
5.16168
5.15231
5.14271
5.13371
5.12062
5.10257
5.08224
5.06269
5.04441
5.02529
5.00563
4.98147
4.95107
4.91559
4.87703
4.83663
4.79639
4.75458
4.70927
4.65949
4.60333
4.54113
4.4724
4.40154
4.32084
4.24258
4.1531
4.06359
3.96552
3.86469
3.75843
3.64729
3.5311
1.40001
1.40001
1.40001
1.40001
1.40001
1.40001
1.40001
1.40001
1.40001
1.40001
1.40001
1.40001
1.40001
1.40001
1.40001
1.40001
1.40001
1.40001
1.40001
1.40001
1.40001
1.40001
1.40001
1.40001
1.40001
1.40001
1.40001
1.40001
1.40001
1.40001
1.40001
1.40001
1.40001
1.40001
1.40001
1.40001
1.40001
1.40001
1.40001
1.40001
1.40001
1.40001
1.40001
1.40001
1.40001
1.40001
1.40001
1.40001
1.40001
1.40001
1.40001
1.40001
1.40001
1.40001
1.40001
1.40001
1.401
2.08967
4.74225
5.17681
5.15194
5.15105
5.14647
5.1392
5.12835
5.11545
5.10299
5.08901
5.0706
5.0494
5.02843
5.00788
4.98748
4.96677
4.94232
4.91235
4.87671
4.83795
4.79808
4.7573
4.7155
4.66992
4.62086
4.56609
4.50625
4.43873
4.3694
4.29349
4.21845
4.13523
4.052
3.96189
3.87054
3.77011
3.6708
3.56357
1.40001
1.40001
1.40001
1.40001
1.40001
1.40001
1.40001
1.40001
1.40001
1.40001
1.40001
1.40001
1.40001
1.40001
1.40001
1.40001
1.40001
1.40001
1.40001
1.40001
1.40001
1.40001
1.40001
1.40001
1.40001
1.40001
1.40001
1.40001
1.40001
1.40001
1.40001
1.40001
1.40001
1.40001
1.40001
1.40001
1.40001
1.40001
1.40001
1.40001
1.40001
1.40001
1.40001
1.40001
1.40001
1.40001
1.40001
1.40001
1.40001
1.40001
1.40001
1.40001
1.40001
1.40001
1.40001
1.40001
1.40001
1.42833
3.07169
5.03177
5.13224
5.13259
5.1301
5.12208
5.10983
5.09455
5.07844
5.06141
5.04143
5.01988
4.99891
4.97783
4.95646
4.93388
4.90698
4.87656
4.84104
4.80281
4.76308
4.72298
4.68097
4.63587
4.58703
4.53427
4.47723
4.41217
4.3452
4.27433
4.20115
4.12356
4.0444
3.96197
3.87586
3.78233
3.69269
3.59299
1.40001
1.40001
1.40001
1.40001
1.40001
1.40001
1.40001
1.40001
1.40001
1.40001
1.40001
1.40001
1.40001
1.40001
1.40001
1.40001
1.40001
1.40001
1.40001
1.40001
1.40001
1.40001
1.40001
1.40001
1.40001
1.40001
1.40001
1.40001
1.40001
1.40001
1.40001
1.40001
1.40001
1.40001
1.40001
1.40001
1.40001
1.40001
1.40001
1.40001
1.40001
1.40001
1.40001
1.40001
1.40001
1.40001
1.40001
1.40001
1.40001
1.40001
1.40001
1.40001
1.40001
1.40001
1.40001
1.40001
1.40001
1.40006
1.57261
3.76978
5.08218
5.13445
5.12625
5.11787
5.10284
5.08258
5.06242
5.04194
5.0197
4.99602
4.97378
4.95248
4.93045
4.90611
4.87681
4.84486
4.80952
4.77125
4.73162
4.69072
4.649
4.60445
4.55593
4.50505
4.44943
4.3894
4.32599
4.25989
4.18951
4.1167
4.04048
3.96383
3.88194
3.79646
3.71315
3.62067
1.40001
1.40001
1.40001
1.40001
1.40001
1.40001
1.40001
1.40001
1.40001
1.40001
1.40001
1.40001
1.40001
1.40001
1.40001
1.40001
1.40001
1.40001
1.40001
1.40001
1.40001
1.40001
1.40001
1.40001
1.40001
1.40001
1.40001
1.40001
1.40001
1.40001
1.40001
1.40001
1.40001
1.40001
1.40001
1.40001
1.40001
1.40001
1.40001
1.40001
1.40001
1.40001
1.40001
1.40001
1.40001
1.40001
1.40001
1.40001
1.40001
1.40001
1.40001
1.40001
1.40001
1.40001
1.40001
1.40001
1.40001
1.40001
1.40157
1.79464
4.4568
5.16976
5.13967
5.11855
5.09092
5.06527
5.04076
5.018
4.99497
4.97147
4.94845
4.92696
4.90529
4.88028
4.85027
4.81669
4.78127
4.74203
4.70195
4.66082
4.61915
4.57549
4.52834
4.47911
4.42669
4.37091
4.31132
4.24913
4.18177
4.1129
4.03987
3.96745
3.88988
3.8112
3.73244
3.64607
1.40001
1.40001
1.40001
1.40001
1.40001
1.40001
1.40001
1.40001
1.40001
1.40001
1.40001
1.40001
1.40001
1.40001
1.40001
1.40001
1.40001
1.40001
1.40001
1.40001
1.40001
1.40001
1.40001
1.40001
1.40001
1.40001
1.40001
1.40001
1.40001
1.40001
1.40001
1.40001
1.40001
1.40001
1.40001
1.40001
1.40001
1.40001
1.40001
1.40001
1.40001
1.40001
1.40001
1.40001
1.40001
1.40001
1.40001
1.40001
1.40001
1.40001
1.40001
1.40001
1.40001
1.40001
1.40001
1.40001
1.40001
1.40001
1.40001
1.40847
2.53701
4.89272
5.10758
5.07652
5.05498
5.03425
5.01447
4.99381
4.97267
4.95142
4.92936
4.9063
4.88335
4.85839
4.82773
4.79373
4.75831
4.71885
4.6781
4.63643
4.59447
4.55052
4.50446
4.45683
4.40688
4.35397
4.29785
4.23898
4.175
4.10966
4.04042
3.97191
3.89875
3.82592
3.75099
3.67088
1.40001
1.40001
1.40001
1.40001
1.40001
1.40001
1.40001
1.40001
1.40001
1.40001
1.40001
1.40001
1.40001
1.40001
1.40001
1.40001
1.40001
1.40001
1.40001
1.40001
1.40001
1.40001
1.40001
1.40001
1.40001
1.40001
1.40001
1.40001
1.40001
1.40001
1.40001
1.40001
1.40001
1.40001
1.40001
1.40001
1.40001
1.40001
1.40001
1.40001
1.40001
1.40001
1.40001
1.40001
1.40001
1.40001
1.40001
1.40001
1.40001
1.40001
1.40001
1.40001
1.40001
1.40001
1.40001
1.40001
1.40001
1.40001
1.40001
1.40002
1.47509
3.18368
4.98392
5.03763
5.02298
5.01953
5.00823
4.99175
4.97108
4.9483
4.92396
4.8984
4.87206
4.84598
4.81422
4.77941
4.74305
4.70294
4.66116
4.61853
4.57576
4.53192
4.48625
4.43954
4.39127
4.3403
4.28689
4.23068
4.17016
4.10777
4.04213
3.97681
3.90786
3.83977
3.76767
3.69345
1.40001
1.40001
1.40001
1.40001
1.40001
1.40001
1.40001
1.40001
1.40001
1.40001
1.40001
1.40001
1.40001
1.40001
1.40001
1.40001
1.40001
1.40001
1.40001
1.40001
1.40001
1.40001
1.40001
1.40001
1.40001
1.40001
1.40001
1.40001
1.40001
1.40001
1.40001
1.40001
1.40001
1.40001
1.40001
1.40001
1.40001
1.40001
1.40001
1.40001
1.40001
1.40001
1.40001
1.40001
1.40001
1.40001
1.40001
1.40001
1.40001
1.40001
1.40001
1.40001
1.40001
1.40001
1.40001
1.40001
1.40001
1.40001
1.40001
1.40001
1.40039
1.59487
3.57076
4.98037
5.00801
5.00403
4.99745
4.98417
4.96636
4.94455
4.91992
4.89303
4.86431
4.83542
4.80268
4.76769
4.73042
4.69035
4.64869
4.60599
4.56274
4.51884
4.47346
4.42643
4.37883
4.32922
4.27781
4.22363
4.16614
4.10641
4.04408
3.98094
3.91579
3.85144
3.78225
3.71321
1.40001
1.40001
1.40001
1.40001
1.40001
1.40001
1.40001
1.40001
1.40001
1.40001
1.40001
1.40001
1.40001
1.40001
1.40001
1.40001
1.40001
1.40001
1.40001
1.40001
1.40001
1.40001
1.40001
1.40001
1.40001
1.40001
1.40001
1.40001
1.40001
1.40001
1.40001
1.40001
1.40001
1.40001
1.40001
1.40001
1.40001
1.40001
1.40001
1.40001
1.40001
1.40001
1.40001
1.40001
1.40001
1.40001
1.40001
1.40001
1.40001
1.40001
1.40001
1.40001
1.40001
1.40001
1.40001
1.40001
1.40001
1.40001
1.40001
1.40001
1.40001
1.40213
1.71537
3.88438
5.00765
5.00661
4.99174
4.97525
4.95689
4.93564
4.91186
4.8856
4.85713
4.82704
4.79433
4.75953
4.72212
4.68243
4.64134
4.59925
4.55625
4.51243
4.46739
4.42031
4.372
4.323
4.2729
4.22003
4.16422
4.10593
4.04585
3.98445
3.92248
3.86124
3.79569
3.73072
1.40001
1.40001
1.40001
1.40001
1.40001
1.40001
1.40001
1.40001
1.40001
1.40001
1.40001
1.40001
1.40001
1.40001
1.40001
1.40001
1.40001
1.40001
1.40001
1.40001
1.40001
1.40001
1.40001
1.40001
1.40001
1.40001
1.40001
1.40001
1.40001
1.40001
1.40001
1.40001
1.40001
1.40001
1.40001
1.40001
1.40001
1.40001
1.40001
1.40001
1.40001
1.40001
1.40001
1.40001
1.40001
1.40001
1.40001
1.40001
1.40001
1.40001
1.40001
1.40001
1.40001
1.40001
1.40001
1.40001
1.40001
1.40001
1.40001
1.40001
1.40001
1.40001
1.40542
1.8477
4.16647
5.01276
4.99771
4.9753
4.95203
4.92834
4.90308
4.87622
4.84765
4.81753
4.78533
4.7505
4.71341
4.67467
4.63484
4.59407
4.5522
4.50911
4.46456
4.41805
4.36947
4.32062
4.27102
4.21885
4.16393
4.10674
4.04869
3.98918
3.92961
3.87086
3.80926
3.74724
1.40001
1.40001
1.40001
1.40001
1.40001
1.40001
1.40001
1.40001
1.40001
1.40001
1.40001
1.40001
1.40001
1.40001
1.40001
1.40001
1.40001
1.40001
1.40001
1.40001
1.40001
1.40001
1.40001
1.40001
1.40001
1.40001
1.40001
1.40001
1.40001
1.40001
1.40001
1.40001
1.40001
1.40001
1.40001
1.40001
1.40001
1.40001
1.40001
1.40001
1.40001
1.40001
1.40001
1.40001
1.40001
1.40001
1.40001
1.40001
1.40001
1.40001
1.40001
1.40001
1.40001
1.40001
1.40001
1.40001
1.40001
1.40001
1.40001
1.40001
1.40001
1.40001
1.40002
1.41083
1.9986
4.37036
5.02071
4.99497
4.96639
4.93582
4.90666
4.87563
4.84313
4.81085
4.77752
4.7423
4.70566
4.66802
4.62955
4.59019
4.54971
4.50785
4.46429
4.41863
4.37075
4.32228
4.27277
4.22103
4.16692
4.11117
4.05505
3.99729
3.93913
3.88256
3.8246
3.76495
1.40001
1.40001
1.40001
1.40001
1.40001
1.40001
1.40001
1.40001
1.40001
1.40001
1.40001
1.40001
1.40001
1.40001
1.40001
1.40001
1.40001
1.40001
1.40001
1.40001
1.40001
1.40001
1.40001
1.40001
1.40001
1.40001
1.40001
1.40001
1.40001
1.40001
1.40001
1.40001
1.40001
1.40001
1.40001
1.40001
1.40001
1.40001
1.40001
1.40001
1.40001
1.40001
1.40001
1.40001
1.40001
1.40001
1.40001
1.40001
1.40001
1.40001
1.40001
1.40001
1.40001
1.40001
1.40001
1.40001
1.40001
1.40001
1.40001
1.40001
1.40001
1.40001
1.40001
1.40004
1.41937
2.14251
4.53607
5.02133
4.99166
4.95624
4.91969
4.88262
4.84704
4.81161
4.77487
4.73797
4.70081
4.66338
4.62547
4.58674
4.54686
4.50567
4.46282
4.41817
4.37197
4.32491
4.27644
4.2259
4.17325
4.11898
4.06444
4.00832
3.95105
3.89629
3.84122
3.78371
1.40001
1.40001
1.40001
1.40001
1.40001
1.40001
1.40001
1.40001
1.40001
1.40001
1.40001
1.40001
1.40001
1.40001
1.40001
1.40001
1.40001
1.40001
1.40001
1.40001
1.40001
1.40001
1.40001
1.40001
1.40001
1.40001
1.40001
1.40001
1.40001
1.40001
1.40001
1.40001
1.40001
1.40001
1.40001
1.40001
1.40001
1.40001
1.40001
1.40001
1.40001