/*--------------------------------*- C++ -*----------------------------------*\
  =========                 |
  \\      /  F ield         | OpenFOAM: The Open Source CFD Toolbox
   \\    /   O peration     | Website:  https://openfoam.org
    \\  /    A nd           | Version:  7
     \\/     M anipulation  |
\*---------------------------------------------------------------------------*/
FoamFile
{
    version     2.0;
    format      ascii;
    class       volScalarField;
    location    "3.5";
    object      p;
}
// * * * * * * * * * * * * * * * * * * * * * * * * * * * * * * * * * * * * * //

dimensions      [1 -1 -2 0 0 0 0];

internalField   nonuniform List<scalar> 
19968
(
1
1
1
1
1
1
1
1
1
1
1
1
1
1
1
1
1
1
1
1
1
1
1
1
1
1
1
1
1
1
1
1
1
1
1
1
1
1
1
1
1
1
1
1
1
1
1
1
1.19142
7.15745
10.4362
10.4632
10.5282
10.5904
10.6455
10.6961
10.7467
10.8003
10.8571
10.9149
10.971
11.0242
11.0742
11.1208
11.1633
11.2018
11.2387
11.278
11.3232
11.3736
11.4264
11.4763
11.5183
11.5539
11.5886
11.6268
11.669
11.7118
11.749
11.7761
11.7937
11.8072
11.8229
11.8458
11.8773
11.9146
11.9521
11.9839
12.0068
12.0213
12.0304
12.037
12.0419
12.044
12.0452
12.0436
1
1
1
1
1
1
1
1
1
1
1
1
1
1
1
1
1
1
1
1
1
1
1
1
1
1
1
1
1
1
1
1
1
1
1
1
1
1
1
1
1
1
1
1
1
1
1
1
1.17483
7.08512
10.4125
10.4672
10.5276
10.5878
10.6432
10.6946
10.746
10.7995
10.8554
10.9126
10.9688
11.0223
11.0723
11.1181
11.1594
11.1973
11.2348
11.2754
11.3217
11.3726
11.4242
11.4723
11.5129
11.5481
11.5832
11.6218
11.6639
11.706
11.7426
11.7698
11.7886
11.8037
11.8205
11.8434
11.8736
11.909
11.9449
11.9758
11.9988
12.0139
12.0236
12.0305
12.0355
12.0375
12.0386
12.0371
1
1
1
1
1
1
1
1
1
1
1
1
1
1
1
1
1
1
1
1
1
1
1
1
1
1
1
1
1
1
1
1
1
1
1
1
1
1
1
1
1
1
1
1
1
1
1
1
1.13209
6.973
10.3928
10.4591
10.5145
10.5758
10.6329
10.6875
10.7412
10.7956
10.851
10.9078
10.9642
11.0179
11.0674
11.1118
11.1515
11.1891
11.2282
11.2713
11.3194
11.3708
11.4205
11.4661
11.5046
11.5394
11.575
11.6142
11.656
11.697
11.7325
11.76
11.7807
11.7984
11.8172
11.84
11.8682
11.9006
11.9336
11.9629
11.9856
12.0012
12.0117
12.0191
12.0241
12.0258
12.0262
12.0244
1
1
1
1
1
1
1
1
1
1
1
1
1
1
1
1
1
1
1
1
1
1
1
1
1
1
1
1
1
1
1
1
1
1
1
1
1
1
1
1
1
1
1
1
1
1
1
1
1.02347
6.72625
10.3711
10.4517
10.5084
10.5694
10.6258
10.6795
10.733
10.787
10.8421
10.8995
10.9568
11.0109
11.0596
11.1018
11.1395
11.1764
11.2175
11.2636
11.3139
11.3654
11.4126
11.4554
11.4917
11.5264
11.5628
11.6027
11.6442
11.6839
11.7183
11.7463
11.7694
11.7901
11.8107
11.8331
11.8588
11.8876
11.9174
11.9448
11.9671
11.9833
11.9943
12.0019
12.0062
12.0065
12.0056
12.003
1
1
1
1
1
1
1
1
1
1
1
1
1
1
1
1
1
1
1
1
1
1
1
1
1
1
1
1
1
1
1
1
1
1
1
1
1
1
1
1
1
1
1
1
1
1
1
1
1.00033
6.29661
10.3456
10.4318
10.4828
10.5437
10.6011
10.6566
10.7121
10.768
10.8249
10.8836
10.9415
10.9946
11.0407
11.0804
11.1172
11.1552
11.1986
11.2468
11.2973
11.3474
11.3916
11.4322
11.4674
11.5028
11.5404
11.5807
11.6213
11.6595
11.6931
11.722
11.7477
11.7712
11.7935
11.8155
11.8388
11.8643
11.8912
11.9171
11.9397
11.9574
11.9703
11.9794
11.984
11.9839
11.9821
11.979
1
1
1
1
1
1
1
1
1
1
1
1
1
1
1
1
1
1
1
1
1
1
1
1
1
1
1
1
1
1
1
1
1
1
1
1
1
1
1
1
1
1
1
1
1
1
1
1
1
5.69788
10.2835
10.4083
10.4586
10.5224
10.5818
10.6388
10.6953
10.7519
10.8091
10.8672
10.924
10.975
11.0184
11.0572
11.0953
11.1359
11.1818
11.2309
11.2793
11.3262
11.3672
11.4063
11.4414
11.4781
11.5167
11.5571
11.5962
11.6326
11.6655
11.6955
11.7231
11.7484
11.771
11.7917
11.8124
11.8346
11.8584
11.8821
11.904
11.9224
11.9368
11.947
11.9518
11.951
11.9481
11.9446
1
1
1
1
1
1
1
1
1
1
1
1
1
1
1
1
1
1
1
1
1
1
1
1
1
1
1
1
1
1
1
1
1
1
1
1
1
1
1
1
1
1
1
1
1
1
1
1
1
4.94106
10.1761
10.3782
10.4302
10.4981
10.5593
10.6174
10.6741
10.7304
10.7866
10.8427
10.8979
10.9476
10.9908
11.0309
11.0713
11.1131
11.1582
11.2055
11.2508
11.2954
11.3355
11.3747
11.4107
11.4485
11.4871
11.5265
11.5639
11.599
11.6315
11.6618
11.6899
11.7152
11.7374
11.7571
11.7761
11.7957
11.8163
11.8375
11.8583
11.8775
11.8934
11.9049
11.9099
11.909
11.9053
11.902
1
1
1
1
1
1
1
1
1
1
1
1
1
1
1
1
1
1
1
1
1
1
1
1
1
1
1
1
1
1
1
1
1
1
1
1
1
1
1
1
1
1
1
1
1
1
1
1
1
4.05145
9.95239
10.3438
10.4001
10.4716
10.5333
10.5918
10.648
10.7029
10.7567
10.8101
10.8635
10.9135
10.958
11
11.0418
11.0831
11.1254
11.17
11.2125
11.2559
11.2964
11.3362
11.373
11.4105
11.4477
11.4852
11.5211
11.5555
11.5881
11.6185
11.6462
11.671
11.6931
11.7129
11.7313
11.749
11.7666
11.7847
11.8037
11.8226
11.8391
11.8506
11.8551
11.8536
11.8493
11.8462
1
1
1
1
1
1
1
1
1
1
1
1
1
1
1
1
1
1
1
1
1
1
1
1
1
1
1
1
1
1
1
1
1
1
1
1
1
1
1
1
1
1
1
1
1
1
1
1
1
3.09543
9.51937
10.3271
10.387
10.462
10.5235
10.5798
10.632
10.6823
10.7312
10.7809
10.8321
10.8825
10.9286
10.971
11.012
11.0513
11.09
11.1317
11.1724
11.2145
11.2551
11.2937
11.3296
11.3641
11.3981
11.4324
11.4661
11.4989
11.53
11.5584
11.5839
11.6074
11.6293
11.6495
11.6675
11.6836
11.6987
11.7147
11.7327
11.7519
11.7693
11.7816
11.7866
11.7862
11.7828
11.7812
1
1
1
1
1
1
1
1
1
1
1
1
1
1
1
1
1
1
1
1
1
1
1
1
1
1
1
1
1
1
1
1
1
1
1
1
1
1
1
1
1
1
1
1
1
1
1
1
1
2.11593
8.74291
10.3328
10.3747
10.4419
10.4967
10.5505
10.6005
10.6491
10.6969
10.745
10.7947
10.8453
10.8928
10.9359
10.9766
11.015
11.0516
11.0909
11.1309
11.1719
11.2127
11.2493
11.2834
11.3144
11.345
11.3762
11.4077
11.4386
11.4672
11.4927
11.5156
11.5375
11.559
11.5788
11.5955
11.6089
11.6206
11.6332
11.6482
11.6646
11.6795
11.6894
11.6932
11.6933
11.6908
11.6902
1
1
1
1
1
1
1
1
1
1
1
1
1
1
1
1
1
1
1
1
1
1
1
1
1
1
1
1
1
1
1
1
1
1
1
1
1
1
1
1
1
1
1
1
1
1
1
1
1
1.28912
7.504
10.3904
10.3934
10.4474
10.4947
10.5431
10.5883
10.6312
10.6728
10.7146
10.7582
10.8044
10.8497
10.8908
10.9288
10.9648
10.9989
11.0343
11.0725
11.1101
11.1489
11.1829
11.2143
11.2417
11.2691
11.2971
11.3259
11.3539
11.3797
11.4025
11.4232
11.4432
11.4629
11.4807
11.4951
11.506
11.5155
11.526
11.5387
11.5526
11.5655
11.5745
11.5792
11.5814
11.5813
11.5822
1
1
1
1
1
1
1
1
1
1
1
1
1
1
1
1
1
1
1
1
1
1
1
1
1
1
1
1
1
1
1
1
1
1
1
1
1
1
1
1
1
1
1
1
1
1
1
1
1
1.00416
5.75924
10.1991
10.277
10.327
10.3819
10.435
10.4849
10.5312
10.576
10.6205
10.6661
10.7134
10.7603
10.8037
10.8429
10.8802
10.9156
10.9502
10.9871
11.0234
11.0603
11.0943
11.1244
11.1504
11.1755
11.2005
11.2255
11.2495
11.2718
11.292
11.3106
11.3283
11.3455
11.3611
11.3744
11.385
11.394
11.4023
11.4099
11.4161
11.4203
11.4218
11.4218
11.4209
11.4195
11.4193
1
1
1
1
1
1
1
1
1
1
1
1
1
1
1
1
1
1
1
1
1
1
1
1
1
1
1
1
1
1
1
1
1
1
1
1
1
1
1
1
1
1
1
1
1
1
1
1
1
1.00001
3.72376
9.61214
10.2172
10.2803
10.3375
10.3878
10.4355
10.4791
10.5205
10.5606
10.6013
10.6437
10.6869
10.7282
10.7657
10.8007
10.8342
10.8653
10.8973
10.9295
10.9612
10.9928
11.021
11.0454
11.0668
11.0872
11.1068
11.1252
11.1425
11.1583
11.1723
11.1845
11.1952
11.2045
11.2121
11.2179
11.2216
11.2229
11.2215
11.2187
11.2166
11.216
11.2159
11.2166
11.216
11.216
1
1
1
1
1
1
1
1
1
1
1
1
1
1
1
1
1
1
1
1
1
1
1
1
1
1
1
1
1
1
1
1
1
1
1
1
1
1
1
1
1
1
1
1
1
1
1
1
1
1
1.7895
8.19269
10.1822
10.2103
10.2726
10.3247
10.3747
10.4195
10.4598
10.4975
10.5348
10.5731
10.612
10.6498
10.6845
10.716
10.7453
10.7718
10.797
10.8229
10.8488
10.8756
10.9012
10.9229
10.9399
10.9541
10.9666
10.9778
10.9882
10.997
11.0037
11.0078
11.0099
11.0116
11.0132
11.0149
11.0153
11.0123
11.0044
10.9931
10.9789
10.963
10.9415
10.9164
10.8895
10.866
1
1
1
1
1
1
1
1
1
1
1
1
1
1
1
1
1
1
1
1
1
1
1
1
1
1
1
1
1
1
1
1
1
1
1
1
1
1
1
1
1
1
1
1
1
1
1
1
1
1
1.01995
5.38153
10.0023
10.1435
10.194
10.247
10.2961
10.3405
10.3792
10.4141
10.4475
10.4811
10.515
10.5485
10.5801
10.6084
10.6339
10.6564
10.6764
10.6962
10.7162
10.7362
10.7566
10.7745
10.7876
10.7958
10.8005
10.8038
10.8056
10.8041
10.801
10.7942
10.7844
10.7732
10.761
10.7471
10.7285
10.7018
10.6647
10.6183
10.5662
10.5129
10.467
10.4261
10.4038
10.3912
1
1
1
1
1
1
1
1
1
1
1
1
1
1
1
1
1
1
1
1
1
1
1
1
1
1
1
1
1
1
1
1
1
1
1
1
1
1
1
1
1
1
1
1
1
1
1
1
1
1
1.00001
2.34178
8.69611
10.0391
10.091
10.1536
10.2043
10.2504
10.2889
10.3212
10.3501
10.3786
10.4077
10.4369
10.4653
10.4916
10.5149
10.5345
10.5501
10.5633
10.5751
10.5854
10.596
10.606
10.613
10.6155
10.6125
10.6058
10.5953
10.5815
10.5643
10.5426
10.5166
10.4867
10.453
10.4148
10.3698
10.3159
10.2524
10.1816
10.1064
10.03
9.94064
9.85357
9.73592
9.8195
1
1
1
1
1
1
1
1
1
1
1
1
1
1
1
1
1
1
1
1
1
1
1
1
1
1
1
1
1
1
1
1
1
1
1
1
1
1
1
1
1
1
1
1
1
1
1
1
1
1
1
1.05286
6.19052
10.0039
10.0593
10.0938
10.1342
10.1717
10.2054
10.2335
10.2578
10.2817
10.3062
10.3308
10.355
10.3781
10.3987
10.4153
10.4272
10.4352
10.4392
10.4407
10.441
10.441
10.4406
10.4369
10.4263
10.4103
10.3891
10.3632
10.3325
10.2964
10.2537
10.204
10.1464
10.0796
10.0002
9.9045
9.78593
9.64038
9.44971
9.19908
8.82518
8.26909
7.34065
5.44286
1
1
1
1
1
1
1
1
1
1
1
1
1
1
1
1
1
1
1
1
1
1
1
1
1
1
1
1
1
1
1
1
1
1
1
1
1
1
1
1
1
1
1
1
1
1
1
1
1
1
1
0.999963
3.37332
9.14766
9.93989
9.98577
10.0412
10.0855
10.1268
10.1602
10.1839
10.2028
10.221
10.2398
10.2591
10.2785
10.2967
10.3116
10.3218
10.3269
10.3255
10.32
10.312
10.3029
10.2945
10.2839
10.2662
10.2419
10.2109
10.174
10.131
10.0811
10.0225
9.95373
9.87263
9.77793
9.66323
9.52642
9.35356
9.14396
8.86624
8.51236
8.00238
7.33481
6.12499
4.51029
1
1
1
1
1
1
1
1
1
1
1
1
1
1
1
1
1
1
1
1
1
1
1
1
1
1
1
1
1
1
1
1
1
1
1
1
1
1
1
1
1
1
1
1
1
1
1
1
1
1
1
0.99999
1.25954
7.37441
10.033
9.99103
9.99954
10.0281
10.0595
10.0865
10.1053
10.1195
10.1328
10.1462
10.1599
10.1742
10.188
10.1993
10.2066
10.207
10.2014
10.1905
10.1762
10.1587
10.141
10.1216
10.096
10.0638
10.024
9.97681
9.92161
9.85804
9.78291
9.696
9.59255
9.47282
9.3271
9.1549
8.94079
8.68214
8.35671
7.9398
7.40928
6.65559
5.64784
4.53855
1
1
1
1
1
1
1
1
1
1
1
1
1
1
1
1
1
1
1
1
1
1
1
1
1
1
1
1
1
1
1
1
1
1
1
1
1
1
1
1
1
1
1
1
1
1
1
1
1
1
1
0.999999
1.00211
4.32685
9.40682
9.84781
9.89972
9.93944
9.96871
9.99118
10.0064
10.0182
10.0292
10.0405
10.0519
10.0634
10.0742
10.0821
10.0852
10.0819
10.073
10.0583
10.0386
10.0138
9.98686
9.95729
9.92311
9.8826
9.83422
9.77813
9.71196
9.63571
9.54514
9.44123
9.31868
9.17794
9.01005
8.81207
8.57367
8.28688
7.94136
7.51058
6.98218
6.3251
5.5496
4.7133
1
1
1
1
1
1
1
1
1
1
1
1
1
1
1
1
1
1
1
1
1
1
1
1
1
1
1
1
1
1
1
1
1
1
1
1
1
1
1
1
1
1
1
1
1
1
1
1
1
1
1
1
0.999997
1.56202
7.75012
9.86616
9.84469
9.86141
9.88389
9.90082
9.91314
9.92331
9.93315
9.94276
9.95145
9.95863
9.96409
9.96695
9.96442
9.95669
9.94366
9.92504
9.90107
9.87132
9.83668
9.7975
9.75319
9.70364
9.64697
9.58311
9.50807
9.42129
9.31836
9.2001
9.0631
8.90669
8.72536
8.51389
8.26619
7.97309
7.63083
7.2152
6.729
6.18243
5.58334
4.91741
1
1
1
1
1
1
1
1
1
1
1
1
1
1
1
1
1
1
1
1
1
1
1
1
1
1
1
1
1
1
1
1
1
1
1
1
1
1
1
1
1
1
1
1
1
1
1
1
1
1
1
1
1
1.01018
4.53435
9.42188
9.70923
9.73017
9.77623
9.80159
9.81922
9.83306
9.84357
9.85051
9.85434
9.85523
9.85414
9.85056
9.84262
9.82957
9.81159
9.78872
9.76077
9.72652
9.68519
9.63753
9.58337
9.52446
9.45918
9.38754
9.3052
9.21066
9.09986
8.97235
8.82632
8.66049
8.4721
8.25679
8.01112
7.7266
7.40393
7.02313
6.59407
6.13486
5.64603
5.10576
1
1
1
1
1
1
1
1
1
1
1
1
1
1
1
1
1
1
1
1
1
1
1
1
1
1
1
1
1
1
1
1
1
1
1
1
1
1
1
1
1
1
1
1
1
1
1
1
1
1
1
1
1
0.999996
1.49022
7.60725
9.7711
9.72254
9.7232
9.73042
9.73725
9.74523
9.75218
9.75583
9.75589
9.75204
9.74522
9.73526
9.72174
9.7042
9.68214
9.65527
9.62315
9.58534
9.53984
9.48708
9.42624
9.3597
9.28662
9.20712
9.11786
9.01703
8.90123
8.76914
8.61907
8.44925
8.25848
8.04362
7.80624
7.53414
7.23725
6.89933
6.52453
6.13476
5.71542
5.27059
1
1
1
1
1
1
1
1
1
1
1
1
1
1
1
1
1
1
1
1
1
1
1
1
1
1
1
1
1
1
1
1
1
1
1
1
1
1
1
1
1
1
1
1
1
1
1
1
1
1
1
1
1
0.999999
1.0073
4.1073
9.14479
9.57101
9.59722
9.61097
9.62376
9.63634
9.64685
9.65228
9.65201
9.64567
9.63472
9.61984
9.60134
9.57984
9.55368
9.52187
9.48463
9.44238
9.39245
9.33572
9.2704
9.19849
9.1191
9.03236
8.93608
8.82948
8.7104
8.57772
8.42941
8.2623
8.0764
7.86598
7.64106
7.38188
7.11036
6.81221
6.48142
6.14566
5.77913
5.40692
1
1
1
1
1
1
1
1
1
1
1
1
1
1
1
1
1
1
1
1
1
1
1
1
1
1
1
1
1
1
1
1
1
1
1
1
1
1
1
1
1
1
1
1
1
1
1
1
1
1
1
1
1
1
0.999998
1.25836
6.83731
9.6032
9.54905
9.54366
9.55048
9.55611
9.56099
9.56197
9.55842
9.54897
9.53373
9.51406
9.48951
9.4625
9.43165
9.39579
9.3546
9.30806
9.25408
9.19458
9.12731
9.05344
8.97083
8.8795
8.77765
8.66573
8.54295
8.40944
8.26372
8.10178
7.92521
7.72123
7.50917
7.26373
7.01455
6.74791
6.45249
6.15959
5.83638
5.5178
1
1
1
1
1
1
1
1
1
1
1
1
1
1
1
1
1
1
1
1
1
1
1
1
1
1
1
1
1
1
1
1
1
1
1
1
1
1
1
1
1
1
1
1
1
1
1
1
1
1
1
1
1
1
1
1.002
2.934
8.59992
9.38039
9.40777
9.43719
9.45063
9.45554
9.45405
9.44801
9.43624
9.41863
9.39655
9.36877
9.33854
9.30443
9.26569
9.22126
9.17104
9.11394
9.0521
8.98354
8.90883
8.8252
8.73243
8.62838
8.51407
8.3897
8.256
8.1131
7.95677
7.79112
7.59726
7.39927
7.17138
6.94321
6.69924
6.43465
6.17169
5.88395
5.60442
1
1
1
1
1
1
1
1
1
1
1
1
1
1
1
1
1
1
1
1
1
1
1
1
1
1
1
1
1
1
1
1
1
1
1
1
1
1
1
1
1
1
1
1
1
1
1
1
1
1
1
1
1
1
1
1
1.10416
5.27757
9.21033
9.38384
9.39315
9.39184
9.38785
9.37957
9.3689
9.35312
9.33268
9.30749
9.27617
9.2411
9.20119
9.15733
9.10867
9.05452
8.99412
8.92886
8.85747
8.78024
8.69542
8.60231
8.49857
8.38436
8.26102
8.12787
7.98703
7.83232
7.67198
7.49076
7.30685
7.09777
6.88892
6.66286
6.42588
6.18462
5.92893
5.67774
1
1
1
1
1
1
1
1
1
1
1
1
1
1
1
1
1
1
1
1
1
1
1
1
1
1
1
1
1
1
1
1
1
1
1
1
1
1
1
1
1
1
1
1
1
1
1
1
1
1
1
1
1
1
1
1
1.00035
1.48876
7.31644
9.4127
9.36328
9.33104
9.30554
9.28671
9.26836
9.24793
9.225
9.19851
9.16552
9.12858
9.08568
9.03908
8.98802
8.93215
8.87069
8.80429
8.73142
8.65239
8.56726
8.47438
8.37357
8.26231
8.14501
8.01413
7.87598
7.72447
7.56887
7.40007
7.22757
7.03469
6.84333
6.63441
6.42192
6.19777
5.96969
5.73903
1
1
1
1
1
1
1
1
1
1
1
1
1
1
1
1
1
1
1
1
1
1
1
1
1
1
1
1
1
1
1
1
1
1
1
1
1
1
1
1
1
1
1
1
1
1
1
1
1
1
1
1
1
1
1
1
1
1.00707
3.3176
8.61369
9.17886
9.15935
9.1644
9.15824
9.14664
9.1301
9.10946
9.08551
9.05499
9.02022
8.97816
8.93178
8.87997
8.82338
8.76133
8.69371
8.61975
8.53966
8.45358
8.36047
8.26116
8.1535
8.04107
7.9137
7.78016
7.63648
7.48491
7.32531
7.16106
6.98186
6.80428
6.61087
6.41815
6.21069
6.00532
5.79147
1
1
1
1
1
1
1
1
1
1
1
1
1
1
1
1
1
1
1
1
1
1
1
1
1
1
1
1
1
1
1
1
1
1
1
1
1
1
1
1
1
1
1
1
1
1
1
1
1
1
1
1
1
1
1
1
1
1
1.14224
5.01151
8.94953
9.08731
9.09749
9.10153
9.08659
9.06371
9.03487
9.00287
8.96716
8.92913
8.88517
8.83685
8.78314
8.72458
8.66078
8.59176
8.51718
8.43596
8.35021
8.25769
8.15918
8.054
7.94328
7.82165
7.69458
7.56037
7.41535
7.26463
7.10749
6.94083
6.77331
6.594
6.41495
6.22306
6.03497
5.83619
1
1
1
1
1
1
1
1
1
1
1
1
1
1
1
1
1
1
1
1
1
1
1
1
1
1
1
1
1
1
1
1
1
1
1
1
1
1
1
1
1
1
1
1
1
1
1
1
1
1
1
1
1
1
1
1
1
1
1.00072
1.42681
6.32745
9.01793
9.08809
9.05497
9.03152
9.00085
8.96121
8.92056
8.8785
8.83634
8.79033
8.7405
8.68592
8.62672
8.56285
8.49408
8.42016
8.33964
8.25489
8.16299
8.06756
7.96414
7.85518
7.73893
7.61729
7.49094
7.35393
7.21254
7.06337
6.90899
6.74984
6.58258
6.41312
6.23568
6.06033
5.87616
1
1
1
1
1
1
1
1
1
1
1
1
1
1
1
1
1
1
1
1
1
1
1
1
1
1
1
1
1
1
1
1
1
1
1
1
1
1
1
1
1
1
1
1
1
1
1
1
1
1
1
1
1
1
1
1
1
1
1
1.00544
1.9723
7.62046
9.07848
8.99981
8.95857
8.91158
8.86546
8.82238
8.78025
8.73887
8.69486
8.6473
8.59457
8.53707
8.4746
8.40695
8.3341
8.25545
8.17163
8.08204
7.98734
7.88601
7.78029
7.66826
7.55077
7.42942
7.29985
7.16673
7.02572
6.88216
6.73022
6.57341
6.41296
6.24917
6.0838
5.91424
1
1
1
1
1
1
1
1
1
1
1
1
1
1
1
1
1
1
1
1
1
1
1
1
1
1
1
1
1
1
1
1
1
1
1
1
1
1
1
1
1
1
1
1
1
1
1
1
1
1
1
1
1
1
1
1
1
1
1
1.00001
1.02615
3.43967
8.41172
8.86393
8.7986
8.7676
8.73826
8.70999
8.67643
8.64145
8.60017
8.55532
8.50455
8.44908
8.38808
8.32221
8.25098
8.17457
8.09273
8.0054
7.9127
7.81379
7.711
7.60274
7.49023
7.37353
7.25102
7.12445
6.99133
6.85534
6.71053
6.56387
6.41266
6.26092
6.10448
5.94784
1
1
1
1
1
1
1
1
1
1
1
1
1
1
1
1
1
1
1
1
1
1
1
1
1
1
1
1
1
1
1
1
1
1
1
1
1
1
1
1
1
1
1
1
1
1
1
1
1
1
1
1
1
1
1
1
1
1
1
1
1.00005
1.15206
4.52814
8.53837
8.70042
8.67186
8.66721
8.64823
8.61975
8.58357
8.54054
8.4922
8.43882
8.38157
8.31978
8.25364
8.18262
8.10704
8.0263
7.94036
7.84947
7.75374
7.65368
7.54871
7.43988
7.32684
7.20992
7.08805
6.96047
6.82881
6.69159
6.55356
6.41257
6.27017
6.1233
5.97723
1
1
1
1
1
1
1
1
1
1
1
1
1
1
1
1
1
1
1
1
1
1
1
1
1
1
1
1
1
1
1
1
1
1
1
1
1
1
1
1
1
1
1
1
1
1
1
1
1
1
1
1
1
1
1
1
1
1
1
1
1
1.00091
1.32683
5.197
8.49785
8.6255
8.61593
8.59706
8.56601
8.52845
8.48363
8.43306
8.37756
8.31846
8.25513
8.18779
8.11641
8.0412
7.96168
7.87762
7.78912
7.69647
7.59945
7.49832
7.39316
7.28382
7.17113
7.053
6.93068
6.80466
6.67555
6.54464
6.41229
6.27636
6.13814
6.00006
1
1
1
1
1
1
1
1
1
1
1
1
1
1
1
1
1
1
1
1
1
1
1
1
1
1
1
1
1
1
1
1
1
1
1
1
1
1
1
1
1
1
1
1
1
1
1
1
1
1
1
1
1
1
1
1
1
1
1
1
1
1
1.00344
1.49834
5.71806
8.47805
8.5811
8.54977
8.51413
8.47269
8.42619
8.37512
8.32069
8.26185
8.19808
8.13043
8.05907
7.9841
7.90533
7.82264
7.73606
7.64579
7.55164
7.45411
7.3527
7.24745
7.13788
7.02312
6.90577
6.78538
6.6624
6.53718
6.41126
6.28136
6.15114
6.01968
1
1
1
1
1
1
1
1
1
1
1
1
1
1
1
1
1
1
1
1
1
1
1
1
1
1
1
1
1
1
1
1
1
1
1
1
1
1
1
1
1
1
1
1
1
1
1
1
1
1
1
1
1
1
1
1
1
1
1
1
1
1
1
1.00745
1.6747
6.155
8.4395
8.50658
8.46463
8.41828
8.36913
8.31818
8.26406
8.20563
8.14236
8.07584
8.00615
7.9325
7.85448
7.77249
7.68702
7.59857
7.50708
7.41257
7.31434
7.21227
7.10557
6.99438
6.88109
6.76618
6.64918
6.53025
6.41013
6.28642
6.16249
6.03655
1
1
1
1
1
1
1
1
1
1
1
1
1
1
1
1
1
1
1
1
1
1
1
1
1
1
1
1
1
1
1
1
1
1
1
1
1
1
1
1
1
1
1
1
1
1
1
1
1
1
1
1
1
1
1
1
1
1
1
1
1
1
1
1.00001
1.01301
1.85726
6.47973
8.37566
8.40922
8.36924
8.32176
8.26973
8.21332
8.15266
8.09062
8.02544
7.95668
7.88386
7.80717
7.72703
7.6436
7.55753
7.46874
7.376
7.27891
7.17807
7.07429
6.96782
6.85965
6.75048
6.63917
6.52556
6.40957
6.29107
6.17254
6.05232
1
1
1
1
1
1
1
1
1
1
1
1
1
1
1
1
1
1
1
1
1
1
1
1
1
1
1
1
1
1
1
1
1
1
1
1
1
1
1
1
1
1
1
1
1
1
1
1
1
1
1
1
1
1
1
1
1
1
1
1
1
1
1
1
1.00003
1.02032
2.02756
6.67246
8.3072
8.32726
8.2776
8.22568
8.1686
8.10999
8.04758
7.98156
7.91114
7.83756
7.76195
7.68381
7.60245
7.51771
7.43019
7.33926
7.24399
7.14538
7.04575
6.94448
6.84038
6.7341
6.62656
6.51806
6.40739
6.29479
6.18125
6.06719
1
1
1
1
1
1
1
1
1
1
1
1
1
1
1
1
1
1
1
1
1
1
1
1
1
1
1
1
1
1
1
1
1
1
1
1
1
1
1
1
1
1
1
1
1
1
1
1
1
1
1
1
1
1
1
1
1
1
1
1
1
1
1
1
1
1.00006
1.02871
2.15341
6.76597
8.2341
8.2409
8.18272
8.13028
8.07077
8.00691
7.93977
7.86944
7.79649
7.72164
7.64459
7.56495
7.48136
7.39376
7.30348
7.21101
7.1159
7.01932
6.92216
6.82285
6.72061
6.61658
6.51205
6.40705
6.29958
6.19101
6.08269
1
1
1
1
1
1
1
1
1
1
1
1
1
1
1
1
1
1
1
1
1
1
1
1
1
1
1
1
1
1
1
1
1
1
1
1
1
1
1
1
1
1
1
1
1
1
1
1
1
1
1
1
1
1
1
1
1
1
1
1
1
1
1
1
1
1
1.00009
1.0359
2.23207
6.76558
8.13612
8.1483
8.09
8.03553
7.96964
7.8998
7.82765
7.75664
7.68478
7.60928
7.52938
7.44563
7.35872
7.27011
7.1812
7.09043
6.99654
6.90153
6.80629
6.70935
6.60937
6.50819
6.40755
6.30561
6.20231
6.09766
1
1
1
1
1
1
1
1
1
1
1
1
1
1
1
1
1
1
1
1
1
1
1
1
1
1
1
1
1
1
1
1
1
1
1
1
1
1
1
1
1
1
1
1
1
1
1
1
1
1
1
1
1
1
1
1
1
1
1
1
1
1
1
1
1
1
1
1.00013
1.04099
2.25524
6.67323
8.04012
8.04482
7.98306
7.92389
7.85783
7.79001
7.72111
7.65012
7.57572
7.49736
7.41534
7.33038
7.24283
7.15382
7.06461
6.97424
6.88298
6.79185
6.69992
6.60527
6.50751
6.40971
6.31296
6.21471
6.11597
1
1
1
1
1
1
1
1
1
1
1
1
1
1
1
1
1
1
1
1
1
1
1
1
1
1
1
1
1
1
1
1
1
1
1
1
1
1
1
1
1
1
1
1
1
1
1
1
1
1
1
1
1
1
1
1
1
1
1
1
1
1
1
1
1
1
1
1
1.00016
1.04248
2.23251
6.42434
7.97881
7.96576
7.89061
7.82275
7.7516
7.68256
7.61279
7.53962
7.46153
7.37909
7.29556
7.2128
7.13017
7.04634
6.95985
6.87026
6.77905
6.68915
6.60048
6.50975
6.41697
6.32443
6.2321
6.13706
1
1
1
1
1
1
1
1
1
1
1
1
1
1
1
1
1
1
1
1
1
1
1
1
1
1
1
1
1
1
1
1
1
1
1
1
1
1
1
1
1
1
1
1
1
1
1
1
1
1
1
1
1
1
1
1
1
1
1
1
1
1
1
1
1
1
1
1
1
1.00017
1.04153
2.11683
6.17967
7.79739
7.86189
7.78835
7.72549
7.65625
7.5836
7.50758
7.42805
7.34624
7.26667
7.18894
7.11076
7.03038
6.9474
6.8623
6.77665
6.69149
6.60691
6.52042
6.42928
6.33668
6.24563
6.15607
1
1
1
1
1
1
1
1
1
1
1
1
1
1
1
1
1
1
1
1
1
1
1
1
1
1
1
1
1
1
1
1
1
1
1
1
1
1
1
1
1
1
1
1
1
1
1
1
1
1
1
1
1
1
1
1
1
1
1
1
1
1
1
1
1
1
1
1
1
1
1.00017
1.03482
1.99013
5.7394
7.67679
7.75132
7.67262
7.61057
7.54307
7.47361
7.39953
7.3227
7.24606
7.1699
7.09403
7.01718
6.9386
6.85867
6.77824
6.69721
6.6154
6.5323
6.44502
6.35331
6.26338
6.17609
1
1
1
1
1
1
1
1
1
1
1
1
1
1
1
1
1
1
1
1
1
1
1
1
1
1
1
1
1
1
1
1
1
1
1
1
1
1
1
1
1
1
1
1
1
1
1
1
1
1
1
1
1
1
1
1
1
1
1
1
1
1
1
1
1
1
1
1
1
1
1
1.00013
1.02759
1.81148
5.15691
7.49823
7.6588
7.57459
7.5057
7.4361
7.36665
7.29996
7.23303
7.16445
7.09346
7.01894
6.94111
6.86168
6.7832
6.70537
6.62613
6.54418
6.45795
6.36854
6.27845
6.19288
1
1
1
1
1
1
1
1
1
1
1
1
1
1
1
1
1
1
1
1
1
1
1
1
1
1
1
1
1
1
1
1
1
1
1
1
1
1
1
1
1
1
1
1
1
1
1
1
1
1
1
1
1
1
1
1
1
1
1
1
1
1
1
1
1
1
1
1
1
1
1
1
1.00009
1.0194
1.60371
4.42236
7.29091
7.5651
7.48578
7.42406
7.36069
7.29743
7.23074
7.16279
7.09336
7.02161
6.94715
6.87042
6.79354
6.71587
6.63547
6.55215
6.46662
6.37906
6.29196
6.21134
1
1
1
1
1
1
1
1
1
1
1
1
1
1
1
1
1
1
1
1
1
1
1
1
1
1
1
1
1
1
1
1
1
1
1
1
1
1
1
1
1
1
1
1
1
1
1
1
1
1
1
1
1
1
1
1
1
1
1
1
1
1
1
1
1
1
1
1
1
1
1
1
1
1.00006
1.01173
1.39376
3.74122
6.94579
7.4632
7.41741
7.35842
7.29331
7.22726
7.15858
7.08849
7.01732
6.94404
6.86935
6.79444
6.71803
6.63956
6.55881
6.47471
6.38996
6.30779
6.22813
1
1
1
1
1
1
1
1
1
1
1
1
1
1
1
1
1
1
1
1
1
1
1
1
1
1
1
1
1
1
1
1
1
1
1
1
1
1
1
1
1
1
1
1
1
1
1
1
1
1
1
1
1
1
1
1
1
1
1
1
1
1
1
1
1
1
1
1
1
1
1
1
1
1
1.00003
1.00579
1.24022
3.07867
6.46892
7.34358
7.37163
7.28061
7.21857
7.1517
7.08298
7.01307
6.94288
6.87113
6.79668
6.72064
6.64353
6.56395
6.48416
6.40474
6.32463
6.24652
1
1
1
1
1
1
1
1
1
1
1
1
1
1
1
1
1
1
1
1
1
1
1
1
1
1
1
1
1
1
1
1
1
1
1
1
1
1
1
1
1
1
1
1
1
1
1
1
1
1
1
1
1
1
1
1
1
1
1
1
1
1
1
1
1
1
1
1
1
1
1
1
1
1
1
1.00001
1.0026
1.13278
2.49474
5.7678
7.20601
7.32116
7.21299
7.14798
7.08167
7.01403
6.94307
6.87028
6.79746
6.72359
6.64746
6.57158
6.49599
6.41783
6.34116
6.26462
1
1
1
1
1
1
1
1
1
1
1
1
1
1
1
1
1
1
1
1
1
1
1
1
1
1
1
1
1
1
1
1
1
1
1
1
1
1
1
1
1
1
1
1
1
1
1
1
1
1
1
1
1
1
1
1
1
1
1
1
1
1
1
1
1
1
1
1
1
1
1
1
1
1
1
1
1
1.00103
1.06688
1.98598
4.89077
6.99821
7.20988
7.14493
7.07848
7.00909
6.93882
6.86838
6.79793
6.72503
6.65322
6.58038
6.50619
6.43387
6.35943
6.2818
1
1
1
1
1
1
1
1
1
1
1
1
1
1
1
1
1
1
1
1
1
1
1
1
1
1
1
1
1
1
1
1
1
1
1
1
1
1
1
1
1
1
1
1
1
1
1
1
1
1
1
1
1
1
1
1
1
1
1
1
1
1
1
1
1
1
1
1
1
1
1
1
1
1
1
1
1
1
1.00036
1.02993
1.58287
3.91732
6.63238
7.10632
7.09922
7.00783
6.93873
6.87406
6.80533
6.73708
6.66787
6.59595
6.52537
6.45111
6.37484
6.30173
1
1
1
1
1
1
1
1
1
1
1
1
1
1
1
1
1
1
1
1
1
1
1
1
1
1
1
1
1
1
1
1
1
1
1
1
1
1
1
1
1
1
1
1
1
1
1
1
1
1
1
1
1
1
1
1
1
1
1
1
1
1
1
1
1
1
1
1
1
1
1
1
1
1
1
1
1
1
1
1.00011
1.01172
1.29854
3.02186
6.00033
6.97204
7.03943
6.95575
6.88518
6.82291
6.75843
6.68672
6.61758
6.54524
6.47021
6.39959
6.32165
1
1
1
1
1
1
1
1
1
1
1
1
1
1
1
1
1
1
1
1
1
1
1
1
1
1
1
1
1
1
1
1
1
1
1
1
1
1
1
1
1
1
1
1
1
1
1
1
1
1
1
1
1
1
1
1
1
1
1
1
1
1
1
1
1
1
1
1
1
1
1
1
1
1
1
1
1
1
1
1
1.00003
1.00392
1.13251
2.28709
5.04807
6.82466
6.97932
6.91032
6.8267
6.74833
6.68439
6.62256
6.55696
6.49035
6.41825
6.34154
1
1
1
1
1
1
1
1
1
1
1
1
1
1
1
1
1
1
1
1
1
1
1
1
1
1
1
1
1
1
1
1
1
1
1
1
1
1
1
1
1
1
1
1
1
1
1
1
1
1
1
1
1
1
1
1
1
1
1
1
1
1
1
1
1
1
1
1
1
1
1
1
1
1
1
1
1
1
1
1
1
1.00001
1.00106
1.05227
1.71193
4.01783
6.41169
6.856
6.86776
6.77228
6.69841
6.62826
6.56281
6.499
6.43229
6.37524
1
1
1
1
1
1
1
1
1
1
1
1
1
1
1
1
1
1
1
1
1
1
1
1
1
1
1
1
1
1
1
1
1
1
1
1
1
1
1
1
1
1
1
1
1
1
1
1
1
1
1
1
1
1
1
1
1
1
1
1
1
1
1
1
1
1
1
1
1
1
1
1
1
1
1
1
1
1
1
1
1
1
1
1.00026
1.01761
1.34145
3.00107
5.63287
6.74213
6.82199
6.75452
6.65925
6.58039
6.51202
6.44742
6.38514
1
1
1
1
1
1
1
1
1
1
1
1
1
1
1
1
1
1
1
1
1
1
1
1
1
1
1
1
1
1
1
1
1
1
1
1
1
1
1
1
1
1
1
1
1
1
1
1
1
1
1
1
1
1
1
1
1
1
1
1
1
1
1
1
1
1
1
1
1
1
1
1
1
1
1
1
1
1
1
1
1
1
1
1
1.00005
1.00496
1.13625
2.14967
4.66922
6.44366
6.72757
6.71108
6.62954
6.54998
6.4862
6.40908
1
1
1
1
1
1
1
1
1
1
1
1
1
1
1
1
1
1
1
1
1
1
1
1
1
1
1
1
1
1
1
1
1
1
1
1
1
1
1
1
1
1
1
1
1
1
1
1
1
1
1
1
1
1
1
1
1
1
1
1
1
1
1
1
1
1
1
1
1
1
1
1
1
1
1
1
1
1
1
1
1
1
1
1
1
1.00001
1.00117
1.04423
1.58479
3.5532
5.92684
6.52191
6.59876
6.57985
6.52833
6.46783
1
1
1
1
1
1
1
1
1
1
1
1
1
1
1
1
1
1
1
1
1
1
1
1
1
1
1
1
1
1
1
1
1
1
1
1
1
1
1
1
1
1
1
1
1
1
1
1
1
1
1
1
1
1
1
1
1
1
1
1
1
1
1
1
1
1
1
1
1
1
1
1
1
1
1
1
1
1
1
1
1
1
1
1
1
1
1
1.0002
1.01303
1.24785
2.51487
4.91765
6.46263
6.55877
6.46858
6.42275
1
1
1
1
1
1
1
1
1
1
1
1
1
1
1
1
1
1
1
1
1
1
1
1
1
1
1
1
1
1
1
1
1
1
1
1
1
1
1
1
1
1
1
1
1
1
1
1
1
1
1
1
1
1
1
1
1
1
1
1
1
1
1
1
1
1
1
1
1
1
1
1
1
1
1
1
1
1
1
1
1
1
1
1
1
1
1
1
1.00003
1.00305
1.08019
1.76645
3.81805
5.93558
6.41704
6.46502
1
1
1
1
1
1
1
1
1
1
1
1
1
1
1
1
1
1
1
1
1
1
1
1
1
1
1
1
1
1
1
1
1
1
1
1
1
1
1
1
1
1
1
1
1
1
1
1
1
1
1
1
1
1
1
1
1
1
1
1
1
1
1
1
1
1
1
1
1
1
1
1
1
1
1
1
1
1
1
1
1
1
1
1
1
1
1
1
1
1
1.00052
1.02175
1.32612
2.70219
5.05577
6.17968
1
1
1
1
1
1
1
1
1
1
1
1
1
1
1
1
1
1
1
1
1
1
1
1
1
1
1
1
1
1
1
1
1
1
1
1
1
1
1
1
1
1
1
1
1
1
1
1
1
1
1
1
1
1
1
1
1
1
1
1
1
1
1
1
1
1
1
1
1
1
1
1
1
1
1
1
1
1
1
1
1
1
1
1
1
1
1
1
1
1
1
1.00007
1.00514
1.10594
1.85947
3.92917
1
1
1
1
1
1
1
1
1
1
1
1
1
1
1
1
1
1
1
1
1
1
1
1
1
1
1
1
1
1
1
1
1
1
1
1
1
1
1
1
1
1
1
1
1
1
1
1
1
1
1
1
1
1
1
1
1
1
1
1
1
1
1
1
1
1
1
1
1
1
1
1
1
1
1
1
1
1
1
1
1
1
1
1
1
1
1
1
1
1
1
1
1.00001
1.00084
1.02692
1.36228
1
1
1
1
1
1
1
1
1
1
1
1
1
1
1
1
1
1
1
1
1
1
1
1
1
1
1
1
1
1
1
1
1
1
1
1
1
1
1
1
1
1
1
1
1
1
1
1
1
1
1
1
1
1
1
1
1
1
1
1
1
1
1
1
1
1
1
1
1
1
1
1
1
1
1
1
1
1
1
1
1
1
1
1
1
1
1
1
1
1
1
1
1
1
1.00011
1.00518
1
1
1
1
1
1
1
1
1
1
1
1
1
1
1
1
1
1
1
1
1
1
1
1
1
1
1
1
1
1
1
1
1
1
1
1
1
1
1
1
1
1
1
1
1
1
1
1
1
1
1
1
1
1
1
1
1
1
1
1
1
1
1
1
1
1
1
1
1
1
1
1
1
1
1
1
1
1
1
1
1
1
1
1
1
1
1
1
1
1
1
1
1
1
1
1.00001
1
1
1
1
1
1
1
1
1
1
1
1
1
1
1
1
1
1
1
1
1
1
1
1
1
1
1
1
1
1
1
1
1
1
1
1
1
1
1
1
1
1
1
1
1
1
1
1
1
1
1
1
1
1
1
1
1
1
1
1
1
1
1
1
1
1
1
1
1
1
1
1
1
1
1
1
1
1
1
1
1
1
1
1
1
1
1
1
1
1
1
1
1
1
1
1
1
1
1
1
1
1
1
1
1
1
1
1
1
1
1
1
1
1
1
1
1
1
1
1
1
1
1
1
1
1
1
1
1
1
1
1
1
1
1
1
1
1
1
1
1
1
1
1
1
1
1
1
1
1
1
1
1
1
1
1
1
1
1
1
1
1
1
1
1
1
1
1
1
1
1
1
1
1
1
1
1
1
1
1
1
1
1
1
1
1
1
1
1
1
1
1
1
1
1
1
1
1
1
1
1
1
1
1
1
1
1
1
1
1
1
1
1
1
1
1
1
1
1
1
1
1
1
1
1
1
1
1
1
1
1
1
1
1
1
1
1
1
1
1
1
1
1
1
1
1
1
1
1
1
1
1
1
1
1
1
1
1
1
1
1
1
1
1
1
1
1
1
1
1
1
1
1
1
1
1
1
1
1
1
1
1
1
1
1
1
1
1
1
1
1
1
1
1
1
1
1
1
1
1
1
1
1
1
1
1
1
1
1
1
1
1
1
1
1
1
1
1
1
1
1
1
1
1
1
1
1
1
1
1
1
1
1
1
1
1
1
1
1
1
1
1
1
1
1
1
1
1
1
1
1
1
1
1
1
1
1
1
1
1
1
1
1
1
1
1
1
1
1
1
1
1
1
1
1
1
1
1
1
1
1
1
1
1
1
1
1
1
1
1
1
1
1
1
1
1
1
1
1
1
1
1
1
1
1
1
1
1
1
1
1
1
1
1
1
1
1
1
1
1
1
1
1
1
1
1
1
1
1
1
1
1
1
1
1
1
1
1
1
1
1
1
1
1
1
1
1
1
1
1
1
1
1
1
1
1
1
1
1
1
1
1
1
1
1
1
1
1
1
1
1
1
1
1
1
1
1
1
1
1
1
1
1
1
1
1
1
1
1
1
1
1
1
1
1
1
1
1
1
1
1
1
1
1
1
1
1
1
1
1
1
1
1
1
1
1
1
1
1
1
1
1
1
1
1
1
1
1
1
1
1
1
1
1
1
1
1
1
1
1
1
1
1
1
1
1
1
1
1
1
1
1
1
1
1
1
1
1
1
1
1
1
1
1
1
1
1
1
1
1
1
1
1
1
1
1
1
1
1
1
1
1
1
1
1
1
1
1
1
1
1
1
1
1
1
1
1
1
1
1
1
1
1
1
1
1
1
1
1
1
1
1
1
1
1
1
1
1
1
1
1
1
1
1
1
1
1
1
1
1
1
1
1
1
1
1
1
1
1
1
1
1
1
1
1
1
1
1
1
1
1
1
1
1
1
1
1
1
1
1
1
1
1
1
1
1
1
1
1
1
1
1
1
1
1
1
1
1
1
1
1
1
1
1
1
1
1
1
1
1
1
1
1
1
1
1
1
1
1
1
1
1
1
1
1
1
1
1
1
1
1
1
1
1
1
1
1
1
1
1
1
1
1
1
1
1
1
1
1
1
1
1
1
1
1
1
1
1
1
1
1
1
1
1
1
1
1
1
1
1
1
1
1
1
1
1
1
1
1
1
1
1
1
1
1
1
1
1
1
1
1
1
1
1
1
1
1
1
1
1
1
1
1
1
1
1
1
1
1
1
1
1
1
1
1
1
1
1
1
1
1
1
1
1
1
1
1
1
1
1
1
1
1
1
1
1
1
1
1
1
1
1
1
1
1
1
1
1
1
1
1
1
1
1
1
1
1
1
1
1
1
1
1
1
1
1
1
1
1
1
1
1
1
1
1
1
1
1
1
1
1
1
1
1
1
1
1
1
1
1
1
1
1
1
1
1
1
1
1
1
1
1
1
1
1
1
1
1
1
1
1
1
1
1
1
1
1
1
1
1
1
1
1
1
1
1
1
1
1
1
1
1
1
1
1
1
1
1
1
1
1
1
1
1
1
1
1
1
1
1
1
1
1
1
1
1
1
1
1
1
1
1
1
1
1
1
1
1
1
1
1
1
1
1
1
1
1
1
1
1
1
1
1
1
1
1
1
1
1
1
1
1
1
1
1
1
1
1
1
1
1
1
1
1
1
1
1
1
1
1
1
1
1
1
1
1
1
1
1
1
1
1
1
1
1
1
1
1
1
1
1
1
1
1
1
1
1
1
1
1
1
1
1
1
1
1
1
1
1
1
1
1
1
1
1
1
1
1
1
1
1
1
1
1
1
1
1
1
1
1
1
1
1
1
1
1
1
1
1
1
1
1
1
1
1
1
1
1
1
1
1
1
1
1
1
1
1
1
1
1
1
1
1
1
1
1
1
1
1
1
1
1
1
1
1
1
1
1
1
1
1
1
1
1
1
1
1
1
1
1
1
1
1
1
1
1
1
1
1
1
1
1
1
1
1
1
1
1
1
1
1
1
1
1
1
1
1
1
1
1
1
1
1
1
1
1
1
1
1
1
1
1
1
1
1
1
1
1
1
1
1
1
1
1
1
1
1
1
1
1
1
1
1
1
1
1
1
1
1
1
1
1
1
1
1
1
1
1
1
1
1
1
1
1
1
1
1
1
1
1
1
1
1
1
1
1
1
1
1
1
1
1
1
1
1
1
1
1
1
1
1
1
1
1
1
1
1
1
1
1
1
1
1
1
1
1
1
1
1
1
1
1
1
1
1
1
1
1
1
1
1
1
1
1
1
1
1
1
1
1
1
1
1
1
1
1
1
1
1
1
1
1
1
1
1
1
1
1
1
1
1
1
1
1
1
1
1
1
1
1
1
1
1
1
1
1
1
1
1
1
1
1
1
1
1
1
1
1
1
1
1
1
1
1
1
1
1
1
1
1
1
1
1
1
1
1
1
1
1
1
1
1
1
1
1
1
1
1
1
1
1
1
1
1
1
1
1
1
1
1
1
1
1
1
1
1
1
1
1
1
1
1
1
1
1
1
1
1
1
1
1
1
1
1
1
1
1
1
1
1
1
1
1
1
1
1
1
1
1
1
1
1
1
1
1
1
1
1
1
1
1
1
1
1
1
1
1
1
1
1
1
1
1
1
1
1
1
1
1
1
1
1
1
1
1
1
1
1
1
1
1
1
1
1
1
1
1
1
1
1
1.12164
0.237774
0.0286207
0.0189105
0.0327749
0.0648081
0.103183
0.132353
0.17921
0.247817
0.321224
0.400157
0.467834
0.529888
0.609435
0.709352
0.792133
0.855567
0.919097
0.955901
0.971964
0.981268
1.00136
1.02085
1.02546
1.02709
1.03599
1.06146
1.08894
1.11806
1.15164
1.18008
1.20197
1.20745
1.2064
1.20928
1.21634
1.22231
1.23358
1.25594
1.27929
1.28597
1.28884
1.29161
1.29316
1.29307
1.29693
1.30877
1.32716
1.34312
1.35122
1.35263
1.35157
1.34852
1.34304
1.33926
1.33693
1.33682
1.34006
1.34391
1.34676
3.1482
6.05786
6.33557
6.37908
6.4094
6.4125
6.40106
6.3708
6.33594
6.30669
6.28322
6.26546
6.25114
6.22968
6.19354
6.1413
6.08288
6.02974
5.98688
5.95482
5.92748
5.89327
5.83963
5.76677
5.69017
5.62214
5.56868
5.53026
5.50235
5.47689
5.44617
5.40494
5.35508
5.30025
5.2447
5.19198
5.14369
5.0994
5.05733
5.0159
4.97454
4.93318
4.89197
4.85081
4.80984
4.76927
4.72961
4.69101
4.6528
4.61406
4.5741
4.53351
4.49377
4.45626
4.42183
4.39079
4.36326
4.33499
4.29788
4.25473
4.20737
4.15538
4.10354
4.05944
4.02353
3.9936
3.9752
3.96654
3.95514
3.93009
3.89573
3.85417
3.80423
3.75474
3.71593
3.68539
3.65875
3.63794
3.62133
3.60258
3.57704
3.54698
3.5096
3.46455
3.41821
3.37945
3.34969
3.32376
3.29913
3.2777
3.25927
3.23828
3.21326
3.18472
3.14887
3.10525
3.06277
3.02812
2.9997
2.97546
2.95511
2.93786
2.92236
2.90752
2.8905
2.86936
2.84042
2.8045
2.77093
2.7473
2.72969
2.71394
2.70133
2.69076
2.6756
2.6569
2.63409
2.6037
2.57016
2.54237
2.52125
2.5038
2.48864
2.47508
2.46192
2.44903
2.43606
2.42256
2.40448
2.38249
2.34404
2.04581
0.909449
0.391363
0.255283