/*--------------------------------*- C++ -*----------------------------------*\
  =========                 |
  \\      /  F ield         | OpenFOAM: The Open Source CFD Toolbox
   \\    /   O peration     | Website:  https://openfoam.org
    \\  /    A nd           | Version:  7
     \\/     M anipulation  |
\*---------------------------------------------------------------------------*/
FoamFile
{
    version     2.0;
    format      ascii;
    class       volScalarField;
    location    "3.5";
    object      rho;
}
// * * * * * * * * * * * * * * * * * * * * * * * * * * * * * * * * * * * * * //

dimensions      [1 -3 0 0 0 0 0];

internalField   nonuniform List<scalar> 
19968
(
1.40001
1.40001
1.40001
1.40001
1.40001
1.40001
1.40001
1.40001
1.40001
1.40001
1.40001
1.40001
1.40001
1.40001
1.40001
1.40001
1.40001
1.40001
1.40001
1.40001
1.40001
1.40001
1.40001
1.40001
1.40001
1.40001
1.40001
1.40001
1.40001
1.40001
1.40001
1.40001
1.40001
1.40001
1.40001
1.40001
1.40001
1.40001
1.40001
1.40001
1.40001
1.40001
1.40001
1.40001
1.40001
1.40001
1.40001
1.40001
1.51002
4.25567
5.42462
5.43895
5.46622
5.49023
5.51015
5.52741
5.54407
5.56168
5.58082
5.60109
5.62179
5.6425
5.66293
5.68231
5.69952
5.71392
5.72591
5.73723
5.75024
5.76641
5.78551
5.80532
5.82279
5.83723
5.85011
5.86291
5.87664
5.89115
5.90475
5.91545
5.92268
5.92773
5.93277
5.93982
5.94997
5.96256
5.97549
5.9865
5.99429
5.99894
6.00127
6.0021
6.00198
6.00092
6.00008
5.99906
1.40001
1.40001
1.40001
1.40001
1.40001
1.40001
1.40001
1.40001
1.40001
1.40001
1.40001
1.40001
1.40001
1.40001
1.40001
1.40001
1.40001
1.40001
1.40001
1.40001
1.40001
1.40001
1.40001
1.40001
1.40001
1.40001
1.40001
1.40001
1.40001
1.40001
1.40001
1.40001
1.40001
1.40001
1.40001
1.40001
1.40001
1.40001
1.40001
1.40001
1.40001
1.40001
1.40001
1.40001
1.40001
1.40001
1.40001
1.40001
1.50081
4.22587
5.41503
5.44035
5.46533
5.48841
5.50845
5.52617
5.54329
5.5611
5.58007
5.60017
5.6209
5.64174
5.66217
5.68125
5.69804
5.71222
5.72441
5.73615
5.74958
5.76594
5.78469
5.80387
5.82083
5.83517
5.84816
5.8611
5.87479
5.88907
5.90244
5.9132
5.92085
5.92647
5.93189
5.93892
5.94863
5.96055
5.97291
5.98363
5.99145
5.9963
5.99885
5.9998
5.99971
5.99863
5.99772
5.99672
1.40001
1.40001
1.40001
1.40001
1.40001
1.40001
1.40001
1.40001
1.40001
1.40001
1.40001
1.40001
1.40001
1.40001
1.40001
1.40001
1.40001
1.40001
1.40001
1.40001
1.40001
1.40001
1.40001
1.40001
1.40001
1.40001
1.40001
1.40001
1.40001
1.40001
1.40001
1.40001
1.40001
1.40001
1.40001
1.40001
1.40001
1.40001
1.40001
1.40001
1.40001
1.40001
1.40001
1.40001
1.40001
1.40001
1.40001
1.40001
1.47652
4.1822
5.40893
5.4375
5.45951
5.48238
5.5028
5.52178
5.54021
5.55877
5.57791
5.59807
5.61896
5.63993
5.66019
5.67876
5.69495
5.70895
5.72165
5.73426
5.74843
5.76505
5.7832
5.80157
5.81785
5.83207
5.84521
5.8583
5.87186
5.88572
5.89873
5.90961
5.91797
5.92454
5.93061
5.93765
5.94666
5.95749
5.96884
5.97898
5.98671
5.99176
5.99458
5.99572
5.99566
5.99445
5.99332
5.99221
1.40001
1.40001
1.40001
1.40001
1.40001
1.40001
1.40001
1.40001
1.40001
1.40001
1.40001
1.40001
1.40001
1.40001
1.40001
1.40001
1.40001
1.40001
1.40001
1.40001
1.40001
1.40001
1.40001
1.40001
1.40001
1.40001
1.40001
1.40001
1.40001
1.40001
1.40001
1.40001
1.40001
1.40001
1.40001
1.40001
1.40001
1.40001
1.40001
1.40001
1.40001
1.40001
1.40001
1.40001
1.40001
1.40001
1.40001
1.40001
1.41401
4.09015
5.40441
5.43553
5.45648
5.47841
5.49818
5.51681
5.53537
5.55417
5.57354
5.59411
5.61553
5.63682
5.65692
5.67478
5.69017
5.70385
5.71712
5.73074
5.74576
5.76261
5.78004
5.79755
5.81317
5.82743
5.84086
5.85413
5.86748
5.88084
5.89347
5.90456
5.9138
5.92144
5.92819
5.93511
5.94322
5.95277
5.96299
5.97249
5.9801
5.98535
5.98837
5.98957
5.98926
5.98759
5.98599
5.98456
1.40001
1.40001
1.40001
1.40001
1.40001
1.40001
1.40001
1.40001
1.40001
1.40001
1.40001
1.40001
1.40001
1.40001
1.40001
1.40001
1.40001
1.40001
1.40001
1.40001
1.40001
1.40001
1.40001
1.40001
1.40001
1.40001
1.40001
1.40001
1.40001
1.40001
1.40001
1.40001
1.40001
1.40001
1.40001
1.40001
1.40001
1.40001
1.40001
1.40001
1.40001
1.40001
1.40001
1.40001
1.40001
1.40001
1.40001
1.40001
1.40025
3.91839
5.39528
5.42903
5.44758
5.46906
5.48871
5.50743
5.52627
5.54549
5.56545
5.58674
5.60881
5.63021
5.64974
5.66686
5.68198
5.69587
5.70975
5.72391
5.73895
5.75541
5.77201
5.78895
5.80439
5.8191
5.83297
5.84633
5.85921
5.87187
5.88413
5.89558
5.90582
5.91458
5.92198
5.92875
5.936
5.94437
5.95356
5.96255
5.97027
5.97609
5.97982
5.98151
5.98133
5.97956
5.97758
5.97599
1.40001
1.40001
1.40001
1.40001
1.40001
1.40001
1.40001
1.40001
1.40001
1.40001
1.40001
1.40001
1.40001
1.40001
1.40001
1.40001
1.40001
1.40001
1.40001
1.40001
1.40001
1.40001
1.40001
1.40001
1.40001
1.40001
1.40001
1.40001
1.40001
1.40001
1.40001
1.40001
1.40001
1.40001
1.40001
1.40001
1.40001
1.40001
1.40001
1.40001
1.40001
1.40001
1.40001
1.40001
1.40001
1.40001
1.40001
1.40001
1.40001
3.66844
5.36685
5.42172
5.44124
5.4641
5.48392
5.50203
5.5198
5.53811
5.55762
5.57883
5.60109
5.62252
5.64181
5.65902
5.67477
5.68939
5.70377
5.71788
5.73193
5.74718
5.76273
5.77935
5.79501
5.81046
5.82483
5.83811
5.85027
5.86207
5.87394
5.88573
5.89677
5.90625
5.91384
5.92019
5.92652
5.93372
5.94179
5.95
5.95749
5.96362
5.96788
5.96997
5.96982
5.96781
5.96541
5.96366
1.40001
1.40001
1.40001
1.40001
1.40001
1.40001
1.40001
1.40001
1.40001
1.40001
1.40001
1.40001
1.40001
1.40001
1.40001
1.40001
1.40001
1.40001
1.40001
1.40001
1.40001
1.40001
1.40001
1.40001
1.40001
1.40001
1.40001
1.40001
1.40001
1.40001
1.40001
1.40001
1.40001
1.40001
1.40001
1.40001
1.40001
1.40001
1.40001
1.40001
1.40001
1.40001
1.40001
1.40001
1.40001
1.40001
1.40001
1.40001
1.40001
3.34448
5.32253
5.41274
5.43459
5.46015
5.48066
5.49813
5.5142
5.5305
5.54842
5.5686
5.59068
5.61253
5.63254
5.6509
5.66778
5.68272
5.69642
5.70939
5.72182
5.73591
5.75096
5.76774
5.78398
5.8001
5.81474
5.82771
5.83903
5.84999
5.86144
5.87327
5.88456
5.89423
5.9018
5.90783
5.9135
5.91973
5.9267
5.93402
5.94117
5.94756
5.95241
5.95495
5.95491
5.9528
5.95012
5.9484
1.40001
1.40001
1.40001
1.40001
1.40001
1.40001
1.40001
1.40001
1.40001
1.40001
1.40001
1.40001
1.40001
1.40001
1.40001
1.40001
1.40001
1.40001
1.40001
1.40001
1.40001
1.40001
1.40001
1.40001
1.40001
1.40001
1.40001
1.40001
1.40001
1.40001
1.40001
1.40001
1.40001
1.40001
1.40001
1.40001
1.40001
1.40001
1.40001
1.40001
1.40001
1.40001
1.40001
1.40001
1.40001
1.40001
1.40001
1.40001
1.40001
2.95126
5.24613
5.40203
5.4281
5.45672
5.47817
5.49576
5.51071
5.52484
5.54009
5.558
5.57901
5.60117
5.62226
5.6419
5.65969
5.67461
5.68713
5.69867
5.70941
5.72234
5.73705
5.75385
5.77053
5.78684
5.80133
5.81378
5.82438
5.8347
5.84579
5.85745
5.8686
5.87825
5.88595
5.89207
5.89749
5.90296
5.90882
5.91509
5.92164
5.92795
5.933
5.93562
5.93535
5.93301
5.93006
5.92844
1.40001
1.40001
1.40001
1.40001
1.40001
1.40001
1.40001
1.40001
1.40001
1.40001
1.40001
1.40001
1.40001
1.40001
1.40001
1.40001
1.40001
1.40001
1.40001
1.40001
1.40001
1.40001
1.40001
1.40001
1.40001
1.40001
1.40001
1.40001
1.40001
1.40001
1.40001
1.40001
1.40001
1.40001
1.40001
1.40001
1.40001
1.40001
1.40001
1.40001
1.40001
1.40001
1.40001
1.40001
1.40001
1.40001
1.40001
1.40001
1.40001
2.50249
5.10427
5.39939
5.42824
5.45879
5.48108
5.49918
5.51322
5.52508
5.53694
5.55166
5.57047
5.59207
5.61359
5.63364
5.65159
5.6663
5.67783
5.6883
5.69783
5.70937
5.72315
5.73894
5.75513
5.77058
5.78432
5.79602
5.80583
5.81521
5.82526
5.83584
5.84611
5.85536
5.86316
5.86949
5.87475
5.87955
5.88446
5.88998
5.89624
5.90272
5.90809
5.91096
5.91088
5.90891
5.90628
5.90517
1.40001
1.40001
1.40001
1.40001
1.40001
1.40001
1.40001
1.40001
1.40001
1.40001
1.40001
1.40001
1.40001
1.40001
1.40001
1.40001
1.40001
1.40001
1.40001
1.40001
1.40001
1.40001
1.40001
1.40001
1.40001
1.40001
1.40001
1.40001
1.40001
1.40001
1.40001
1.40001
1.40001
1.40001
1.40001
1.40001
1.40001
1.40001
1.40001
1.40001
1.40001
1.40001
1.40001
1.40001
1.40001
1.40001
1.40001
1.40001
1.40001
2.01885
4.85487
5.41128
5.42692
5.45224
5.47274
5.49166
5.5068
5.51934
5.53098
5.5443
5.56102
5.58102
5.60201
5.62195
5.64013
5.65544
5.66731
5.67769
5.68704
5.69736
5.70991
5.7239
5.73885
5.75299
5.76599
5.77719
5.78651
5.79493
5.80352
5.81256
5.82164
5.83031
5.83807
5.84436
5.84912
5.85288
5.8565
5.86079
5.86599
5.87146
5.8759
5.87798
5.87749
5.87562
5.87331
5.87255
1.40001
1.40001
1.40001
1.40001
1.40001
1.40001
1.40001
1.40001
1.40001
1.40001
1.40001
1.40001
1.40001
1.40001
1.40001
1.40001
1.40001
1.40001
1.40001
1.40001
1.40001
1.40001
1.40001
1.40001
1.40001
1.40001
1.40001
1.40001
1.40001
1.40001
1.40001
1.40001
1.40001
1.40001
1.40001
1.40001
1.40001
1.40001
1.40001
1.40001
1.40001
1.40001
1.40001
1.40001
1.40001
1.40001
1.40001
1.40001
1.40001
1.57309
4.40656
5.43502
5.43226
5.45093
5.46897
5.48704
5.50284
5.51643
5.52836
5.53995
5.55307
5.56899
5.58693
5.60501
5.62227
5.63778
5.65046
5.6611
5.67069
5.67952
5.6901
5.70157
5.71447
5.727
5.73912
5.74991
5.75892
5.76641
5.77347
5.78088
5.7887
5.79656
5.80377
5.80948
5.8134
5.81617
5.81887
5.82236
5.82674
5.83129
5.83501
5.83678
5.83661
5.83543
5.83391
5.83369
1.40001
1.40001
1.40001
1.40001
1.40001
1.40001
1.40001
1.40001
1.40001
1.40001
1.40001
1.40001
1.40001
1.40001
1.40001
1.40001
1.40001
1.40001
1.40001
1.40001
1.40001
1.40001
1.40001
1.40001
1.40001
1.40001
1.40001
1.40001
1.40001
1.40001
1.40001
1.40001
1.40001
1.40001
1.40001
1.40001
1.40001
1.40001
1.40001
1.40001
1.40001
1.40001
1.40001
1.40001
1.40001
1.40001
1.40001
1.40001
1.40001
1.40288
3.68973
5.3375
5.37873
5.40212
5.42507
5.44621
5.46581
5.48338
5.4989
5.51253
5.52554
5.53962
5.55553
5.57263
5.5898
5.60641
5.62111
5.63331
5.64404
5.653
5.66225
5.67218
5.68314
5.69438
5.70559
5.71589
5.72444
5.73101
5.73658
5.74236
5.74882
5.75556
5.76186
5.76691
5.77044
5.77298
5.77537
5.77796
5.78043
5.78214
5.78278
5.78202
5.78009
5.77771
5.77567
5.77504
1.40001
1.40001
1.40001
1.40001
1.40001
1.40001
1.40001
1.40001
1.40001
1.40001
1.40001
1.40001
1.40001
1.40001
1.40001
1.40001
1.40001
1.40001
1.40001
1.40001
1.40001
1.40001
1.40001
1.40001
1.40001
1.40001
1.40001
1.40001
1.40001
1.40001
1.40001
1.40001
1.40001
1.40001
1.40001
1.40001
1.40001
1.40001
1.40001
1.40001
1.40001
1.40001
1.40001
1.40001
1.40001
1.40001
1.40001
1.40001
1.40001
1.40001
2.80024
5.13236
5.35886
5.38667
5.41043
5.43153
5.45168
5.46957
5.485
5.49769
5.50869
5.51977
5.53238
5.54679
5.56207
5.57748
5.59199
5.60423
5.61475
5.62343
5.63096
5.63904
5.6477
5.65704
5.66641
5.67527
5.6827
5.68814
5.69213
5.69583
5.69999
5.7043
5.7081
5.71091
5.7125
5.7132
5.71347
5.7134
5.7125
5.71094
5.70934
5.70777
5.70581
5.70418
5.70282
5.70247
1.40001
1.40001
1.40001
1.40001
1.40001
1.40001
1.40001
1.40001
1.40001
1.40001
1.40001
1.40001
1.40001
1.40001
1.40001
1.40001
1.40001
1.40001
1.40001
1.40001
1.40001
1.40001
1.40001
1.40001
1.40001
1.40001
1.40001
1.40001
1.40001
1.40001
1.40001
1.40001
1.40001
1.40001
1.40001
1.40001
1.40001
1.40001
1.40001
1.40001
1.40001
1.40001
1.40001
1.40001
1.40001
1.40001
1.40001
1.40001
1.40001
1.40001
1.86147
4.69325
5.38065
5.37615
5.39483
5.41589
5.43744
5.45645
5.47202
5.48405
5.49358
5.50237
5.51203
5.52337
5.53597
5.54897
5.56159
5.57249
5.58149
5.58902
5.59507
5.60096
5.60731
5.61407
5.62084
5.62722
5.63261
5.63633
5.6384
5.63946
5.64042
5.64126
5.64167
5.64169
5.64123
5.64046
5.63935
5.63746
5.63394
5.62915
5.62302
5.61579
5.60645
5.59644
5.5869
5.57904
1.40001
1.40001
1.40001
1.40001
1.40001
1.40001
1.40001
1.40001
1.40001
1.40001
1.40001
1.40001
1.40001
1.40001
1.40001
1.40001
1.40001
1.40001
1.40001
1.40001
1.40001
1.40001
1.40001
1.40001
1.40001
1.40001
1.40001
1.40001
1.40001
1.40001
1.40001
1.40001
1.40001
1.40001
1.40001
1.40001
1.40001
1.40001
1.40001
1.40001
1.40001
1.40001
1.40001
1.40001
1.40001
1.40001
1.40001
1.40001
1.40001
1.40001
1.41454
3.54356
5.29478
5.36509
5.38574
5.40541
5.42386
5.44084
5.45484
5.46552
5.47348
5.48019
5.4872
5.49557
5.50531
5.51566
5.52584
5.53487
5.54215
5.548
5.5524
5.55578
5.55925
5.56301
5.56689
5.57042
5.57298
5.57431
5.5739
5.57149
5.56858
5.56498
5.5605
5.55569
5.55029
5.54394
5.53571
5.52468
5.51013
5.4923
5.4722
5.45113
5.43265
5.41673
5.40887
5.40486
1.40001
1.40001
1.40001
1.40001
1.40001
1.40001
1.40001
1.40001
1.40001
1.40001
1.40001
1.40001
1.40001
1.40001
1.40001
1.40001
1.40001
1.40001
1.40001
1.40001
1.40001
1.40001
1.40001
1.40001
1.40001
1.40001
1.40001
1.40001
1.40001
1.40001
1.40001
1.40001
1.40001
1.40001
1.40001
1.40001
1.40001
1.40001
1.40001
1.40001
1.40001
1.40001
1.40001
1.40001
1.40001
1.40001
1.40001
1.40001
1.40001
1.40001
1.40001
2.15913
4.88715
5.34882
5.36177
5.38301
5.40141
5.41839
5.43204
5.44201
5.44903
5.45466
5.46026
5.46674
5.47437
5.48271
5.49089
5.49796
5.50316
5.50645
5.50791
5.50776
5.50719
5.50678
5.50684
5.50697
5.50593
5.50349
5.49905
5.49259
5.4844
5.47462
5.46363
5.45159
5.43824
5.42301
5.40497
5.38351
5.35862
5.33133
5.3027
5.27331
5.23554
5.19193
5.13414
5.15074
1.40001
1.40001
1.40001
1.40001
1.40001
1.40001
1.40001
1.40001
1.40001
1.40001
1.40001
1.40001
1.40001
1.40001
1.40001
1.40001
1.40001
1.40001
1.40001
1.40001
1.40001
1.40001
1.40001
1.40001
1.40001
1.40001
1.40001
1.40001
1.40001
1.40001
1.40001
1.40001
1.40001
1.40001
1.40001
1.40001
1.40001
1.40001
1.40001
1.40001
1.40001
1.40001
1.40001
1.40001
1.40001
1.40001
1.40001
1.40001
1.40001
1.40001
1.4
1.43838
3.8832
5.30725
5.34039
5.35777
5.37578
5.39151
5.40459
5.4142
5.42108
5.42676
5.43218
5.43783
5.44406
5.4508
5.45731
5.46259
5.46573
5.46664
5.46524
5.46205
5.45755
5.45276
5.44878
5.44524
5.44029
5.43366
5.42511
5.41437
5.40124
5.38575
5.36799
5.348
5.32545
5.29948
5.2685
5.23108
5.18487
5.1286
5.05543
4.95891
4.81105
4.58128
4.17071
3.26265
1.40001
1.40001
1.40001
1.40001
1.40001
1.40001
1.40001
1.40001
1.40001
1.40001
1.40001
1.40001
1.40001
1.40001
1.40001
1.40001
1.40001
1.40001
1.40001
1.40001
1.40001
1.40001
1.40001
1.40001
1.40001
1.40001
1.40001
1.40001
1.40001
1.40001
1.40001
1.40001
1.40001
1.40001
1.40001
1.40001
1.40001
1.40001
1.40001
1.40001
1.40001
1.40001
1.40001
1.40001
1.40001
1.40001
1.40001
1.40001
1.40001
1.40001
1.40001
1.39992
2.6551
5.01103
5.3001
5.31907
5.3414
5.35903
5.37481
5.38694
5.39481
5.40031
5.40514
5.41008
5.41551
5.42141
5.42718
5.43167
5.43382
5.43341
5.43013
5.42452
5.41716
5.40895
5.40135
5.39421
5.38537
5.37454
5.36172
5.3466
5.32877
5.30794
5.28369
5.25595
5.224
5.18719
5.14268
5.08938
5.02185
4.93993
4.83135
4.69225
4.48764
4.20978
3.67953
2.91375
1.40001
1.40001
1.40001
1.40001
1.40001
1.40001
1.40001
1.40001
1.40001
1.40001
1.40001
1.40001
1.40001
1.40001
1.40001
1.40001
1.40001
1.40001
1.40001
1.40001
1.40001
1.40001
1.40001
1.40001
1.40001
1.40001
1.40001
1.40001
1.40001
1.40001
1.40001
1.40001
1.40001
1.40001
1.40001
1.40001
1.40001
1.40001
1.40001
1.40001
1.40001
1.40001
1.40001
1.40001
1.40001
1.40001
1.40001
1.40001
1.40001
1.40001
1.40001
1.39999
1.5722
4.40542
5.35264
5.33374
5.33452
5.34192
5.35125
5.35988
5.36586
5.37023
5.37425
5.3784
5.38287
5.38775
5.39247
5.39585
5.397
5.39517
5.39051
5.38328
5.37413
5.36331
5.35231
5.34116
5.32823
5.31328
5.2961
5.27643
5.25356
5.22721
5.19628
5.16097
5.11975
5.07273
5.01584
4.94851
4.86433
4.76208
4.63262
4.46534
4.2486
3.93234
3.49097
2.97265
1.40001
1.40001
1.40001
1.40001
1.40001
1.40001
1.40001
1.40001
1.40001
1.40001
1.40001
1.40001
1.40001
1.40001
1.40001
1.40001
1.40001
1.40001
1.40001
1.40001
1.40001
1.40001
1.40001
1.40001
1.40001
1.40001
1.40001
1.40001
1.40001
1.40001
1.40001
1.40001
1.40001
1.40001
1.40001
1.40001
1.40001
1.40001
1.40001
1.40001
1.40001
1.40001
1.40001
1.40001
1.40001
1.40001
1.40001
1.40001
1.40001
1.40001
1.40001
1.4
1.4015
3.10241
5.12398
5.29237
5.30733
5.31828
5.32531
5.33028
5.33325
5.33561
5.33834
5.34169
5.34557
5.34976
5.35367
5.35602
5.35595
5.35316
5.34771
5.33966
5.32938
5.3167
5.30285
5.28785
5.27113
5.25227
5.23083
5.20678
5.17898
5.14722
5.10982
5.06729
5.0178
4.96169
4.89531
4.81715
4.72261
4.60803
4.46865
4.29289
4.07358
3.79481
3.45597
3.07097
1.40001
1.40001
1.40001
1.40001
1.40001
1.40001
1.40001
1.40001
1.40001
1.40001
1.40001
1.40001
1.40001
1.40001
1.40001
1.40001
1.40001
1.40001
1.40001
1.40001
1.40001
1.40001
1.40001
1.40001
1.40001
1.40001
1.40001
1.40001
1.40001
1.40001
1.40001
1.40001
1.40001
1.40001
1.40001
1.40001
1.40001
1.40001
1.40001
1.40001
1.40001
1.40001
1.40001
1.40001
1.40001
1.40001
1.40001
1.40001
1.40001
1.40001
1.40001
1.40001
1.4
1.75043
4.57755
5.32333
5.31035
5.31148
5.31253
5.31163
5.31027
5.30949
5.30973
5.31092
5.31263
5.31434
5.31558
5.31573
5.31376
5.30943
5.30275
5.29373
5.28259
5.26904
5.25329
5.23537
5.2151
5.19262
5.16737
5.13949
5.10743
5.07089
5.02805
4.97922
4.92316
4.85979
4.7869
4.70224
4.60289
4.4846
4.34503
4.17345
3.96944
3.73548
3.47233
3.17089
1.40001
1.40001
1.40001
1.40001
1.40001
1.40001
1.40001
1.40001
1.40001
1.40001
1.40001
1.40001
1.40001
1.40001
1.40001
1.40001
1.40001
1.40001
1.40001
1.40001
1.40001
1.40001
1.40001
1.40001
1.40001
1.40001
1.40001
1.40001
1.40001
1.40001
1.40001
1.40001
1.40001
1.40001
1.40001
1.40001
1.40001
1.40001
1.40001
1.40001
1.40001
1.40001
1.40001
1.40001
1.40001
1.40001
1.40001
1.40001
1.40001
1.40001
1.40001
1.40001
1.4
1.40742
3.19707
5.1408
5.27489
5.27762
5.28882
5.29112
5.29095
5.2901
5.28871
5.28682
5.28468
5.28225
5.2796
5.27626
5.27143
5.26468
5.25595
5.24543
5.23313
5.21852
5.20112
5.18095
5.15772
5.13208
5.10354
5.0723
5.03684
4.99663
4.95006
4.89689
4.83641
4.76818
4.69113
4.60347
4.50349
4.3873
4.25441
4.09584
3.9145
3.71696
3.50207
3.25864
1.40001
1.40001
1.40001
1.40001
1.40001
1.40001
1.40001
1.40001
1.40001
1.40001
1.40001
1.40001
1.40001
1.40001
1.40001
1.40001
1.40001
1.40001
1.40001
1.40001
1.40001
1.40001
1.40001
1.40001
1.40001
1.40001
1.40001
1.40001
1.40001
1.40001
1.40001
1.40001
1.40001
1.40001
1.40001
1.40001
1.40001
1.40001
1.40001
1.40001
1.40001
1.40001
1.40001
1.40001
1.40001
1.40001
1.40001
1.40001
1.40001
1.40001
1.40001
1.40001
1.40001
1.4
1.71012
4.52084
5.30523
5.28452
5.28094
5.27853
5.27534
5.27238
5.26904
5.26472
5.25961
5.25376
5.24736
5.24007
5.23169
5.22228
5.21114
5.19846
5.18419
5.1682
5.14952
5.128
5.10298
5.07514
5.04414
5.01009
4.97187
4.92892
4.87997
4.82449
4.76175
4.69105
4.61187
4.52296
4.42477
4.31211
4.18845
4.04652
3.88719
3.71914
3.53494
3.33516
1.40001
1.40001
1.40001
1.40001
1.40001
1.40001
1.40001
1.40001
1.40001
1.40001
1.40001
1.40001
1.40001
1.40001
1.40001
1.40001
1.40001
1.40001
1.40001
1.40001
1.40001
1.40001
1.40001
1.40001
1.40001
1.40001
1.40001
1.40001
1.40001
1.40001
1.40001
1.40001
1.40001
1.40001
1.40001
1.40001
1.40001
1.40001
1.40001
1.40001
1.40001
1.40001
1.40001
1.40001
1.40001
1.40001
1.40001
1.40001
1.40001
1.40001
1.40001
1.40001
1.40001
1.4
1.40533
3.01666
5.05471
5.23194
5.23979
5.24245
5.2437
5.24381
5.24258
5.23911
5.23355
5.22607
5.21721
5.207
5.19546
5.1831
5.16932
5.15356
5.13625
5.11771
5.09681
5.07363
5.04709
5.01765
4.98476
4.94839
4.90774
4.86263
4.81231
4.7564
4.69403
4.6239
4.5459
4.45771
4.36327
4.25443
4.13986
4.01332
3.87166
3.72615
3.56518
3.39863
1.40001
1.40001
1.40001
1.40001
1.40001
1.40001
1.40001
1.40001
1.40001
1.40001
1.40001
1.40001
1.40001
1.40001
1.40001
1.40001
1.40001
1.40001
1.40001
1.40001
1.40001
1.40001
1.40001
1.40001
1.40001
1.40001
1.40001
1.40001
1.40001
1.40001
1.40001
1.40001
1.40001
1.40001
1.40001
1.40001
1.40001
1.40001
1.40001
1.40001
1.40001
1.40001
1.40001
1.40001
1.40001
1.40001
1.40001
1.40001
1.40001
1.40001
1.40001
1.40001
1.40001
1.40001
1.4
1.57502
4.21022
5.25132
5.23304
5.2283
5.22747
5.22507
5.22182
5.21692
5.2104
5.20191
5.19145
5.17925
5.16491
5.14946
5.13282
5.11427
5.09409
5.07254
5.04886
5.02366
4.99578
4.96539
4.93134
4.89347
4.85097
4.80405
4.75246
4.69633
4.63502
4.56688
4.49239
4.4063
4.31635
4.21211
4.10566
3.99118
3.86353
3.73578
3.59336
3.45091
1.40001
1.40001
1.40001
1.40001
1.40001
1.40001
1.40001
1.40001
1.40001
1.40001
1.40001
1.40001
1.40001
1.40001
1.40001
1.40001
1.40001
1.40001
1.40001
1.40001
1.40001
1.40001
1.40001
1.40001
1.40001
1.40001
1.40001
1.40001
1.40001
1.40001
1.40001
1.40001
1.40001
1.40001
1.40001
1.40001
1.40001
1.40001
1.40001
1.40001
1.40001
1.40001
1.40001
1.40001
1.40001
1.40001
1.40001
1.40001
1.40001
1.40001
1.40001
1.40001
1.40001
1.40001
1.4
1.40151
2.4921
4.92342
5.19912
5.19441
5.19775
5.19677
5.19321
5.18737
5.18004
5.17091
5.15983
5.14697
5.13158
5.11472
5.0962
5.07571
5.05318
5.02888
5.00254
4.97505
4.94547
4.91385
4.87883
4.84011
4.79667
4.74885
4.69674
4.64064
4.5806
4.51484
4.44489
4.36289
4.27854
4.18111
4.0828
3.97707
3.86189
3.74628
3.61877
3.49338
1.40001
1.40001
1.40001
1.40001
1.40001
1.40001
1.40001
1.40001
1.40001
1.40001
1.40001
1.40001
1.40001
1.40001
1.40001
1.40001
1.40001
1.40001
1.40001
1.40001
1.40001
1.40001
1.40001
1.40001
1.40001
1.40001
1.40001
1.40001
1.40001
1.40001
1.40001
1.40001
1.40001
1.40001
1.40001
1.40001
1.40001
1.40001
1.40001
1.40001
1.40001
1.40001
1.40001
1.40001
1.40001
1.40001
1.40001
1.40001
1.40001
1.40001
1.40001
1.40001
1.40001
1.40001
1.40001
1.40001
1.47668
3.55013
5.11074
5.19447
5.19323
5.18776
5.1809
5.17233
5.16302
5.15211
5.13978
5.12577
5.10909
5.09056
5.06967
5.04689
5.02215
4.99544
4.96667
4.9365
4.90444
4.87053
4.83394
4.79421
4.75027
4.70207
4.65009
4.59405
4.53477
4.4697
4.40204
4.32539
4.24703
4.1575
4.06723
3.96885
3.86492
3.75827
3.64433
3.53121
1.40001
1.40001
1.40001
1.40001
1.40001
1.40001
1.40001
1.40001
1.40001
1.40001
1.40001
1.40001
1.40001
1.40001
1.40001
1.40001
1.40001
1.40001
1.40001
1.40001
1.40001
1.40001
1.40001
1.40001
1.40001
1.40001
1.40001
1.40001
1.40001
1.40001
1.40001
1.40001
1.40001
1.40001
1.40001
1.40001
1.40001
1.40001
1.40001
1.40001
1.40001
1.40001
1.40001
1.40001
1.40001
1.40001
1.40001
1.40001
1.40001
1.40001
1.40001
1.40001
1.40001
1.40001
1.40001
1.40001
1.40028
1.71391
4.45186
5.22446
5.20063
5.18171
5.16582
5.15274
5.13987
5.12642
5.11236
5.09721
5.07957
5.06022
5.03816
5.01427
4.98841
4.96062
4.93076
4.89923
4.86549
4.82966
4.79173
4.75095
4.70718
4.6593
4.60906
4.55335
4.4947
4.43056
4.36466
4.29309
4.21961
4.13705
4.05441
3.96351
3.87015
3.77084
3.669
3.56493
1.40001
1.40001
1.40001
1.40001
1.40001
1.40001
1.40001
1.40001
1.40001
1.40001
1.40001
1.40001
1.40001
1.40001
1.40001
1.40001
1.40001
1.40001
1.40001
1.40001
1.40001
1.40001
1.40001
1.40001
1.40001
1.40001
1.40001
1.40001
1.40001
1.40001
1.40001
1.40001
1.40001
1.40001
1.40001
1.40001
1.40001
1.40001
1.40001
1.40001
1.40001
1.40001
1.40001
1.40001
1.40001
1.40001
1.40001
1.40001
1.40001
1.40001
1.40001
1.40001
1.40001
1.40001
1.40001
1.40001
1.40001
1.40537
2.68883
4.95173
5.14415
5.13126
5.12816
5.11999
5.10949
5.0971
5.0832
5.06809
5.05088
5.03191
5.00986
4.98598
4.95976
4.93156
4.90119
4.8687
4.83384
4.79673
4.75745
4.71554
4.67132
4.62388
4.57465
4.51945
4.46182
4.40013
4.33523
4.26699
4.19668
4.11981
4.04315
3.95911
3.87461
3.78287
3.69116
3.59473
1.40001
1.40001
1.40001
1.40001
1.40001
1.40001
1.40001
1.40001
1.40001
1.40001
1.40001
1.40001
1.40001
1.40001
1.40001
1.40001
1.40001
1.40001
1.40001
1.40001
1.40001
1.40001
1.40001
1.40001
1.40001
1.40001
1.40001
1.40001
1.40001
1.40001
1.40001
1.40001
1.40001
1.40001
1.40001
1.40001
1.40001
1.40001
1.40001
1.40001
1.40001
1.40001
1.40001
1.40001
1.40001
1.40001
1.40001
1.40001
1.40001
1.40001
1.40001
1.40001
1.40001
1.40001
1.40001
1.40001
1.40001
1.40001
1.50243
3.46616
5.05433
5.10768
5.10843
5.10672
5.09821
5.08517
5.0689
5.05084
5.03111
5.01046
4.9874
4.96262
4.93563
4.90662
4.87544
4.84216
4.80666
4.76857
4.72877
4.68636
4.64166
4.59437
4.54491
4.49108
4.43512
4.37631
4.31312
4.24766
4.17957
4.10743
4.03475
3.95673
3.87831
3.79365
3.70984
3.62044
1.40001
1.40001
1.40001
1.40001
1.40001
1.40001
1.40001
1.40001
1.40001
1.40001
1.40001
1.40001
1.40001
1.40001
1.40001
1.40001
1.40001
1.40001
1.40001
1.40001
1.40001
1.40001
1.40001
1.40001
1.40001
1.40001
1.40001
1.40001
1.40001
1.40001
1.40001
1.40001
1.40001
1.40001
1.40001
1.40001
1.40001
1.40001
1.40001
1.40001
1.40001
1.40001
1.40001
1.40001
1.40001
1.40001
1.40001
1.40001
1.40001
1.40001
1.40001
1.40001
1.40001
1.40001
1.40001
1.40001
1.40001
1.40001
1.40059
1.68043
4.05174
5.10903
5.11491
5.10029
5.08778
5.07205
5.05217
5.03129
5.00938
4.9872
4.96342
4.93813
4.91094
4.88182
4.85069
4.81745
4.78206
4.74396
4.70419
4.66158
4.61764
4.57049
4.52112
4.46875
4.41414
4.35758
4.29661
4.2339
4.16804
4.10012
4.03023
3.95691
3.88236
3.80396
3.72592
3.64325
1.40001
1.40001
1.40001
1.40001
1.40001
1.40001
1.40001
1.40001
1.40001
1.40001
1.40001
1.40001
1.40001
1.40001
1.40001
1.40001
1.40001
1.40001
1.40001
1.40001
1.40001
1.40001
1.40001
1.40001
1.40001
1.40001
1.40001
1.40001
1.40001
1.40001
1.40001
1.40001
1.40001
1.40001
1.40001
1.40001
1.40001
1.40001
1.40001
1.40001
1.40001
1.40001
1.40001
1.40001
1.40001
1.40001
1.40001
1.40001
1.40001
1.40001
1.40001
1.40001
1.40001
1.40001
1.40001
1.40001
1.40001
1.40001
1.40001
1.40422
1.9997
4.65337
5.15155
5.11015
5.08356
5.05671
5.0311
5.00741
4.9844
4.96193
4.93864
4.91419
4.88784
4.85958
4.8292
4.79656
4.76164
4.72425
4.68473
4.64287
4.59896
4.55238
4.50398
4.45292
4.39947
4.34426
4.2855
4.22518
4.16158
4.09708
4.02923
3.95938
3.88803
3.81513
3.74129
3.66507
1.40001
1.40001
1.40001
1.40001
1.40001
1.40001
1.40001
1.40001
1.40001
1.40001
1.40001
1.40001
1.40001
1.40001
1.40001
1.40001
1.40001
1.40001
1.40001
1.40001
1.40001
1.40001
1.40001
1.40001
1.40001
1.40001
1.40001
1.40001
1.40001
1.40001
1.40001
1.40001
1.40001
1.40001
1.40001
1.40001
1.40001
1.40001
1.40001
1.40001
1.40001
1.40001
1.40001
1.40001
1.40001
1.40001
1.40001
1.40001
1.40001
1.40001
1.40001
1.40001
1.40001
1.40001
1.40001
1.40001
1.40001
1.40001
1.40001
1.40001
1.41995
2.7713
4.93432
5.0747
5.04392
5.02323
5.00276
4.98287
4.9613
4.93977
4.9166
4.89236
4.86612
4.8383
4.80833
4.77635
4.74209
4.70562
4.66687
4.62585
4.58264
4.53689
4.48952
4.4398
4.38815
4.3345
4.27816
4.21988
4.15872
4.09642
4.03048
3.96392
3.89558
3.82711
3.75653
3.68587
1.40001
1.40001
1.40001
1.40001
1.40001
1.40001
1.40001
1.40001
1.40001
1.40001
1.40001
1.40001
1.40001
1.40001
1.40001
1.40001
1.40001
1.40001
1.40001
1.40001
1.40001
1.40001
1.40001
1.40001
1.40001
1.40001
1.40001
1.40001
1.40001
1.40001
1.40001
1.40001
1.40001
1.40001
1.40001
1.40001
1.40001
1.40001
1.40001
1.40001
1.40001
1.40001
1.40001
1.40001
1.40001
1.40001
1.40001
1.40001
1.40001
1.40001
1.40001
1.40001
1.40001
1.40001
1.40001
1.40001
1.40001
1.40001
1.40001
1.40001
1.40005
1.50917
3.28617
4.96712
5.01001
4.99588
4.98994
4.97675
4.95857
4.93677
4.91238
4.8858
4.85743
4.82783
4.79667
4.76392
4.72929
4.69285
4.65432
4.61367
4.57103
4.52642
4.48003
4.43153
4.38126
4.32897
4.27472
4.21811
4.15886
4.09768
4.0341
3.97031
3.90544
3.84013
3.77297
3.70611
1.40001
1.40001
1.40001
1.40001
1.40001
1.40001
1.40001
1.40001
1.40001
1.40001
1.40001
1.40001
1.40001
1.40001
1.40001
1.40001
1.40001
1.40001
1.40001
1.40001
1.40001
1.40001
1.40001
1.40001
1.40001
1.40001
1.40001
1.40001
1.40001
1.40001
1.40001
1.40001
1.40001
1.40001
1.40001
1.40001
1.40001
1.40001
1.40001
1.40001
1.40001
1.40001
1.40001
1.40001
1.40001
1.40001
1.40001
1.40001
1.40001
1.40001
1.40001
1.40001
1.40001
1.40001
1.40001
1.40001
1.40001
1.40001
1.40001
1.40001
1.40001
1.40075
1.62182
3.60278
4.9658
4.98543
4.97837
4.96753
4.95056
4.93012
4.90613
4.87936
4.85033
4.81978
4.78755
4.75377
4.71845
4.68167
4.6432
4.60293
4.5609
4.51723
4.47179
4.42463
4.37569
4.32479
4.27218
4.21702
4.15978
4.10071
4.04018
3.97889
3.91709
3.85388
3.78979
3.7257
1.40001
1.40001
1.40001
1.40001
1.40001
1.40001
1.40001
1.40001
1.40001
1.40001
1.40001
1.40001
1.40001
1.40001
1.40001
1.40001
1.40001
1.40001
1.40001
1.40001
1.40001
1.40001
1.40001
1.40001
1.40001
1.40001
1.40001
1.40001
1.40001
1.40001
1.40001
1.40001
1.40001
1.40001
1.40001
1.40001
1.40001
1.40001
1.40001
1.40001
1.40001
1.40001
1.40001
1.40001
1.40001
1.40001
1.40001
1.40001
1.40001
1.40001
1.40001
1.40001
1.40001
1.40001
1.40001
1.40001
1.40001
1.40001
1.40001
1.40001
1.40001
1.40001
1.40275
1.72841
3.85566
4.98316
4.97949
4.96226
4.94254
4.92044
4.89624
4.87001
4.8422
4.8124
4.78042
4.74672
4.71142
4.6746
4.63618
4.59614
4.5545
4.51138
4.4667
4.42065
4.37295
4.32354
4.27213
4.21821
4.16292
4.10612
4.04806
3.98898
3.92962
3.86859
3.8075
3.74586
1.40001
1.40001
1.40001
1.40001
1.40001
1.40001
1.40001
1.40001
1.40001
1.40001
1.40001
1.40001
1.40001
1.40001
1.40001
1.40001
1.40001
1.40001
1.40001
1.40001
1.40001
1.40001
1.40001
1.40001
1.40001
1.40001
1.40001
1.40001
1.40001
1.40001
1.40001
1.40001
1.40001
1.40001
1.40001
1.40001
1.40001
1.40001
1.40001
1.40001
1.40001
1.40001
1.40001
1.40001
1.40001
1.40001
1.40001
1.40001
1.40001
1.40001
1.40001
1.40001
1.40001
1.40001
1.40001
1.40001
1.40001
1.40001
1.40001
1.40001
1.40001
1.40001
1.40001
1.40589
1.83522
4.07133
4.98691
4.97136
4.94404
4.91698
4.88928
4.86168
4.83338
4.80366
4.77207
4.73913
4.70482
4.66879
4.63082
4.59108
4.54979
4.50721
4.46333
4.4182
4.37148
4.32307
4.27258
4.22001
4.16633
4.11178
4.05619
3.9997
3.94268
3.88412
3.82552
3.76601
1.40001
1.40001
1.40001
1.40001
1.40001
1.40001
1.40001
1.40001
1.40001
1.40001
1.40001
1.40001
1.40001
1.40001
1.40001
1.40001
1.40001
1.40001
1.40001
1.40001
1.40001
1.40001
1.40001
1.40001
1.40001
1.40001
1.40001
1.40001
1.40001
1.40001
1.40001
1.40001
1.40001
1.40001
1.40001
1.40001
1.40001
1.40001
1.40001
1.40001
1.40001
1.40001
1.40001
1.40001
1.40001
1.40001
1.40001
1.40001
1.40001
1.40001
1.40001
1.40001
1.40001
1.40001
1.40001
1.40001
1.40001
1.40001
1.40001
1.40001
1.40001
1.40001
1.40001
1.40002
1.41022
1.94385
4.22803
4.97962
4.95736
4.92618
4.89479
4.8642
4.8324
4.7996
4.76699
4.73367
4.69928
4.66342
4.626
4.58707
4.54668
4.50511
4.46233
4.41782
4.37141
4.3233
4.27378
4.22297
4.17129
4.11908
4.06586
4.01159
3.95627
3.89985
3.84344
3.78626
1.40001
1.40001
1.40001
1.40001
1.40001
1.40001
1.40001
1.40001
1.40001
1.40001
1.40001
1.40001
1.40001
1.40001
1.40001
1.40001
1.40001
1.40001
1.40001
1.40001
1.40001
1.40001
1.40001
1.40001
1.40001
1.40001
1.40001
1.40001
1.40001
1.40001
1.40001
1.40001
1.40001
1.40001
1.40001
1.40001
1.40001
1.40001
1.40001
1.40001
1.40001
1.40001