/*--------------------------------*- C++ -*----------------------------------*\
  =========                 |
  \\      /  F ield         | OpenFOAM: The Open Source CFD Toolbox
   \\    /   O peration     | Website:  https://openfoam.org
    \\  /    A nd           | Version:  7
     \\/     M anipulation  |
\*---------------------------------------------------------------------------*/
FoamFile
{
    version     2.0;
    format      ascii;
    class       volScalarField;
    location    "3.4";
    object      p;
}
// * * * * * * * * * * * * * * * * * * * * * * * * * * * * * * * * * * * * * //

dimensions      [1 -1 -2 0 0 0 0];

internalField   nonuniform List<scalar> 
19968
(
1
1
1
1
1
1
1
1
1
1
1
1
1
1
1
1
1
1
1
1
1
1
1
1
1
1
1
1
1
1
1
1
1
1
1
1
1
1
1
1
1
1
1
1
1
1
1
1
1.18889
7.13308
10.3921
10.4421
10.5032
10.5682
10.6307
10.6873
10.7409
10.7955
10.8518
10.908
10.9627
11.0149
11.0642
11.1105
11.1551
11.2
11.2466
11.2955
11.3459
11.3961
11.4442
11.4875
11.5241
11.5556
11.585
11.6135
11.6424
11.6738
11.7086
11.7458
11.7834
11.8193
11.8517
11.8799
11.904
11.925
11.9446
11.9638
11.9828
12.0008
12.0171
12.0312
12.0432
12.0527
12.0594
12.0655
1
1
1
1
1
1
1
1
1
1
1
1
1
1
1
1
1
1
1
1
1
1
1
1
1
1
1
1
1
1
1
1
1
1
1
1
1
1
1
1
1
1
1
1
1
1
1
1
1.16292
7.03299
10.3821
10.4582
10.513
10.5723
10.6304
10.6869
10.7423
10.7978
10.853
10.907
10.9599
11.0117
11.0613
11.1079
11.1524
11.1971
11.2434
11.2917
11.3417
11.3913
11.4391
11.4823
11.5193
11.5515
11.5816
11.6107
11.6401
11.6718
11.7064
11.7429
11.7794
11.814
11.8455
11.8731
11.897
11.9182
11.9381
11.9575
11.9765
11.9944
12.0106
12.0246
12.0366
12.046
12.0527
12.0588
1
1
1
1
1
1
1
1
1
1
1
1
1
1
1
1
1
1
1
1
1
1
1
1
1
1
1
1
1
1
1
1
1
1
1
1
1
1
1
1
1
1
1
1
1
1
1
1
1.07786
6.85824
10.3952
10.4519
10.5084
10.5667
10.6256
10.6845
10.7416
10.7964
10.8494
10.9011
10.9525
11.004
11.054
11.101
11.1455
11.19
11.2358
11.2833
11.3327
11.3819
11.4295
11.4729
11.5107
11.544
11.5752
11.6053
11.6357
11.6679
11.7024
11.7383
11.7736
11.8067
11.8366
11.863
11.8864
11.9075
11.9276
11.9471
11.9658
11.9833
11.999
12.0126
12.0242
12.0335
12.0401
12.0461
1
1
1
1
1
1
1
1
1
1
1
1
1
1
1
1
1
1
1
1
1
1
1
1
1
1
1
1
1
1
1
1
1
1
1
1
1
1
1
1
1
1
1
1
1
1
1
1
1.00241
6.55783
10.3702
10.4431
10.5009
10.5622
10.6246
10.6864
10.7438
10.7966
10.8465
10.8957
10.9458
10.9967
11.0468
11.094
11.1379
11.1815
11.2261
11.272
11.3202
11.3685
11.4156
11.459
11.4973
11.5316
11.564
11.5953
11.6267
11.6594
11.6938
11.7286
11.7622
11.7934
11.8216
11.8469
11.87
11.8914
11.9119
11.9316
11.9502
11.9671
11.982
11.9947
12.0054
12.014
12.0202
12.0257
1
1
1
1
1
1
1
1
1
1
1
1
1
1
1
1
1
1
1
1
1
1
1
1
1
1
1
1
1
1
1
1
1
1
1
1
1
1
1
1
1
1
1
1
1
1
1
1
1.00001
6.10258
10.3214
10.426
10.4817
10.5448
10.6085
10.6709
10.7273
10.7785
10.8277
10.8775
10.9285
10.9803
11.0311
11.0789
11.1225
11.165
11.2084
11.2525
11.2995
11.3472
11.3939
11.4377
11.4769
11.5127
11.5466
11.5794
11.6118
11.645
11.6788
11.7121
11.7437
11.7729
11.7994
11.8237
11.8464
11.8681
11.8889
11.9088
11.9274
11.9442
11.9589
11.9715
11.982
11.9906
11.9967
12.0022
1
1
1
1
1
1
1
1
1
1
1
1
1
1
1
1
1
1
1
1
1
1
1
1
1
1
1
1
1
1
1
1
1
1
1
1
1
1
1
1
1
1
1
1
1
1
1
1
1
5.50461
10.2396
10.409
10.4645
10.5295
10.5944
10.6573
10.7134
10.764
10.8124
10.8618
10.9123
10.9634
11.0138
11.0615
11.1048
11.1463
11.1888
11.2318
11.2779
11.3251
11.371
11.4152
11.4545
11.4912
11.5256
11.5587
11.5911
11.6234
11.6557
11.6872
11.7169
11.7444
11.7698
11.7935
11.8158
11.8371
11.8575
11.8767
11.8946
11.9107
11.9247
11.9367
11.9467
11.9548
11.9607
11.966
1
1
1
1
1
1
1
1
1
1
1
1
1
1
1
1
1
1
1
1
1
1
1
1
1
1
1
1
1
1
1
1
1
1
1
1
1
1
1
1
1
1
1
1
1
1
1
1
1
4.77044
10.0975
10.385
10.4383
10.5049
10.571
10.6353
10.6927
10.7438
10.7915
10.8399
10.8894
10.9392
10.9888
11.0367
11.0802
11.121
11.163
11.205
11.2498
11.2961
11.3408
11.3851
11.4244
11.4618
11.4965
11.5298
11.5616
11.5928
11.6234
11.653
11.6812
11.7078
11.7327
11.7561
11.7783
11.7992
11.8188
11.8371
11.8539
11.8691
11.8825
11.8939
11.9034
11.9112
11.9167
11.9219
1
1
1
1
1
1
1
1
1
1
1
1
1
1
1
1
1
1
1
1
1
1
1
1
1
1
1
1
1
1
1
1
1
1
1
1
1
1
1
1
1
1
1
1
1
1
1
1
1
3.91758
9.85286
10.3512
10.4007
10.4701
10.5381
10.605
10.6652
10.718
10.766
10.8134
10.8618
10.9104
10.9587
11.0063
11.0503
11.0906
11.1317
11.1727
11.2154
11.2601
11.3032
11.347
11.3856
11.423
11.4571
11.4897
11.5202
11.5497
11.5785
11.6067
11.6342
11.6607
11.6861
11.7101
11.7326
11.7531
11.7717
11.7885
11.8037
11.8172
11.829
11.8392
11.8475
11.8544
11.8591
11.8637
1
1
1
1
1
1
1
1
1
1
1
1
1
1
1
1
1
1
1
1
1
1
1
1
1
1
1
1
1
1
1
1
1
1
1
1
1
1
1
1
1
1
1
1
1
1
1
1
1
2.99129
9.42402
10.3322
10.3822
10.4537
10.5188
10.5839
10.6432
10.6951
10.7419
10.7875
10.8346
10.8821
10.9292
10.976
11.0202
11.06
11.0996
11.1393
11.1792
11.2215
11.2624
11.3042
11.3411
11.3767
11.4086
11.4388
11.4665
11.493
11.5188
11.5446
11.5705
11.5962
11.6213
11.6452
11.6676
11.6879
11.706
11.7222
11.7364
11.7492
11.7605
11.7705
11.7789
11.786
11.7906
11.795
1
1
1
1
1
1
1
1
1
1
1
1
1
1
1
1
1
1
1
1
1
1
1
1
1
1
1
1
1
1
1
1
1
1
1
1
1
1
1
1
1
1
1
1
1
1
1
1
1
2.05719
8.6547
10.3285
10.3565
10.4259
10.4835
10.5454
10.6041
10.6569
10.7047
10.7504
10.7966
10.8435
10.8902
10.9372
10.983
11.0242
11.0625
11.1007
11.1382
11.1783
11.2178
11.2569
11.2927
11.3266
11.3568
11.3844
11.4095
11.4333
11.4563
11.4793
11.503
11.5267
11.5501
11.5727
11.5938
11.6128
11.6294
11.6434
11.6551
11.6651
11.6734
11.6809
11.6872
11.6926
11.6961
11.6996
1
1
1
1
1
1
1
1
1
1
1
1
1
1
1
1
1
1
1
1
1
1
1
1
1
1
1
1
1
1
1
1
1
1
1
1
1
1
1
1
1
1
1
1
1
1
1
1
1
1.24132
7.38029
10.3966
10.3932
10.4433
10.4932
10.5447
10.5958
10.6434
10.6864
10.7268
10.7675
10.8097
10.8524
10.8951
10.9379
10.9772
11.012
11.0469
11.0807
11.1161
11.1525
11.1876
11.2221
11.2534
11.2818
11.307
11.3297
11.351
11.3715
11.392
11.4131
11.4343
11.4548
11.4744
11.4927
11.5093
11.524
11.5365
11.5471
11.556
11.5638
11.5703
11.5758
11.5806
11.5836
11.5866
1
1
1
1
1
1
1
1
1
1
1
1
1
1
1
1
1
1
1
1
1
1
1
1
1
1
1
1
1
1
1
1
1
1
1
1
1
1
1
1
1
1
1
1
1
1
1
1
1
1.00297
5.5927
10.1711
10.2666
10.3107
10.3705
10.4276
10.4859
10.5404
10.5888
10.6322
10.6733
10.7143
10.7563
10.7988
10.8418
10.8838
10.9208
10.9545
10.9867
11.0187
11.0532
11.0876
11.1219
11.1526
11.1808
11.2049
11.2261
11.2456
11.2641
11.2825
11.3011
11.3199
11.3378
11.3549
11.3709
11.3855
11.3984
11.4089
11.4165
11.4213
11.4231
11.4219
11.4207
11.4197
11.4187
11.4191
1
1
1
1
1
1
1
1
1
1
1
1
1
1
1
1
1
1
1
1
1
1
1
1
1
1
1
1
1
1
1
1
1
1
1
1
1
1
1
1
1
1
1
1
1
1
1
1
1
1
3.55045
9.55029
10.2228
10.2789
10.3348
10.3845
10.4383
10.4892
10.535
10.5756
10.6132
10.6502
10.6883
10.7276
10.7673
10.8071
10.8432
10.8736
10.9016
10.9275
10.9558
10.9866
11.0177
11.0462
11.0717
11.0933
11.1112
11.1268
11.1412
11.155
11.1687
11.1823
11.1944
11.2045
11.2127
11.2189
11.2232
11.2253
11.2257
11.2249
11.2226
11.2203
11.2177
11.2157
11.2132
11.2123
1
1
1
1
1
1
1
1
1
1
1
1
1
1
1
1
1
1
1
1
1
1
1
1
1
1
1
1
1
1
1
1
1
1
1
1
1
1
1
1
1
1
1
1
1
1
1
1
1
1
1.67993
8.05444
10.216
10.222
10.2732
10.3179
10.3693
10.4185
10.4634
10.5032
10.5393
10.5737
10.6082
10.6438
10.6799
10.7161
10.7501
10.7782
10.8015
10.8219
10.8424
10.8664
10.8921
10.9166
10.9376
10.9552
10.9688
10.9794
10.9885
10.9965
11.0033
11.0099
11.0154
11.0184
11.0191
11.0176
11.0151
11.0116
11.0069
11
10.988
10.9715
10.9474
10.9188
10.8892
10.8641
1
1
1
1
1
1
1
1
1
1
1
1
1
1
1
1
1
1
1
1
1
1
1
1
1
1
1
1
1
1
1
1
1
1
1
1
1
1
1
1
1
1
1
1
1
1
1
1
1
1
1.01462
5.2325
9.99748
10.1476
10.1771
10.2268
10.2754
10.3239
10.3692
10.4098
10.4459
10.4791
10.511
10.5429
10.5751
10.6069
10.637
10.6629
10.6831
10.6994
10.7134
10.7285
10.7464
10.7644
10.7796
10.7914
10.7994
10.8039
10.806
10.8052
10.8025
10.7993
10.7937
10.784
10.7699
10.7513
10.728
10.6998
10.6654
10.6234
10.5744
10.5214
10.4736
10.4302
10.4059
10.3924
1
1
1
1
1
1
1
1
1
1
1
1
1
1
1
1
1
1
1
1
1
1
1
1
1
1
1
1
1
1
1
1
1
1
1
1
1
1
1
1
1
1
1
1
1
1
1
1
1
1
1.00001
2.218
8.5708
10.0777
10.084
10.1504
10.197
10.2426
10.2847
10.3224
10.3554
10.3848
10.4121
10.4387
10.4652
10.4913
10.5159
10.5376
10.5545
10.5669
10.5757
10.5824
10.5896
10.5975
10.6041
10.6072
10.6071
10.6031
10.5946
10.5824
10.5666
10.548
10.5252
10.4969
10.4621
10.4205
10.3719
10.3164
10.2541
10.186
10.1132
10.0383
9.94972
9.86306
9.74523
9.8299
1
1
1
1
1
1
1
1
1
1
1
1
1
1
1
1
1
1
1
1
1
1
1
1
1
1
1
1
1
1
1
1
1
1
1
1
1
1
1
1
1
1
1
1
1
1
1
1
1
1
1
1.04357
5.92416
9.98446
10.0657
10.1004
10.135
10.1692
10.2043
10.2376
10.2672
10.2931
10.3162
10.3378
10.3586
10.3786
10.3969
10.4127
10.4253
10.4343
10.4398
10.4403
10.4384
10.4363
10.4333
10.4277
10.419
10.4056
10.3875
10.364
10.3349
10.3003
10.2594
10.2108
10.1529
10.0845
10.0031
9.90627
9.788
9.64395
9.4553
9.20674
8.83488
8.27992
7.35167
5.44959
1
1
1
1
1
1
1
1
1
1
1
1
1
1
1
1
1
1
1
1
1
1
1
1
1
1
1
1
1
1
1
1
1
1
1
1
1
1
1
1
1
1
1
1
1
1
1
1
1
1
1
0.999948
3.15807
9.09133
9.96366
10.001
10.0544
10.0925
10.1273
10.1598
10.1888
10.2137
10.2349
10.2533
10.2698
10.2843
10.2972
10.3082
10.3169
10.3228
10.3245
10.3209
10.3127
10.3024
10.29
10.2757
10.2583
10.2364
10.2095
10.1757
10.1341
10.0843
10.0259
9.95779
9.8772
9.78259
9.66746
9.53031
9.35716
9.14772
8.87081
8.52049
8.01552
7.34346
6.14002
4.51518
1
1
1
1
1
1
1
1
1
1
1
1
1
1
1
1
1
1
1
1
1
1
1
1
1
1
1
1
1
1
1
1
1
1
1
1
1
1
1
1
1
1
1
1
1
1
1
1
1
1
1
0.999989
1.1593
7.18496
10.0684
10.016
10.0157
10.0368
10.0596
10.084
10.1077
10.1287
10.146
10.16
10.1717
10.1815
10.1894
10.1953
10.1987
10.1994
10.1969
10.1898
10.1774
10.1598
10.1386
10.1149
10.0879
10.057
10.0205
9.97642
9.92275
9.85922
9.78399
9.69754
9.59507
9.47632
9.33113
9.15883
8.94424
8.68507
8.3598
7.9458
7.40961
6.67634
5.65275
4.56995
1
1
1
1
1
1
1
1
1
1
1
1
1
1
1
1
1
1
1
1
1
1
1
1
1
1
1
1
1
1
1
1
1
1
1
1
1
1
1
1
1
1
1
1
1
1
1
1
1
1
1
0.999999
1.00074
4.13883
9.37846
9.8395
9.89559
9.93538
9.961
9.98404
10.0066
10.0269
10.0434
10.0559
10.0653
10.0719
10.0759
10.0768
10.0758
10.0723
10.0659
10.0552
10.0388
10.0158
9.9875
9.95492
9.91822
9.87716
9.83007
9.77581
9.71083
9.63516
9.54503
9.44219
9.32107
9.18168
9.01476
8.81678
8.57797
8.29046
7.94516
7.51468
6.98625
6.33414
5.54518
4.73559
1
1
1
1
1
1
1
1
1
1
1
1
1
1
1
1
1
1
1
1
1
1
1
1
1
1
1
1
1
1
1
1
1
1
1
1
1
1
1
1
1
1
1
1
1
1
1
1
1
1
1
1
0.999998
1.47795
7.65838
9.90076
9.85437
9.86529
9.88123
9.8967
9.91422
9.93116
9.94531
9.95551
9.96202
9.96564
9.96484
9.96151
9.95612
9.94759
9.93526
9.91932
9.89857
9.87146
9.83769
9.7979
9.75232
9.70154
9.64393
9.57921
9.5035
9.41679
9.31501
9.19913
9.06478
8.91063
8.73074
8.51938
8.27082
7.9765
7.63482
7.21842
6.73318
6.18965
5.58013
4.93046
1
1
1
1
1
1
1
1
1
1
1
1
1
1
1
1
1
1
1
1
1
1
1
1
1
1
1
1
1
1
1
1
1
1
1
1
1
1
1
1
1
1
1
1
1
1
1
1
1
1
1
1
1
1.00717
4.3819
9.35067
9.71467
9.73929
9.77833
9.80301
9.82062
9.83478
9.84658
9.85523
9.86005
9.86013
9.85585
9.84769
9.83639
9.82148
9.80316
9.78163
9.75566
9.72382
9.68489
9.63922
9.58623
9.52692
9.45967
9.38504
9.29992
9.20402
9.09397
8.9691
8.82664
8.66443
8.47885
8.26435
8.01785
7.73015
7.41017
7.02543
6.598
6.14366
5.63974
5.12017
1
1
1
1
1
1
1
1
1
1
1
1
1
1
1
1
1
1
1
1
1
1
1
1
1
1
1
1
1
1
1
1
1
1
1
1
1
1
1
1
1
1
1
1
1
1
1
1
1
1
1
1
1
0.999996
1.42394
7.51937
9.78722
9.73227
9.7284
9.73517
9.73984
9.745
9.7505
9.75496
9.75649
9.75317
9.74525
9.73304
9.71736
9.69802
9.6751
9.64831
9.61656
9.58023
9.5373
9.48769
9.42984
9.36447
9.29023
9.20779
9.11495
9.01136
8.89462
8.76344
8.61595
8.45016
8.26374
8.0517
7.81516
7.53851
7.24635
6.89852
6.53041
6.14176
5.71034
5.28438
1
1
1
1
1
1
1
1
1
1
1
1
1
1
1
1
1
1
1
1
1
1
1
1
1
1
1
1
1
1
1
1
1
1
1
1
1
1
1
1
1
1
1
1
1
1
1
1
1
1
1
1
1
0.999999
1.00544
3.99492
9.10797
9.56016
9.59973
9.61903
9.63006
9.6362
9.64027
9.64312
9.64379
9.64052
9.63244
9.6186
9.59993
9.57571
9.54711
9.51453
9.47685
9.43569
9.38817
9.33447
9.27222
9.20196
9.12248
9.03437
8.93601
8.82743
8.70684
8.57305
8.42466
8.25962
8.07739
7.87198
7.64845
7.38665
7.12162
6.811
6.49006
6.15135
5.78149
5.41583
1
1
1
1
1
1
1
1
1
1
1
1
1
1
1
1
1
1
1
1
1
1
1
1
1
1
1
1
1
1
1
1
1
1
1
1
1
1
1
1
1
1
1
1
1
1
1
1
1
1
1
1
1
1
0.999998
1.24103
6.72363
9.58784
9.5447
9.54317
9.55
9.55288
9.55279
9.55067
9.54698
9.54017
9.52839
9.51088
9.48762
9.45978
9.42739
9.39007
9.34766
9.30162
9.24949
9.19263
9.12767
9.05472
8.97215
8.88048
8.77851
8.66673
8.54369
8.4086
8.26091
8.09783
7.92198
7.72341
7.51088
7.26877
7.02585
6.74663
6.46352
6.1625
5.84441
5.52223
1
1
1
1
1
1
1
1
1
1
1
1
1
1
1
1
1
1
1
1
1
1
1
1
1
1
1
1
1
1
1
1
1
1
1
1
1
1
1
1
1
1
1
1
1
1
1
1
1
1
1
1
1
1
1
1.00174
2.79067
8.52362
9.3888
9.41354
9.43984
9.45141
9.45167
9.44611
9.43716
9.42578
9.41046
9.39181
9.36756
9.3395
9.3052
9.26351
9.21654
9.16575
9.10942
9.04957
8.98281
8.90878
8.82457
8.73122
8.62784
8.5152
8.39193
8.25785
8.11354
7.9544
7.7871
7.5962
7.39575
7.17547
6.95129
6.69718
6.44428
6.17215
5.89409
5.60571
1
1
1
1
1
1
1
1
1
1
1
1
1
1
1
1
1
1
1
1
1
1
1
1
1
1
1
1
1
1
1
1
1
1
1
1
1
1
1
1
1
1
1
1
1
1
1
1
1
1
1
1
1
1
1
1
1.08984
5.12754
9.19203
9.3826
9.39359
9.39667
9.3902
9.3785
9.36286
9.34399
9.32183
9.29831
9.26968
9.23795
9.2008
9.15676
9.1067
9.05143
8.99044
8.92608
8.85624
8.77994
8.69482
8.60077
8.49723
8.38468
8.26211
8.12929
7.9885
7.83209
7.6707
7.4901
7.3022
7.10061
6.89371
6.66062
6.43256
6.18334
5.93661
5.67584
1
1
1
1
1
1
1
1
1
1
1
1
1
1
1
1
1
1
1
1
1
1
1
1
1
1
1
1
1
1
1
1
1
1
1
1
1
1
1
1
1
1
1
1
1
1
1
1
1
1
1
1
1
1
1
1
1.00027
1.44982
7.17172
9.39643
9.3564
9.3304
9.30682
9.28889
9.26776
9.24321
9.21657
9.189
9.15661
9.12255
9.08382
9.0401
8.99006
8.93357
8.87048
8.80351
8.73117
8.65267
8.56731
8.4732
8.37385
8.26248
8.14517
8.01395
7.87504
7.72338
7.56774
7.4008
7.22445
7.03851
6.84657
6.63367
6.42546
6.19559
5.97346
5.73509
1
1
1
1
1
1
1
1
1
1
1
1
1
1
1
1
1
1
1
1
1
1
1
1
1
1
1
1
1
1
1
1
1
1
1
1
1
1
1
1
1
1
1
1
1
1
1
1
1
1
1
1
1
1
1
1
1
1.00596
3.13244
8.54719
9.18711
9.1597
9.16222
9.15833
9.14632
9.12804
9.10476
9.07849
9.04651
9.01274
8.97384
8.93117
8.88227
8.82632
8.76375
8.69574
8.62133
8.54085
8.45429
8.36071
8.2628
8.15532
8.04026
7.91227
7.77682
7.63233
7.48243
7.32716
7.16009
6.9873
6.80699
6.61368
6.42059
6.21075
6.00737
5.78921
1
1
1
1
1
1
1
1
1
1
1
1
1
1
1
1
1
1
1
1
1
1
1
1
1
1
1
1
1
1
1
1
1
1
1
1
1
1
1
1
1
1
1
1
1
1
1
1
1
1
1
1
1
1
1
1
1
1
1.12117
4.86708
8.94116
9.07841
9.08858
9.0983
9.08583
9.06672
9.03779
9.00306
8.96411
8.9241
8.87966
8.83302
8.78161
8.72439
8.66176
8.59428
8.51898
8.43871
8.3511
8.25785
8.15943
8.05437
7.94272
7.82009
7.69065
7.55435
7.41116
7.26518
7.10733
6.94618
6.77529
6.59849
6.41636
6.22589
6.03623
5.83706
1
1
1
1
1
1
1
1
1
1
1
1
1
1
1
1
1
1
1
1
1
1
1
1
1
1
1
1
1
1
1
1
1
1
1
1
1
1
1
1
1
1
1
1
1
1
1
1
1
1
1
1
1
1
1
1
1
1
1.00055
1.39173
6.14911
8.97967
9.08118
9.04618
9.028
9.00496
8.97007
8.93027
8.88621
8.84063
8.79088
8.73931
8.68456
8.62617
8.56237
8.49517
8.42165
8.34158
8.25586
8.16481
8.06774
7.96418
7.85506
7.7375
7.61409
7.4852
7.34978
7.21139
7.06327
6.91186
6.75017
6.58634
6.41356
6.2399
6.0616
5.87936
1
1
1
1
1
1
1
1
1
1
1
1
1
1
1
1
1
1
1
1
1
1
1
1
1
1
1
1
1
1
1
1
1
1
1
1
1
1
1
1
1
1
1
1
1
1
1
1
1
1
1
1
1
1
1
1
1
1
1
1.00462
1.82344
7.48308
9.09785
9.02336
8.96881
8.92017
8.87448
8.83159
8.78871
8.74491
8.69693
8.64593
8.59124
8.53285
8.46958
8.40349
8.33251
8.2549
8.17242
8.08377
7.9874
7.88608
7.77957
7.66606
7.54795
7.42507
7.29713
7.16469
7.02612
6.88244
6.73
6.57586
6.41304
6.25229
6.08428
5.91568
1
1
1
1
1
1
1
1
1
1
1
1
1
1
1
1
1
1
1
1
1
1
1
1
1
1
1
1
1
1
1
1
1
1
1
1
1
1
1
1
1
1
1
1
1
1
1
1
1
1
1
1
1
1
1
1
1
1
1
1.00001
1.0191
3.2563
8.33974
8.86581
8.80581
8.77118
8.74035
8.71209
8.68038
8.64505
8.60284
8.55497
8.50172
8.44406
8.3818
8.31614
8.24665
8.17102
8.09025
8.00391
7.91155
7.81346
7.71058
7.60144
7.48853
7.37116
7.2495
7.12255
6.99189
6.85328
6.70972
6.56376
6.41147
6.26121
6.10439
5.94667
1
1
1
1
1
1
1
1
1
1
1
1
1
1
1
1
1
1
1
1
1
1
1
1
1
1
1
1
1
1
1
1
1
1
1
1
1
1
1
1
1
1
1
1
1
1
1
1
1
1
1
1
1
1
1
1
1
1
1
1
1.00003
1.1305
4.37587
8.52246
8.71267
8.67136
8.66327
8.64394
8.61689
8.58234
8.54155
8.49327
8.4391
8.37996
8.316
8.24875
8.17791
8.10204
8.02186
7.93696
7.84708
7.75243
7.65259
7.54747
7.43848
7.32566
7.20851
7.08655
6.96
6.82521
6.69021
6.55218
6.41022
6.26845
6.12227
5.97284
1
1
1
1
1
1
1
1
1
1
1
1
1
1
1
1
1
1
1
1
1
1
1
1
1
1
1
1
1
1
1
1
1
1
1
1
1
1
1
1
1
1
1
1
1
1
1
1
1
1
1
1
1
1
1
1
1
1
1
1
1
1.00071
1.29711
5.0855
8.48379
8.61633
8.60206
8.58697
8.55744
8.52179
8.47959
8.43105
8.37683
8.31773
8.25372
8.18601
8.11414
8.03788
7.95749
7.87294
7.78446
7.69215
7.59564
7.49491
7.39021
7.282
7.16923
7.05185
6.92926
6.80096
6.67363
6.54233
6.40833
6.27398
6.13708
5.9955
1
1
1
1
1
1
1
1
1
1
1
1
1
1
1
1
1
1
1
1
1
1
1
1
1
1
1
1
1
1
1
1
1
1
1
1
1
1
1
1
1
1
1
1
1
1
1
1
1
1
1
1
1
1
1
1
1
1
1
1
1
1
1.00291
1.46667
5.59896
8.46121
8.57119
8.5432
8.50779
8.46703
8.42162
8.37261
8.31925
8.26091
8.19798
8.13107
8.05983
7.98417
7.90403
7.81972
7.7319
7.64086
7.54672
7.4494
7.34852
7.24385
7.13414
7.02016
6.90249
6.78131
6.65996
6.53497
6.40735
6.27953
6.15
6.01618
1
1
1
1
1
1
1
1
1
1
1
1
1
1
1
1
1
1
1
1
1
1
1
1
1
1
1
1
1
1
1
1
1
1
1
1
1
1
1
1
1
1
1
1
1
1
1
1
1
1
1
1
1
1
1
1
1
1
1
1
1
1
1
1.00661
1.63368
6.02557
8.41961
8.50137
8.45933
8.41409
8.36517
8.31544
8.26095
8.2024
8.14027
8.07509
8.00612
7.93221
7.85364
7.7709
7.68461
7.59511
7.50274
7.4075
7.30886
7.20638
7.09961
6.98954
6.8771
6.76266
6.64672
6.52764
6.40578
6.28329
6.16022
6.03411
1
1
1
1
1
1
1
1
1
1
1
1
1
1
1
1
1
1
1
1
1
1
1
1
1
1
1
1
1
1
1
1
1
1
1
1
1
1
1
1
1
1
1
1
1
1
1
1
1
1
1
1
1
1
1
1
1
1
1
1
1
1
1
1.00001
1.0116
1.80331
6.34283
8.37153
8.41239
8.36725
8.31971
8.2664
8.20886
8.14888
8.08723
8.02282
7.95472
7.88228
7.80609
7.72613
7.64257
7.55539
7.46486
7.37118
7.27396
7.17307
7.0695
6.96381
6.85586
6.74624
6.63466
6.52078
6.40465
6.28717
6.1701
6.05128
1
1
1
1
1
1
1
1
1
1
1
1
1
1
1
1
1
1
1
1
1
1
1
1
1
1
1
1
1
1
1
1
1
1
1
1
1
1
1
1
1
1
1
1
1
1
1
1
1
1
1
1
1
1
1
1
1
1
1
1
1
1
1
1
1.00003
1.01798
1.95813
6.55658
8.2928
8.31608
8.26965
8.22083
8.16559
8.10835
8.04618
7.97899
7.90794
7.8353
7.76045
7.68224
7.60063
7.5153
7.42682
7.33536
7.24048
7.14253
7.04216
6.93972
6.83543
6.73001
6.62291
6.51415
6.40372
6.29143
6.17986
6.06706
1
1
1
1
1
1
1
1
1
1
1
1
1
1
1
1
1
1
1
1
1
1
1
1
1
1
1
1
1
1
1
1
1
1
1
1
1
1
1
1
1
1
1
1
1
1
1
1
1
1
1
1
1
1
1
1
1
1
1
1
1
1
1
1
1
1.00005
1.0251
2.08414
6.63913
8.21582
8.23986
8.18284
8.12924
8.06895
8.00462
7.93622
7.86623
7.79494
7.7211
7.64323
7.56092
7.47573
7.38895
7.29982
7.20776
7.11325
7.01672
6.91832
6.81826
6.7172
6.61455
6.51062
6.40517
6.29804
6.19148
6.08314
1
1
1
1
1
1
1
1
1
1
1
1
1
1
1
1
1
1
1
1
1
1
1
1
1
1
1
1
1
1
1
1
1
1
1
1
1
1
1
1
1
1
1
1
1
1
1
1
1
1
1
1
1
1
1
1
1
1
1
1
1
1
1
1
1
1
1.00008
1.03184
2.15168
6.64181
8.13235
8.14133
8.08535
8.02951
7.96101
7.8922
7.82349
7.75428
7.68196
7.60548
7.5248
7.44116
7.35545
7.26774
7.17794
7.08629
6.99338
6.89916
6.80363
6.70697
6.6088
6.50954
6.40866
6.30691
6.20482
6.1009
1
1
1
1
1
1
1
1
1
1
1
1
1
1
1
1
1
1
1
1
1
1
1
1
1
1
1
1
1
1
1
1
1
1
1
1
1
1
1
1
1
1
1
1
1
1
1
1
1
1
1
1
1
1
1
1
1
1
1
1
1
1
1
1
1
1
1
1.00011
1.03577
2.17965
6.50688
8.04897
8.06398
7.99609
7.93115
7.85868
7.78742
7.71642
7.64362
7.56782
7.48798
7.40523
7.32118
7.2365
7.15095
7.0639
6.97503
6.88423
6.79216
6.6989
6.60478
6.50992
6.4137
6.31737
6.21978
6.12025
1
1
1
1
1
1
1
1
1
1
1
1
1
1
1
1
1
1
1
1
1
1
1
1
1
1
1
1
1
1
1
1
1
1
1
1
1
1
1
1
1
1
1
1
1
1
1
1
1
1
1
1
1
1
1
1
1
1
1
1
1
1
1
1
1
1
1
1
1.00013
1.0379
2.12858
6.34472
7.90641
7.95187
7.88387
7.82357
7.75645
7.68551
7.61102
7.53334
7.4523
7.3706
7.28891
7.20724
7.12529
7.04255
6.95821
6.87206
6.78479
6.6961
6.60644
6.51519
6.42241
6.32975
6.23539
6.13962
1
1
1
1
1
1
1
1
1
1
1
1
1
1
1
1
1
1
1
1
1
1
1
1
1
1
1
1
1
1
1
1
1
1
1
1
1
1
1
1
1
1
1
1
1
1
1
1
1
1
1
1
1
1
1
1
1
1
1
1
1
1
1
1
1
1
1
1
1
1.00014
1.03503
2.05259
6.00157
7.81561
7.85088
7.77341
7.70969
7.64124
7.57276
7.4989
7.42139
7.3435
7.26505
7.18651
7.108
7.02909
6.94876
6.86665
6.78305
6.69815
6.61235
6.52454
6.43515
6.34481
6.25293
6.15978
1
1
1
1
1
1
1
1
1
1
1
1
1
1
1
1
1
1
1
1
1
1
1
1
1
1
1
1
1
1
1
1
1
1
1
1
1
1
1
1
1
1
1
1
1
1
1
1
1
1
1
1
1
1
1
1
1
1
1
1
1
1
1
1
1
1
1
1
1
1
1.00013
1.03063
1.91141
5.56663
7.65041
7.75527
7.67105
7.60441
7.53226
7.45891
7.38691
7.31551
7.24364
7.17115
7.09781
7.02301
6.94591
6.86649
6.78552
6.70343
6.62007
6.5348
6.44757
6.35871
6.26902
6.17831
1
1
1
1
1
1
1
1
1
1
1
1
1
1
1
1
1
1
1
1
1
1
1
1
1
1
1
1
1
1
1
1
1
1
1
1
1
1
1
1
1
1
1
1
1
1
1
1
1
1
1
1
1
1
1
1
1
1
1
1
1
1
1
1
1
1
1
1
1
1
1
1.00011
1.02379
1.73768
4.96197
7.45972
7.65359
7.56837
7.50081
7.43396
7.36817
7.30148
7.23346
7.16424
7.09415
7.02243
6.94818
6.87154
6.79302
6.71259
6.63033
6.54579
6.45919
6.37198
6.28411
6.19561
1
1
1
1
1
1
1
1
1
1
1
1
1
1
1
1
1
1
1
1
1
1
1
1
1
1
1
1
1
1
1
1
1
1
1
1
1
1
1
1
1
1
1
1
1
1
1
1
1
1
1
1
1
1
1
1
1
1
1
1
1
1
1
1
1
1
1
1
1
1
1
1
1.00008
1.01639
1.53873
4.23428
7.22849
7.554
7.48392
7.4259
7.36413
7.30108
7.23491
7.16687
7.09692
7.02459
6.95046
6.87486
6.79743
6.71825
6.63703
6.55373
6.46963
6.38458
6.29814
6.21224
1
1
1
1
1
1
1
1
1
1
1
1
1
1
1
1
1
1
1
1
1
1
1
1
1
1
1
1
1
1
1
1
1
1
1
1
1
1
1
1
1
1
1
1
1
1
1
1
1
1
1
1
1
1
1
1
1
1
1
1
1
1
1
1
1
1
1
1
1
1
1
1
1
1.00005
1.00966
1.34604
3.56557
6.85768
7.45523
7.41978
7.35953
7.29664
7.23077
7.16264
7.0925
7.02115
6.94862
6.87406
6.79787
6.7202
6.64044
6.55974
6.47785
6.39446
6.31169
6.22903
1
1
1
1
1
1
1
1
1
1
1
1
1
1
1
1
1
1
1
1
1
1
1
1
1
1
1
1
1
1
1
1
1
1
1
1
1
1
1
1
1
1
1
1
1
1
1
1
1
1
1
1
1
1
1
1
1
1
1
1
1
1
1
1
1
1
1
1
1
1
1
1
1
1
1.00002
1.00468
1.20749
2.92976
6.34458
7.32753
7.38501
7.28517
7.22392
7.157
7.08811
7.01787
6.94605
6.87306
6.79916
6.72294
6.64512
6.56633
6.48627
6.40735
6.32785
6.2462
1
1
1
1
1
1
1
1
1
1
1
1
1
1
1
1
1
1
1
1
1
1
1
1
1
1
1
1
1
1
1
1
1
1
1
1
1
1
1
1
1
1
1
1
1
1
1
1
1
1
1
1
1
1
1
1
1
1
1
1
1
1
1
1
1
1
1
1
1
1
1
1
1
1
1
1.00001
1.00206
1.11319
2.37118
5.60371
7.1907
7.30935
7.21583
7.15115
7.08518
7.01634
6.9448
6.8732
6.79952
6.72459
6.64945
6.57359
6.4983
6.42135
6.34212
6.26402
1
1
1
1
1
1
1
1
1
1
1
1
1
1
1
1
1
1
1
1
1
1
1
1
1
1
1
1
1
1
1
1
1
1
1
1
1
1
1
1
1
1
1
1
1
1
1
1
1
1
1
1
1
1
1
1
1
1
1
1
1
1
1
1
1
1
1
1
1
1
1
1
1
1
1
1
1
1.00081
1.05609
1.89124
4.70622
6.96028
7.20875
7.1483
7.08071
7.01239
6.94467
6.87245
6.80051
6.73001
6.65821
6.58593
6.51174
6.43507
6.36144
6.28533
1
1
1
1
1
1
1
1
1
1
1
1
1
1
1
1
1
1
1
1
1
1
1
1
1
1
1
1
1
1
1
1
1
1
1
1
1
1
1
1
1
1
1
1
1
1
1
1
1
1
1
1
1
1
1
1
1
1
1
1
1
1
1
1
1
1
1
1
1
1
1
1
1
1
1
1
1
1
1.00028
1.02477
1.51668
3.74205
6.56412
7.09749
7.10633
7.01202
6.94278
6.87968
6.81349
6.74227
6.67134
6.59969
6.52732
6.45653
6.38176
6.30413
1
1
1
1
1
1
1
1
1
1
1
1
1
1
1
1
1
1
1
1
1
1
1
1
1
1
1
1
1
1
1
1
1
1
1
1
1
1
1
1
1
1
1
1
1
1
1
1
1
1
1
1
1
1
1
1
1
1
1
1
1
1
1
1
1
1
1
1
1
1
1
1
1
1
1
1
1
1
1
1.00008
1.00953
1.25895
2.88442
5.88123
6.9626
7.04161
6.96833
6.89955
6.8289
6.75918
6.68719
6.61342
6.54286
6.47078
6.39463
6.32519
1
1
1
1
1
1
1
1
1
1
1
1
1
1
1
1
1
1
1
1
1
1
1
1
1
1
1
1
1
1
1
1
1
1
1
1
1
1
1
1
1
1
1
1
1
1
1
1
1
1
1
1
1
1
1
1
1
1
1
1
1
1
1
1
1
1
1
1
1
1
1
1
1
1
1
1
1
1
1
1
1.00002
1.0031
1.11419
2.17438
4.9725
6.71144
6.96425
6.91521
6.83603
6.77346
6.70706
6.63331
6.55608
6.47885
6.41005
6.34178
1
1
1
1
1
1
1
1
1
1
1
1
1
1
1
1
1
1
1
1
1
1
1
1
1
1
1
1
1
1
1
1
1
1
1
1
1
1
1
1
1
1
1
1
1
1
1
1
1
1
1
1
1
1
1
1
1
1
1
1
1
1
1
1
1
1
1
1
1
1
1
1
1
1
1
1
1
1
1
1
1
1
1.00087
1.04363
1.65968
3.83022
6.35731
6.85124
6.86831
6.79434
6.71681
6.64994
6.57679
6.50404
6.43431
6.3568
1
1
1
1
1
1
1
1
1
1
1
1
1
1
1
1
1
1
1
1
1
1
1
1
1
1
1
1
1
1
1
1
1
1
1
1
1
1
1
1
1
1
1
1
1
1
1
1
1
1
1
1
1
1
1
1
1
1
1
1
1
1
1
1
1
1
1
1
1
1
1
1
1
1
1
1
1
1
1
1
1
1
1
1.0002
1.0149
1.29896
2.85405
5.64005
6.63338
6.79996
6.73799
6.66115
6.59594
6.53102
6.46451
6.39318
1
1
1
1
1
1
1
1
1
1
1
1
1
1
1
1
1
1
1
1
1
1
1
1
1
1
1
1
1
1
1
1
1
1
1
1
1
1
1
1
1
1
1
1
1
1
1
1
1
1
1
1
1
1
1
1
1
1
1
1
1
1
1
1
1
1
1
1
1
1
1
1
1
1
1
1
1
1
1
1
1
1
1
1
1.00004
1.00412
1.11569
2.10315
4.48854
6.4401
6.74352
6.70625
6.6137
6.52393
6.46506
6.42402
1
1
1
1
1
1
1
1
1
1
1
1
1
1
1
1
1
1
1
1
1
1
1
1
1
1
1
1
1
1
1
1
1
1
1
1
1
1
1
1
1
1
1
1
1
1
1
1
1
1
1
1
1
1
1
1
1
1
1
1
1
1
1
1
1
1
1
1
1
1
1
1
1
1
1
1
1
1
1
1
1
1
1
1
1
1.00001
1.00091
1.03984
1.52979
3.34564
5.83787
6.658
6.6629
6.57361
6.45827
6.37779
1
1
1
1
1
1
1
1
1
1
1
1
1
1
1
1
1
1
1
1
1
1
1
1
1
1
1
1
1
1
1
1
1
1
1
1
1
1
1
1
1
1
1
1
1
1
1
1
1
1
1
1
1
1
1
1
1
1
1
1
1
1
1
1
1
1
1
1
1
1
1
1
1
1
1
1
1
1
1
1
1
1
1
1
1
1
1
1.00017
1.0109
1.20118
2.4599
4.7778
6.38226
6.62817
6.58159
6.43525
1
1
1
1
1
1
1
1
1
1
1
1
1
1
1
1
1
1
1
1
1
1
1
1
1
1
1
1
1
1
1
1
1
1
1
1
1
1
1
1
1
1
1
1
1
1
1
1
1
1
1
1
1
1
1
1
1
1
1
1
1
1
1
1
1
1
1
1
1
1
1
1
1
1
1
1
1
1
1
1
1
1
1
1
1
1
1
1
1.00003
1.00211
1.07387
1.70609
3.69156
5.82924
6.44877
6.49722
1
1
1
1
1
1
1
1
1
1
1
1
1
1
1
1
1
1
1
1
1
1
1
1
1
1
1
1
1
1
1
1
1
1
1
1
1
1
1
1
1
1
1
1
1
1
1
1
1
1
1
1
1
1
1
1
1
1
1
1
1
1
1
1
1
1
1
1
1
1
1
1
1
1
1
1
1
1
1
1
1
1
1
1
1
1
1
1
1
1
1.00048
1.01856
1.29604
2.56338
5.01051
6.18737
1
1
1
1
1
1
1
1
1
1
1
1
1
1
1
1
1
1
1
1
1
1
1
1
1
1
1
1
1
1
1
1
1
1
1
1
1
1
1
1
1
1
1
1
1
1
1
1
1
1
1
1
1
1
1
1
1
1
1
1
1
1
1
1
1
1
1
1
1
1
1
1
1
1
1
1
1
1
1
1
1
1
1
1
1
1
1
1
1
1
1
1.00006
1.00435
1.08915
1.81155
3.83609
1
1
1
1
1
1
1
1
1
1
1
1
1
1
1
1
1
1
1
1
1
1
1
1
1
1
1
1
1
1
1
1
1
1
1
1
1
1
1
1
1
1
1
1
1
1
1
1
1
1
1
1
1
1
1
1
1
1
1
1
1
1
1
1
1
1
1
1
1
1
1
1
1
1
1
1
1
1
1
1
1
1
1
1
1
1
1
1
1
1
1
1
1.00001
1.00062
1.0243
1.33577
1
1
1
1
1
1
1
1
1
1
1
1
1
1
1
1
1
1
1
1
1
1
1
1
1
1
1
1
1
1
1
1
1
1
1
1
1
1
1
1
1
1
1
1
1
1
1
1
1
1
1
1
1
1
1
1
1
1
1
1
1
1
1
1
1
1
1
1
1
1
1
1
1
1
1
1
1
1
1
1
1
1
1
1
1
1
1
1
1
1
1
1
1
1
1.0001
1.00455
1
1
1
1
1
1
1
1
1
1
1
1
1
1
1
1
1
1
1
1
1
1
1
1
1
1
1
1
1
1
1
1
1
1
1
1
1
1
1
1
1
1
1
1
1
1
1
1
1
1
1
1
1
1
1
1
1
1
1
1
1
1
1
1
1
1
1
1
1
1
1
1
1
1
1
1
1
1
1
1
1
1
1
1
1
1
1
1
1
1
1
1
1
1
1
1.00001
1
1
1
1
1
1
1
1
1
1
1
1
1
1
1
1
1
1
1
1
1
1
1
1
1
1
1
1
1
1
1
1
1
1
1
1
1
1
1
1
1
1
1
1
1
1
1
1
1
1
1
1
1
1
1
1
1
1
1
1
1
1
1
1
1
1
1
1
1
1
1
1
1
1
1
1
1
1
1
1
1
1
1
1
1
1
1
1
1
1
1
1
1
1
1
1
1
1
1
1
1
1
1
1
1
1
1
1
1
1
1
1
1
1
1
1
1
1
1
1
1
1
1
1
1
1
1
1
1
1
1
1
1
1
1
1
1
1
1
1
1
1
1
1
1
1
1
1
1
1
1
1
1
1
1
1
1
1
1
1
1
1
1
1
1
1
1
1
1
1
1
1
1
1
1
1
1
1
1
1
1
1
1
1
1
1
1
1
1
1
1
1
1
1
1
1
1
1
1
1
1
1
1
1
1
1
1
1
1
1
1
1
1
1
1
1
1
1
1
1
1
1
1
1
1
1
1
1
1
1
1
1
1
1
1
1
1
1
1
1
1
1
1
1
1
1
1
1
1
1
1
1
1
1
1
1
1
1
1
1
1
1
1
1
1
1
1
1
1
1
1
1
1
1
1
1
1
1
1
1
1
1
1
1
1
1
1
1
1
1
1
1
1
1
1
1
1
1
1
1
1
1
1
1
1
1
1
1
1
1
1
1
1
1
1
1
1
1
1
1
1
1
1
1
1
1
1
1
1
1
1
1
1
1
1
1
1
1
1
1
1
1
1
1
1
1
1
1
1
1
1
1
1
1
1
1
1
1
1
1
1
1
1
1
1
1
1
1
1
1
1
1
1
1
1
1
1
1
1
1
1
1
1
1
1
1
1
1
1
1
1
1
1
1
1
1
1
1
1
1
1
1
1
1
1
1
1
1
1
1
1
1
1
1
1
1
1
1
1
1
1
1
1
1
1
1
1
1
1
1
1
1
1
1
1
1
1
1
1
1
1
1
1
1
1
1
1
1
1
1
1
1
1
1
1
1
1
1
1
1
1
1
1
1
1
1
1
1
1
1
1
1
1
1
1
1
1
1
1
1
1
1
1
1
1
1
1
1
1
1
1
1
1
1
1
1
1
1
1
1
1
1
1
1
1
1
1
1
1
1
1
1
1
1
1
1
1
1
1
1
1
1
1
1
1
1
1
1
1
1
1
1
1
1
1
1
1
1
1
1
1
1
1
1
1
1
1
1
1
1
1
1
1
1
1
1
1
1
1
1
1
1
1
1
1
1
1
1
1
1
1
1
1
1
1
1
1
1
1
1
1
1
1
1
1
1
1
1
1
1
1
1
1
1
1
1
1
1
1
1
1
1
1
1
1
1
1
1
1
1
1
1
1
1
1
1
1
1
1
1
1
1
1
1
1
1
1
1
1
1
1
1
1
1
1
1
1
1
1
1
1
1
1
1
1
1
1
1
1
1
1
1
1
1
1
1
1
1
1
1
1
1
1
1
1
1
1
1
1
1
1
1
1
1
1
1
1
1
1
1
1
1
1
1
1
1
1
1
1
1
1
1
1
1
1
1
1
1
1
1
1
1
1
1
1
1
1
1
1
1
1
1
1
1
1
1
1
1
1
1
1
1
1
1
1
1
1
1
1
1
1
1
1
1
1
1
1
1
1
1
1
1
1
1
1
1
1
1
1
1
1
1
1
1
1
1
1
1
1
1
1
1
1
1
1
1
1
1
1
1
1
1
1
1
1
1
1
1
1
1
1
1
1
1
1
1
1
1
1
1
1
1
1
1
1
1
1
1
1
1
1
1
1
1
1
1
1
1
1
1
1
1
1
1
1
1
1
1
1
1
1
1
1
1
1
1
1
1
1
1
1
1
1
1
1
1
1
1
1
1
1
1
1
1
1
1
1
1
1
1
1
1
1
1
1
1
1
1
1
1
1
1
1
1
1
1
1
1
1
1
1
1
1
1
1
1
1
1
1
1
1
1
1
1
1
1
1
1
1
1
1
1
1
1
1
1
1
1
1
1
1
1
1
1
1
1
1
1
1
1
1
1
1
1
1
1
1
1
1
1
1
1
1
1
1
1
1
1
1
1
1
1
1
1
1
1
1
1
1
1
1
1
1
1
1
1
1
1
1
1
1
1
1
1
1
1
1
1
1
1
1
1
1
1
1
1
1
1
1
1
1
1
1
1
1
1
1
1
1
1
1
1
1
1
1
1
1
1
1
1
1
1
1
1
1
1
1
1
1
1
1
1
1
1
1
1
1
1
1
1
1
1
1
1
1
1
1
1
1
1
1
1
1
1
1
1
1
1
1
1
1
1
1
1
1
1
1
1
1
1
1
1
1
1
1
1
1
1
1
1
1
1
1
1
1
1
1
1
1
1
1
1
1
1
1
1
1
1
1
1
1
1
1
1
1
1
1
1
1
1
1
1
1
1
1
1
1
1
1
1
1
1
1
1
1
1
1
1
1
1
1
1
1
1
1
1
1
1
1
1
1
1
1
1
1
1
1
1
1
1
1
1
1
1
1
1
1
1
1
1
1
1
1
1
1
1
1
1
1
1
1
1
1
1
1
1
1
1
1
1
1
1
1
1
1
1
1
1
1
1
1
1
1
1
1
1
1
1
1
1
1
1
1
1
1
1
1
1
1
1
1
1
1
1
1
1
1
1
1
1
1
1
1
1
1
1
1
1
1
1
1
1
1
1
1
1
1
1
1
1
1
1
1
1
1
1
1
1
1
1
1
1
1
1
1
1
1
1
1
1
1
1
1
1
1
1
1
1
1
1
1
1
1
1
1
1
1
1
1
1
1
1
1
1
1
1
1
1
1
1
1
1
1
1
1
1
1
1
1
1
1
1
1
1
1
1
1
1
1
1
1
1
1
1
1
1
1
1
1
1
1
1
1
1
1
1
1
1
1
1
1
1
1
1
1
1
1
1
1
1
1
1
1
1
1
1
1
1
1
1
1
1
1
1
1
1
1
1
1
1
1
1
1
1
1
1
1
1
1
1
1
1
1
1
1
1
1
1
1
1
1
1
1
1
1
1
1
1
1
1
1
1
1
1
1
1
1
1
1
1
1
1
1
1
1
1
1
1
1
1
1
1
1
1
1
1
1
1
1
1
1
1
1
1
1
1
1
1
1
1
1
1
1
1
1
1
1
1
1
1
1
1
1
1
1
1
1
1
1
1
1
1
1
1
1
1
1
1
1
1
1
1
1
1
1
1
1
1
1
1
1.12085
0.253094
0.0404842
0.0102844
0.0190199
0.0584211
0.114115
0.143679
0.191737
0.282458
0.354299
0.427163
0.489499
0.531432
0.575527
0.645793
0.721525
0.80567
0.891428
0.961632
0.996179
1.00028
1.00223
1.0072
1.02433
1.04048
1.0493
1.05722
1.078
1.11081
1.14882
1.18073
1.20012
1.21145
1.2152
1.22148
1.22693
1.23146
1.23782
1.24884
1.26594
1.2841
1.29346
1.2967
1.29939
1.30264
1.30575
1.31002
1.31707
1.32584
1.33659
1.34703
1.34966
1.34836
1.34585
1.34153
1.33576
1.33474
1.33709
1.3415
1.34651
1.34807
2.95952
5.96442
6.28546
6.32838
6.36485
6.36909
6.36179
6.34374
6.31922
6.28923
6.25368
6.21456
6.17426
6.13381
6.09334
6.0518
6.01059
5.97252
5.93948
5.91185
5.88795
5.86357
5.83351
5.79327
5.74287
5.68553
5.62612
5.56872
5.51599
5.46913
5.42692
5.38692
5.34537
5.2998
5.24997
5.19713
5.14381
5.09291
5.04751
5.01012
4.98143
4.9588
4.93447
4.90198
4.86121
4.81603
4.76908
4.72155
4.67575
4.63351
4.58673
4.5334
4.47725
4.41798
4.36248
4.31579
4.27476
4.24047
4.20407
4.16447
4.12363
4.08172
4.04286
4.00885
3.97984
3.95981
3.94664
3.93384
3.91475
3.88479
3.84702
3.79595
3.73538
3.68626
3.65147
3.62198
3.6005
3.58985
3.57784
3.55495
3.52769
3.49683
3.45952
3.41666
3.37546
3.3427
3.31721
3.29452
3.27357
3.25526
3.23764
3.21687
3.19351
3.16717
3.13339
3.09214
3.05444
3.02759
3.00568
2.9855
2.96916
2.95362
2.93365
2.9117
2.88445
2.84817
2.80521
2.76658
2.7361
2.71102
2.69105
2.67595
2.6626
2.64986
2.63586
2.61913
2.59453
2.55981
2.52356
2.49845
2.48268
2.46947
2.45727
2.44578
2.4326
2.41743
2.39858
2.3723
2.34192
2.30408
2.00381
0.973123
0.486268
0.230288
0.160645
0.187306