/*--------------------------------*- C++ -*----------------------------------*\
  =========                 |
  \\      /  F ield         | OpenFOAM: The Open Source CFD Toolbox
   \\    /   O peration     | Website:  https://openfoam.org
    \\  /    A nd           | Version:  7
     \\/     M anipulation  |
\*---------------------------------------------------------------------------*/
FoamFile
{
    version     2.0;
    format      ascii;
    class       volScalarField;
    location    "3.4";
    object      rho;
}
// * * * * * * * * * * * * * * * * * * * * * * * * * * * * * * * * * * * * * //

dimensions      [1 -3 0 0 0 0 0];

internalField   nonuniform List<scalar> 
19968
(
1.40001
1.40001
1.40001
1.40001
1.40001
1.40001
1.40001
1.40001
1.40001
1.40001
1.40001
1.40001
1.40001
1.40001
1.40001
1.40001
1.40001
1.40001
1.40001
1.40001
1.40001
1.40001
1.40001
1.40001
1.40001
1.40001
1.40001
1.40001
1.40001
1.40001
1.40001
1.40001
1.40001
1.40001
1.40001
1.40001
1.40001
1.40001
1.40001
1.40001
1.40001
1.40001
1.40001
1.40001
1.40001
1.40001
1.40001
1.40001
1.50848
4.2451
5.40895
5.4293
5.45355
5.47987
5.50536
5.52771
5.5469
5.56425
5.58093
5.59767
5.61496
5.63324
5.65247
5.67214
5.6917
5.71082
5.72901
5.74597
5.76177
5.77689
5.79221
5.80778
5.82273
5.83662
5.84935
5.86044
5.87001
5.87927
5.88964
5.90175
5.91511
5.92847
5.94051
5.95047
5.95835
5.96486
5.97097
5.9773
5.98388
5.99021
5.99557
5.99939
6.00165
6.00274
6.00341
6.00493
1.40001
1.40001
1.40001
1.40001
1.40001
1.40001
1.40001
1.40001
1.40001
1.40001
1.40001
1.40001
1.40001
1.40001
1.40001
1.40001
1.40001
1.40001
1.40001
1.40001
1.40001
1.40001
1.40001
1.40001
1.40001
1.40001
1.40001
1.40001
1.40001
1.40001
1.40001
1.40001
1.40001
1.40001
1.40001
1.40001
1.40001
1.40001
1.40001
1.40001
1.40001
1.40001
1.40001
1.40001
1.40001
1.40001
1.40001
1.40001
1.49376
4.20518
5.40181
5.43394
5.45672
5.48127
5.50519
5.52738
5.54717
5.56487
5.58121
5.59721
5.61396
5.6321
5.65147
5.67128
5.69082
5.70985
5.72788
5.7446
5.76018
5.77508
5.79028
5.80582
5.82096
5.83511
5.8481
5.85941
5.86915
5.87849
5.8888
5.90067
5.91365
5.92659
5.93827
5.94801
5.95584
5.96243
5.96865
5.97506
5.98165
5.98794
5.99326
5.99705
5.99928
6.00036
6.00102
6.00253
1.40001
1.40001
1.40001
1.40001
1.40001
1.40001
1.40001
1.40001
1.40001
1.40001
1.40001
1.40001
1.40001
1.40001
1.40001
1.40001
1.40001
1.40001
1.40001
1.40001
1.40001
1.40001
1.40001
1.40001
1.40001
1.40001
1.40001
1.40001
1.40001
1.40001
1.40001
1.40001
1.40001
1.40001
1.40001
1.40001
1.40001
1.40001
1.40001
1.40001
1.40001
1.40001
1.40001
1.40001
1.40001
1.40001
1.40001
1.40001
1.44523
4.13876
5.40301
5.42977
5.45438
5.47905
5.5032
5.52599
5.54611
5.56355
5.57923
5.59452
5.61093
5.62915
5.64882
5.66891
5.6885
5.70746
5.72529
5.74161
5.75687
5.77148
5.78658
5.80219
5.81766
5.83227
5.84573
5.85744
5.86749
5.877
5.88729
5.89894
5.91152
5.92392
5.93507
5.94438
5.952
5.95857
5.96486
5.97132
5.97786
5.98401
5.98915
5.99277
5.99487
5.9959
5.99656
5.99804
1.40001
1.40001
1.40001
1.40001
1.40001
1.40001
1.40001
1.40001
1.40001
1.40001
1.40001
1.40001
1.40001
1.40001
1.40001
1.40001
1.40001
1.40001
1.40001
1.40001
1.40001
1.40001
1.40001
1.40001
1.40001
1.40001
1.40001
1.40001
1.40001
1.40001
1.40001
1.40001
1.40001
1.40001
1.40001
1.40001
1.40001
1.40001
1.40001
1.40001
1.40001
1.40001
1.40001
1.40001
1.40001
1.40001
1.40001
1.40001
1.40165
4.02371
5.3932
5.42624
5.45138
5.47723
5.50245
5.52594
5.54585
5.56235
5.57692
5.59147
5.60762
5.62598
5.64598
5.66635
5.68594
5.70469
5.7221
5.73772
5.75234
5.76641
5.78112
5.79665
5.81236
5.82748
5.8415
5.85374
5.86421
5.87389
5.88406
5.89532
5.90731
5.91906
5.92964
5.93859
5.9461
5.95276
5.95922
5.96578
5.97228
5.97824
5.98308
5.98637
5.98815
5.98894
5.98944
5.99078
1.40001
1.40001
1.40001
1.40001
1.40001
1.40001
1.40001
1.40001
1.40001
1.40001
1.40001
1.40001
1.40001
1.40001
1.40001
1.40001
1.40001
1.40001
1.40001
1.40001
1.40001
1.40001
1.40001
1.40001
1.40001
1.40001
1.40001
1.40001
1.40001
1.40001
1.40001
1.40001
1.40001
1.40001
1.40001
1.40001
1.40001
1.40001
1.40001
1.40001
1.40001
1.40001
1.40001
1.40001
1.40001
1.40001
1.40001
1.40001
1.40002
3.83695
5.3733
5.42118
5.44549
5.47146
5.4966
5.51976
5.53894
5.55467
5.56896
5.58378
5.60038
5.6192
5.63971
5.66054
5.6803
5.69894
5.71612
5.73116
5.74521
5.75872
5.7729
5.78836
5.80433
5.82014
5.83494
5.84794
5.85892
5.86873
5.87859
5.88923
5.90048
5.91154
5.92158
5.93024
5.93767
5.9444
5.95098
5.95762
5.96415
5.97008
5.97486
5.97807
5.97978
5.98054
5.98103
5.98235
1.40001
1.40001
1.40001
1.40001
1.40001
1.40001
1.40001
1.40001
1.40001
1.40001
1.40001
1.40001
1.40001
1.40001
1.40001
1.40001
1.40001
1.40001
1.40001
1.40001
1.40001
1.40001
1.40001
1.40001
1.40001
1.40001
1.40001
1.40001
1.40001
1.40001
1.40001
1.40001
1.40001
1.40001
1.40001
1.40001
1.40001
1.40001
1.40001
1.40001
1.40001
1.40001
1.40001
1.40001
1.40001
1.40001
1.40001
1.40001
1.40001
3.58529
5.34014
5.41609
5.44097
5.46768
5.4928
5.51559
5.53427
5.54955
5.56336
5.57783
5.59401
5.61235
5.63261
5.65356
5.67351
5.69223
5.70964
5.72464
5.73839
5.75136
5.76465
5.77965
5.79546
5.81166
5.82695
5.84044
5.85163
5.86117
5.87033
5.88012
5.8906
5.90112
5.91088
5.91941
5.92675
5.93336
5.93975
5.94616
5.95244
5.95812
5.96266
5.96565
5.96715
5.96777
5.96814
5.9694
1.40001
1.40001
1.40001
1.40001
1.40001
1.40001
1.40001
1.40001
1.40001
1.40001
1.40001
1.40001
1.40001
1.40001
1.40001
1.40001
1.40001
1.40001
1.40001
1.40001
1.40001
1.40001
1.40001
1.40001
1.40001
1.40001
1.40001
1.40001
1.40001
1.40001
1.40001
1.40001
1.40001
1.40001
1.40001
1.40001
1.40001
1.40001
1.40001
1.40001
1.40001
1.40001
1.40001
1.40001
1.40001
1.40001
1.40001
1.40001
1.40001
3.26931
5.28855
5.40618
5.43271
5.46158
5.4877
5.51093
5.52975
5.54487
5.55803
5.57155
5.58663
5.60381
5.62321
5.64401
5.66427
5.68327
5.70122
5.71657
5.73015
5.74249
5.7545
5.76865
5.78393
5.80035
5.81605
5.83005
5.84142
5.85061
5.85892
5.86774
5.87751
5.88768
5.89742
5.90606
5.91343
5.91988
5.92597
5.93201
5.93792
5.9433
5.94759
5.95038
5.95168
5.95217
5.95242
5.95363
1.40001
1.40001
1.40001
1.40001
1.40001
1.40001
1.40001
1.40001
1.40001
1.40001
1.40001
1.40001
1.40001
1.40001
1.40001
1.40001
1.40001
1.40001
1.40001
1.40001
1.40001
1.40001
1.40001
1.40001
1.40001
1.40001
1.40001
1.40001
1.40001
1.40001
1.40001
1.40001
1.40001
1.40001
1.40001
1.40001
1.40001
1.40001
1.40001
1.40001
1.40001
1.40001
1.40001
1.40001
1.40001
1.40001
1.40001
1.40001
1.40001
2.89031
5.20953
5.39253
5.42007
5.45204
5.48034
5.50537
5.52555
5.54136
5.5543
5.56675
5.58035
5.5958
5.61359
5.63354
5.65375
5.67284
5.69115
5.70699
5.72042
5.73215
5.74281
5.75567
5.76984
5.78593
5.80159
5.81576
5.82711
5.83586
5.84329
5.85119
5.86041
5.87055
5.8806
5.88965
5.89722
5.90353
5.9092
5.91467
5.91997
5.92475
5.9285
5.93082
5.93169
5.93187
5.93184
5.93282
1.40001
1.40001
1.40001
1.40001
1.40001
1.40001
1.40001
1.40001
1.40001
1.40001
1.40001
1.40001
1.40001
1.40001
1.40001
1.40001
1.40001
1.40001
1.40001
1.40001
1.40001
1.40001
1.40001
1.40001
1.40001
1.40001
1.40001
1.40001
1.40001
1.40001
1.40001
1.40001
1.40001
1.40001
1.40001
1.40001
1.40001
1.40001
1.40001
1.40001
1.40001
1.40001
1.40001
1.40001
1.40001
1.40001
1.40001
1.40001
1.40001
2.45265
5.07108
5.38951
5.41673
5.44906
5.47668
5.5025
5.52409
5.54069
5.5533
5.56448
5.57646
5.59013
5.606
5.6244
5.64389
5.66265
5.68073
5.69694
5.71029
5.72166
5.73118
5.74223
5.75458
5.76933
5.78408
5.79765
5.80848
5.81647
5.82274
5.82934
5.83759
5.84727
5.8573
5.86652
5.87424
5.88049
5.88588
5.891
5.89596
5.90046
5.90401
5.90628
5.90718
5.90742
5.90733
5.90825
1.40001
1.40001
1.40001
1.40001
1.40001
1.40001
1.40001
1.40001
1.40001
1.40001
1.40001
1.40001
1.40001
1.40001
1.40001
1.40001
1.40001
1.40001
1.40001
1.40001
1.40001
1.40001
1.40001
1.40001
1.40001
1.40001
1.40001
1.40001
1.40001
1.40001
1.40001
1.40001
1.40001
1.40001
1.40001
1.40001
1.40001
1.40001
1.40001
1.40001
1.40001
1.40001
1.40001
1.40001
1.40001
1.40001
1.40001
1.40001
1.40001
1.98721
4.82062
5.39987
5.41149
5.43937
5.46332
5.48876
5.51177
5.53049
5.54476
5.5566
5.56833
5.58116
5.59575
5.61274
5.63151
5.65005
5.66758
5.68393
5.69764
5.70949
5.71897
5.72841
5.73897
5.75194
5.76555
5.7783
5.78869
5.79621
5.80156
5.80681
5.81373
5.82241
5.83181
5.84069
5.84815
5.85399
5.85871
5.86295
5.86691
5.87035
5.87283
5.87419
5.87438
5.87403
5.8735
5.87408
1.40001
1.40001
1.40001
1.40001
1.40001
1.40001
1.40001
1.40001
1.40001
1.40001
1.40001
1.40001
1.40001
1.40001
1.40001
1.40001
1.40001
1.40001
1.40001
1.40001
1.40001
1.40001
1.40001
1.40001
1.40001
1.40001
1.40001
1.40001
1.40001
1.40001
1.40001
1.40001
1.40001
1.40001
1.40001
1.40001
1.40001
1.40001
1.40001
1.40001
1.40001
1.40001
1.40001
1.40001
1.40001
1.40001
1.40001
1.40001
1.40001
1.54558
4.35845
5.42903
5.42544
5.44381
5.46377
5.4848
5.50528
5.52337
5.53829
5.55067
5.56206
5.57371
5.58617
5.60007
5.61589
5.63236
5.64821
5.66388
5.67769
5.68971
5.69947
5.70751
5.71637
5.72687
5.73889
5.75057
5.76054
5.76789
5.77276
5.7769
5.78232
5.78957
5.79777
5.80567
5.81232
5.81739
5.82132
5.82484
5.82825
5.83123
5.83347
5.83455
5.83448
5.83386
5.83307
5.83347
1.40001
1.40001
1.40001
1.40001
1.40001
1.40001
1.40001
1.40001
1.40001
1.40001
1.40001
1.40001
1.40001
1.40001
1.40001
1.40001
1.40001
1.40001
1.40001
1.40001
1.40001
1.40001
1.40001
1.40001
1.40001
1.40001
1.40001
1.40001
1.40001
1.40001
1.40001
1.40001
1.40001
1.40001
1.40001
1.40001
1.40001
1.40001
1.40001
1.40001
1.40001
1.40001
1.40001
1.40001
1.40001
1.40001
1.40001
1.40001
1.40001
1.40204
3.62132
5.3256
5.37304
5.39312
5.41792
5.44093
5.46395
5.48509
5.50337
5.51858
5.5316
5.54363
5.55567
5.56833
5.58242
5.5981
5.61376
5.62905
5.64328
5.65577
5.66671
5.67542
5.68378
5.69265
5.70328
5.71409
5.72366
5.73108
5.73596
5.73943
5.74347
5.7492
5.75612
5.76307
5.76906
5.77353
5.77674
5.77931
5.78142
5.78271
5.7828
5.78135
5.77892
5.77605
5.77378
5.77324
1.40001
1.40001
1.40001
1.40001
1.40001
1.40001
1.40001
1.40001
1.40001
1.40001
1.40001
1.40001
1.40001
1.40001
1.40001
1.40001
1.40001
1.40001
1.40001
1.40001
1.40001
1.40001
1.40001
1.40001
1.40001
1.40001
1.40001
1.40001
1.40001
1.40001
1.40001
1.40001
1.40001
1.40001
1.40001
1.40001
1.40001
1.40001
1.40001
1.40001
1.40001
1.40001
1.40001
1.40001
1.40001
1.40001
1.40001
1.40001
1.40001
1.40001
2.71894
5.11276
5.36115
5.38735
5.41076
5.43075
5.45188
5.4714
5.48829
5.50238
5.51443
5.5254
5.53616
5.54717
5.55889
5.57211
5.58599
5.59931
5.612
5.62311
5.63329
5.64209
5.64969
5.65694
5.66526
5.67424
5.68251
5.68908
5.69337
5.69569
5.69763
5.70081
5.70512
5.7094
5.71261
5.71415
5.71425
5.71357
5.71278
5.7119
5.7105
5.70858
5.70574
5.70278
5.70029
5.6995
1.40001
1.40001
1.40001
1.40001
1.40001
1.40001
1.40001
1.40001
1.40001
1.40001
1.40001
1.40001
1.40001
1.40001
1.40001
1.40001
1.40001
1.40001
1.40001
1.40001
1.40001
1.40001
1.40001
1.40001
1.40001
1.40001
1.40001
1.40001
1.40001
1.40001
1.40001
1.40001
1.40001
1.40001
1.40001
1.40001
1.40001
1.40001
1.40001
1.40001
1.40001
1.40001
1.40001
1.40001
1.40001
1.40001
1.40001
1.40001
1.40001
1.40001
1.80119
4.63947
5.38839
5.38274
5.39949
5.41694
5.43689
5.4551
5.47073
5.48378
5.49489
5.50482
5.51428
5.52377
5.53355
5.54423
5.55574
5.56674
5.57692
5.58582
5.5937
5.60112
5.60755
5.61315
5.61874
5.62513
5.63139
5.63636
5.6395
5.64042
5.64004
5.64022
5.64143
5.64269
5.64302
5.64204
5.63986
5.63694
5.63396
5.63052
5.62518
5.61807
5.60791
5.59643
5.58547
5.57685
1.40001
1.40001
1.40001
1.40001
1.40001
1.40001
1.40001
1.40001
1.40001
1.40001
1.40001
1.40001
1.40001
1.40001
1.40001
1.40001
1.40001
1.40001
1.40001
1.40001
1.40001
1.40001
1.40001
1.40001
1.40001
1.40001
1.40001
1.40001
1.40001
1.40001
1.40001
1.40001
1.40001
1.40001
1.40001
1.40001
1.40001
1.40001
1.40001
1.40001
1.40001
1.40001
1.40001
1.40001
1.40001
1.40001
1.40001
1.40001
1.40001
1.40001
1.41057
3.47666
5.29021
5.36923
5.383
5.40203
5.41881
5.43459
5.44871
5.46092
5.47142
5.48067
5.48918
5.49741
5.50558
5.51393
5.52262
5.53099
5.53839
5.54472
5.54977
5.5542
5.55831
5.56166
5.5644
5.56747
5.57077
5.57325
5.57413
5.57276
5.56953
5.56604
5.56259
5.55832
5.55287
5.54573
5.53627
5.52436
5.51006
5.49321
5.47407
5.45338
5.43447
5.41753
5.4085
5.40396
1.40001
1.40001
1.40001
1.40001
1.40001
1.40001
1.40001
1.40001
1.40001
1.40001
1.40001
1.40001
1.40001
1.40001
1.40001
1.40001
1.40001
1.40001
1.40001
1.40001
1.40001
1.40001
1.40001
1.40001
1.40001
1.40001
1.40001
1.40001
1.40001
1.40001
1.40001
1.40001
1.40001
1.40001
1.40001
1.40001
1.40001
1.40001
1.40001
1.40001
1.40001
1.40001
1.40001
1.40001
1.40001
1.40001
1.40001
1.40001
1.40001
1.40001
1.40001
2.09312
4.84039
5.36991
5.36608
5.38682
5.4012
5.41539
5.42835
5.43979
5.44958
5.45797
5.46539
5.47219
5.47862
5.48473
5.49051
5.49576
5.50008
5.5033
5.50529
5.50603
5.5062
5.50593
5.50504
5.50381
5.50287
5.50133
5.49815
5.49302
5.4857
5.47682
5.46642
5.45447
5.44081
5.425
5.40632
5.38443
5.3595
5.33249
5.30432
5.27554
5.23825
5.19472
5.13674
5.15365
1.40001
1.40001
1.40001
1.40001
1.40001
1.40001
1.40001
1.40001
1.40001
1.40001
1.40001
1.40001
1.40001
1.40001
1.40001
1.40001
1.40001
1.40001
1.40001
1.40001
1.40001
1.40001
1.40001
1.40001
1.40001
1.40001
1.40001
1.40001
1.40001
1.40001
1.40001
1.40001
1.40001
1.40001
1.40001
1.40001
1.40001
1.40001
1.40001
1.40001
1.40001
1.40001
1.40001
1.40001
1.40001
1.40001
1.40001
1.40001
1.40001
1.40001
1.4
1.43138
3.77094
5.30248
5.34926
5.3657
5.3791
5.39112
5.40309
5.41435
5.42424
5.43261
5.4397
5.44576
5.45095
5.45527
5.45856
5.46083
5.46223
5.46275
5.46237
5.46025
5.4568
5.45269
5.4479
5.4426
5.43731
5.43106
5.42349
5.41405
5.40218
5.38767
5.37039
5.35035
5.32741
5.30104
5.26989
5.23253
5.18637
5.1301
5.05705
4.96103
4.81398
4.58478
4.17469
3.2661
1.40001
1.40001
1.40001
1.40001
1.40001
1.40001
1.40001
1.40001
1.40001
1.40001
1.40001
1.40001
1.40001
1.40001
1.40001
1.40001
1.40001
1.40001
1.40001
1.40001
1.40001
1.40001
1.40001
1.40001
1.40001
1.40001
1.40001
1.40001
1.40001
1.40001
1.40001
1.40001
1.40001
1.40001
1.40001
1.40001
1.40001
1.40001
1.40001
1.40001
1.40001
1.40001
1.40001
1.40001
1.40001
1.40001
1.40001
1.40001
1.40001
1.40001
1.40001
1.39992
2.55442
4.99681
5.31281
5.32694
5.34726
5.36169
5.37465
5.38665
5.39741
5.4066
5.41425
5.42048
5.42532
5.42863
5.43047
5.43106
5.43073
5.42956
5.42716
5.42302
5.41702
5.40973
5.40126
5.39225
5.38277
5.37206
5.3601
5.34615
5.32941
5.3093
5.28549
5.25784
5.22574
5.18881
5.14441
5.09146
5.02409
4.94201
4.83319
4.69494
4.49209
4.21246
3.68544
2.91704
1.40001
1.40001
1.40001
1.40001
1.40001
1.40001
1.40001
1.40001
1.40001
1.40001
1.40001
1.40001
1.40001
1.40001
1.40001
1.40001
1.40001
1.40001
1.40001
1.40001
1.40001
1.40001
1.40001
1.40001
1.40001
1.40001
1.40001
1.40001
1.40001
1.40001
1.40001
1.40001
1.40001
1.40001
1.40001
1.40001
1.40001
1.40001
1.40001
1.40001
1.40001
1.40001
1.40001
1.40001
1.40001
1.40001
1.40001
1.40001
1.40001
1.40001
1.40001
1.39999
1.51251
4.32716
5.36332
5.34111
5.33786
5.3432
5.35027
5.35876
5.3676
5.3758
5.38278
5.3884
5.39268
5.39538
5.39636
5.39586
5.39403
5.39109
5.38706
5.38154
5.37398
5.36412
5.35244
5.33975
5.3258
5.31062
5.29388
5.27501
5.25298
5.22731
5.19697
5.16214
5.12119
5.07428
5.01754
4.95042
4.86641
4.7641
4.63445
4.46784
4.24829
3.94033
3.49232
2.98527
1.40001
1.40001
1.40001
1.40001
1.40001
1.40001
1.40001
1.40001
1.40001
1.40001
1.40001
1.40001
1.40001
1.40001
1.40001
1.40001
1.40001
1.40001
1.40001
1.40001
1.40001
1.40001
1.40001
1.40001
1.40001
1.40001
1.40001
1.40001
1.40001
1.40001
1.40001
1.40001
1.40001
1.40001
1.40001
1.40001
1.40001
1.40001
1.40001
1.40001
1.40001
1.40001
1.40001
1.40001
1.40001
1.40001
1.40001
1.40001
1.40001
1.40001
1.40001
1.4
1.40054
3.02008
5.11776
5.28619
5.30152
5.3129
5.31972
5.3262
5.33319
5.3401
5.34621
5.35116
5.35484
5.35689
5.3571
5.35565
5.35298
5.34909
5.3441
5.33764
5.3291
5.31761
5.30372
5.28778
5.26991
5.25027
5.22859
5.20471
5.17729
5.14616
5.10958
5.06803
5.01935
4.96368
4.89751
4.81933
4.72483
4.61024
4.47104
4.29523
4.07549
3.79841
3.45349
3.08019
1.40001
1.40001
1.40001
1.40001
1.40001
1.40001
1.40001
1.40001
1.40001
1.40001
1.40001
1.40001
1.40001
1.40001
1.40001
1.40001
1.40001
1.40001
1.40001
1.40001
1.40001
1.40001
1.40001
1.40001
1.40001
1.40001
1.40001
1.40001
1.40001
1.40001
1.40001
1.40001
1.40001
1.40001
1.40001
1.40001
1.40001
1.40001
1.40001
1.40001
1.40001
1.40001
1.40001
1.40001
1.40001
1.40001
1.40001
1.40001
1.40001
1.40001
1.40001
1.40001
1.4
1.70246
4.54347
5.33256
5.30937
5.3079
5.30712
5.30716
5.30911
5.31218
5.31531
5.31776
5.31915
5.31935
5.31779
5.31492
5.311
5.30585
5.29931
5.29134
5.28161
5.26934
5.25417
5.23613
5.21525
5.19191
5.16576
5.13704
5.10443
5.06801
5.02606
4.97874
4.92421
4.86193
4.78956
4.70483
4.60514
4.48652
4.34741
4.17565
3.97193
3.73902
3.47089
3.17653
1.40001
1.40001
1.40001
1.40001
1.40001
1.40001
1.40001
1.40001
1.40001
1.40001
1.40001
1.40001
1.40001
1.40001
1.40001
1.40001
1.40001
1.40001
1.40001
1.40001
1.40001
1.40001
1.40001
1.40001
1.40001
1.40001
1.40001
1.40001
1.40001
1.40001
1.40001
1.40001
1.40001
1.40001
1.40001
1.40001
1.40001
1.40001
1.40001
1.40001
1.40001
1.40001
1.40001
1.40001
1.40001
1.40001
1.40001
1.40001
1.40001
1.40001
1.40001
1.40001
1.4
1.40518
3.13163
5.11615
5.27183
5.27494
5.2841
5.28769
5.28872
5.28904
5.28923
5.28893
5.28771
5.28501
5.28088
5.27542
5.26901
5.26137
5.25256
5.24273
5.23139
5.21789
5.20151
5.18208
5.15918
5.13314
5.10346
5.07063
5.03375
4.99289
4.94679
4.89509
4.83651
4.77009
4.69431
4.60694
4.50655
4.38908
4.25744
4.09747
3.91697
3.72152
3.49983
3.26561
1.40001
1.40001
1.40001
1.40001
1.40001
1.40001
1.40001
1.40001
1.40001
1.40001
1.40001
1.40001
1.40001
1.40001
1.40001
1.40001
1.40001
1.40001
1.40001
1.40001
1.40001
1.40001
1.40001
1.40001
1.40001
1.40001
1.40001
1.40001
1.40001
1.40001
1.40001
1.40001
1.40001
1.40001
1.40001
1.40001
1.40001
1.40001
1.40001
1.40001
1.40001
1.40001
1.40001
1.40001
1.40001
1.40001
1.40001
1.40001
1.40001
1.40001
1.40001
1.40001
1.40001
1.4
1.67196
4.48836
5.30861
5.28457
5.27841
5.27596
5.27255
5.26942
5.26658
5.26352
5.25955
5.25397
5.24687
5.23846
5.22924
5.21912
5.20786
5.19554
5.18175
5.16657
5.14898
5.12866
5.1047
5.07714
5.0454
5.00988
4.96995
4.92574
4.87643
4.82153
4.76017
4.69142
4.61422
4.52652
4.42863
4.31405
4.19236
4.04646
3.89016
3.7229
3.53349
3.34221
1.40001
1.40001
1.40001
1.40001
1.40001
1.40001
1.40001
1.40001
1.40001
1.40001
1.40001
1.40001
1.40001
1.40001
1.40001
1.40001
1.40001
1.40001
1.40001
1.40001
1.40001
1.40001
1.40001
1.40001
1.40001
1.40001
1.40001
1.40001
1.40001
1.40001
1.40001
1.40001
1.40001
1.40001
1.40001
1.40001
1.40001
1.40001
1.40001
1.40001
1.40001
1.40001
1.40001
1.40001
1.40001
1.40001
1.40001
1.40001
1.40001
1.40001
1.40001
1.40001
1.40001
1.4
1.40396
2.96934
5.04767
5.22658
5.23736
5.24153
5.24205
5.24047
5.2377
5.23418
5.22963
5.22348
5.21549
5.20528
5.19347
5.18035
5.16561
5.14984
5.13278
5.11504
5.09531
5.0734
5.04805
5.01916
4.98604
4.94888
4.90717
4.86114
4.8102
4.75395
4.69175
4.62267
4.54632
4.46023
4.36633
4.25631
4.14437
4.01265
3.87534
3.72878
3.56662
3.40325
1.40001
1.40001
1.40001
1.40001
1.40001
1.40001
1.40001
1.40001
1.40001
1.40001
1.40001
1.40001
1.40001
1.40001
1.40001
1.40001
1.40001
1.40001
1.40001
1.40001
1.40001
1.40001
1.40001
1.40001
1.40001
1.40001
1.40001
1.40001
1.40001
1.40001
1.40001
1.40001
1.40001
1.40001
1.40001
1.40001
1.40001
1.40001
1.40001
1.40001
1.40001
1.40001
1.40001
1.40001
1.40001
1.40001
1.40001
1.40001
1.40001
1.40001
1.40001
1.40001
1.40001
1.40001
1.4
1.56458
4.16524
5.24571
5.2298
5.22615
5.22469
5.22129
5.21672
5.21141
5.2055
5.19831
5.18906
5.17728
5.16296
5.14697
5.1296
5.11056
5.09019
5.06924
5.04664
5.02276
4.99595
4.96595
4.93182
4.89363
4.8509
4.80395
4.75228
4.69564
4.63371
4.56526
4.49114
4.40725
4.317
4.21396
4.10995
3.99008
3.86771
3.73658
3.59661
3.45286
1.40001
1.40001
1.40001
1.40001
1.40001
1.40001
1.40001
1.40001
1.40001
1.40001
1.40001
1.40001
1.40001
1.40001
1.40001
1.40001
1.40001
1.40001
1.40001
1.40001
1.40001
1.40001
1.40001
1.40001
1.40001
1.40001
1.40001
1.40001
1.40001
1.40001
1.40001
1.40001
1.40001
1.40001
1.40001
1.40001
1.40001
1.40001
1.40001
1.40001
1.40001
1.40001
1.40001
1.40001
1.40001
1.40001
1.40001
1.40001
1.40001
1.40001
1.40001
1.40001
1.40001
1.40001
1.4
1.40131
2.42243
4.90547
5.20387
5.19668
5.19815
5.1962
5.19101
5.18402
5.17608
5.16741
5.15724
5.14544
5.13082
5.11409
5.09502
5.07308
5.04955
5.02529
4.99965
4.97335
4.94483
4.91368
4.87845
4.83937
4.79604
4.74882
4.69721
4.64116
4.58079
4.51411
4.44358
4.36276
4.27722
4.18267
4.08572
3.97545
3.86499
3.74539
3.62222
3.49316
1.40001
1.40001
1.40001
1.40001
1.40001
1.40001
1.40001
1.40001
1.40001
1.40001
1.40001
1.40001
1.40001
1.40001
1.40001
1.40001
1.40001
1.40001
1.40001
1.40001
1.40001
1.40001
1.40001
1.40001
1.40001
1.40001
1.40001
1.40001
1.40001
1.40001
1.40001
1.40001
1.40001
1.40001
1.40001
1.40001
1.40001
1.40001
1.40001
1.40001
1.40001
1.40001
1.40001
1.40001
1.40001
1.40001
1.40001
1.40001
1.40001
1.40001
1.40001
1.40001
1.40001
1.40001
1.40001
1.40001
1.46663
3.48887
5.11091
5.19561
5.1942
5.19018
5.18247
5.17274
5.16173
5.14983
5.13697
5.12345
5.10738
5.08928
5.0686
5.04507
5.01943
4.99228
4.96354
4.93417
4.90321
4.87003
4.83345
4.79327
4.74922
4.70155
4.64992
4.59424
4.53533
4.46992
4.40209
4.32578
4.24567
4.15896
4.06912
3.96735
3.86692
3.75652
3.64641
3.52907
1.40001
1.40001
1.40001
1.40001
1.40001
1.40001
1.40001
1.40001
1.40001
1.40001
1.40001
1.40001
1.40001
1.40001
1.40001
1.40001
1.40001
1.40001
1.40001
1.40001
1.40001
1.40001
1.40001
1.40001
1.40001
1.40001
1.40001
1.40001
1.40001
1.40001
1.40001
1.40001
1.40001
1.40001
1.40001
1.40001
1.40001
1.40001
1.40001
1.40001
1.40001
1.40001
1.40001
1.40001
1.40001
1.40001
1.40001
1.40001
1.40001
1.40001
1.40001
1.40001
1.40001
1.40001
1.40001
1.40001
1.40021
1.69111
4.39169
5.21886
5.19886
5.18287
5.16796
5.15529
5.1413
5.12624
5.11085
5.09528
5.07762
5.05869
5.03736
5.0137
4.98757
4.95922
4.9288
4.89746
4.86449
4.82935
4.79154
4.75019
4.70676
4.65857
4.60821
4.55248
4.49386
4.43014
4.36467
4.2942
4.21922
4.13944
4.05624
3.96322
3.87122
3.76898
3.6694
3.56167
1.40001
1.40001
1.40001
1.40001
1.40001
1.40001
1.40001
1.40001
1.40001
1.40001
1.40001
1.40001
1.40001
1.40001
1.40001
1.40001
1.40001
1.40001
1.40001
1.40001
1.40001
1.40001
1.40001
1.40001
1.40001
1.40001
1.40001
1.40001
1.40001
1.40001
1.40001
1.40001
1.40001
1.40001
1.40001
1.40001
1.40001
1.40001
1.40001
1.40001
1.40001
1.40001
1.40001
1.40001
1.40001
1.40001
1.40001
1.40001
1.40001
1.40001
1.40001
1.40001
1.40001
1.40001
1.40001
1.40001
1.40001
1.40454
2.60074
4.93668
5.14942
5.13419
5.1306
5.123
5.11187
5.09835
5.08322
5.06719
5.0493
5.03031
5.00887
4.98559
4.95969
4.93122
4.90056
4.86826
4.83379
4.79706
4.75784
4.71567
4.67166
4.62384
4.57319
4.51761
4.45938
4.39776
4.33411
4.26823
4.19714
4.12313
4.04523
3.96096
3.87584
3.78256
3.69121
3.59245
1.40001
1.40001
1.40001
1.40001
1.40001
1.40001
1.40001
1.40001
1.40001
1.40001
1.40001
1.40001
1.40001
1.40001
1.40001
1.40001
1.40001
1.40001
1.40001
1.40001
1.40001
1.40001
1.40001
1.40001
1.40001
1.40001
1.40001
1.40001
1.40001
1.40001
1.40001
1.40001
1.40001
1.40001
1.40001
1.40001
1.40001
1.40001
1.40001
1.40001
1.40001
1.40001
1.40001
1.40001
1.40001
1.40001
1.40001
1.40001
1.40001
1.40001
1.40001
1.40001
1.40001
1.40001
1.40001
1.40001
1.40001
1.40001
1.48829
3.40367
5.05148
5.10844
5.10889
5.10902
5.10083
5.08868
5.07207
5.05284
5.03176
5.01011
4.98646
4.9617
4.93488
4.90582
4.87493
4.84251
4.80724
4.77007
4.72982
4.68705
4.64196
4.59407
4.5436
4.48892
4.43183
4.37236
4.31041
4.24756
4.1798
4.11046
4.03658
3.9596
3.8796
3.79516
3.71019
3.62015
1.40001
1.40001
1.40001
1.40001
1.40001
1.40001
1.40001
1.40001
1.40001
1.40001
1.40001
1.40001
1.40001
1.40001
1.40001
1.40001
1.40001
1.40001
1.40001
1.40001
1.40001
1.40001
1.40001
1.40001
1.40001
1.40001
1.40001
1.40001
1.40001
1.40001
1.40001
1.40001
1.40001
1.40001
1.40001
1.40001
1.40001
1.40001
1.40001
1.40001
1.40001
1.40001
1.40001
1.40001
1.40001
1.40001
1.40001
1.40001
1.40001
1.40001
1.40001
1.40001
1.40001
1.40001
1.40001
1.40001
1.40001
1.40001
1.40045
1.65921
3.97097
5.08813
5.11486
5.09954
5.08843
5.07571
5.05756
5.03699
5.01432
4.99077
4.96533
4.93895
4.91113
4.88182
4.85048
4.81801
4.78319
4.74576
4.70594
4.66367
4.61864
4.5707
4.52039
4.46669
4.41085
4.35311
4.29306
4.23215
4.16742
4.1014
4.03091
3.9593
3.88335
3.80641
3.72676
3.64459
1.40001
1.40001
1.40001
1.40001
1.40001
1.40001
1.40001
1.40001
1.40001
1.40001
1.40001
1.40001
1.40001
1.40001
1.40001
1.40001
1.40001
1.40001
1.40001
1.40001
1.40001
1.40001
1.40001
1.40001
1.40001
1.40001
1.40001
1.40001
1.40001
1.40001
1.40001
1.40001
1.40001
1.40001
1.40001
1.40001
1.40001
1.40001
1.40001
1.40001
1.40001
1.40001
1.40001
1.40001
1.40001
1.40001
1.40001
1.40001
1.40001
1.40001
1.40001
1.40001
1.40001
1.40001
1.40001
1.40001
1.40001
1.40001
1.40001
1.40359
1.91397
4.59011
5.15889
5.12029
5.08849
5.06104
5.03589
5.01256
4.98953
4.96629
4.94144
4.91543
4.88793
4.85894
4.82802
4.79605
4.76218
4.72562
4.68695
4.64551
4.60057
4.55327
4.50361
4.45096
4.39648
4.34018
4.28205
4.22234
4.16035
4.09644
4.02896
3.96071
3.88855
3.817
3.74186
3.66588
1.40001
1.40001
1.40001
1.40001
1.40001
1.40001
1.40001
1.40001
1.40001
1.40001
1.40001
1.40001
1.40001
1.40001
1.40001
1.40001
1.40001
1.40001
1.40001
1.40001
1.40001
1.40001
1.40001
1.40001
1.40001
1.40001
1.40001
1.40001
1.40001
1.40001
1.40001
1.40001
1.40001
1.40001
1.40001
1.40001
1.40001
1.40001
1.40001
1.40001
1.40001
1.40001
1.40001
1.40001
1.40001
1.40001
1.40001
1.40001
1.40001
1.40001
1.40001
1.40001
1.40001
1.40001
1.40001
1.40001
1.40001
1.40001
1.40001
1.40001
1.41461
2.68092
4.90923
5.07636
5.04776
5.02553
5.00456
4.98494
4.96442
4.94304
4.91956
4.89404
4.86671
4.83784
4.80727
4.77542
4.74207
4.70617
4.66806
4.62747
4.58412
4.53811
4.48987
4.43883
4.38615
4.3316
4.27533
4.21695
4.15717
4.09421
4.02938
3.96355
3.89501
3.82731
3.75658
3.68528
1.40001
1.40001
1.40001
1.40001
1.40001
1.40001
1.40001
1.40001
1.40001
1.40001
1.40001
1.40001
1.40001
1.40001
1.40001
1.40001
1.40001
1.40001
1.40001
1.40001
1.40001
1.40001
1.40001
1.40001
1.40001
1.40001
1.40001
1.40001
1.40001
1.40001
1.40001
1.40001
1.40001
1.40001
1.40001
1.40001
1.40001
1.40001
1.40001
1.40001
1.40001
1.40001
1.40001
1.40001
1.40001
1.40001
1.40001
1.40001
1.40001
1.40001
1.40001
1.40001
1.40001
1.40001
1.40001
1.40001
1.40001
1.40001
1.40001
1.40001
1.40003
1.49472
3.21539
4.96024
5.01647
4.99738
4.98974
4.9763
4.95876
4.93765
4.91432
4.88779
4.85916
4.82886
4.7969
4.76384
4.72943
4.693
4.65477
4.6145
4.57202
4.52739
4.48042
4.4311
4.38003
4.32728
4.27262
4.2159
4.15723
4.09499
4.03264
3.9691
3.90398
3.83902
3.77215
3.70372
1.40001
1.40001
1.40001
1.40001
1.40001
1.40001
1.40001
1.40001
1.40001
1.40001
1.40001
1.40001
1.40001
1.40001
1.40001
1.40001
1.40001
1.40001
1.40001
1.40001
1.40001
1.40001
1.40001
1.40001
1.40001
1.40001
1.40001
1.40001
1.40001
1.40001
1.40001
1.40001
1.40001
1.40001
1.40001
1.40001
1.40001
1.40001
1.40001
1.40001
1.40001
1.40001
1.40001
1.40001
1.40001
1.40001
1.40001
1.40001
1.40001
1.40001
1.40001
1.40001
1.40001
1.40001
1.40001
1.40001
1.40001
1.40001
1.40001
1.40001
1.40001
1.40059
1.60323
3.54953
4.95767
4.98127
4.97344
4.96424
4.94815
4.92862
4.90579
4.87992
4.85151
4.82109
4.78875
4.75501
4.71963
4.68246
4.64359
4.60297
4.56068
4.51677
4.47107
4.42357
4.37436
4.32359
4.27075
4.21587
4.15854
4.0986
4.03896
3.97756
3.91502
3.8524
3.78872
3.72291
1.40001
1.40001
1.40001
1.40001
1.40001
1.40001
1.40001
1.40001
1.40001
1.40001
1.40001
1.40001
1.40001
1.40001
1.40001
1.40001
1.40001
1.40001
1.40001
1.40001
1.40001
1.40001
1.40001
1.40001
1.40001
1.40001
1.40001
1.40001
1.40001
1.40001
1.40001
1.40001
1.40001
1.40001
1.40001
1.40001
1.40001
1.40001
1.40001
1.40001
1.40001
1.40001
1.40001
1.40001
1.40001
1.40001
1.40001
1.40001
1.40001
1.40001
1.40001
1.40001
1.40001
1.40001
1.40001
1.40001
1.40001
1.40001
1.40001
1.40001
1.40001
1.40001
1.40233
1.70898
3.79981
4.97466
4.97374
4.95876
4.93983
4.91853
4.89512
4.86997
4.84283
4.81346
4.78205
4.74884
4.71369
4.67658
4.63748
4.59655
4.55413
4.51037
4.46537
4.41912
4.37143
4.32214
4.27064
4.21711
4.16178
4.10474
4.04745
3.98841
3.92814
3.86775
3.80663
3.74356
1.40001
1.40001
1.40001
1.40001
1.40001
1.40001
1.40001
1.40001
1.40001
1.40001
1.40001
1.40001
1.40001
1.40001
1.40001
1.40001
1.40001
1.40001
1.40001
1.40001
1.40001
1.40001
1.40001
1.40001
1.40001
1.40001
1.40001
1.40001
1.40001
1.40001
1.40001
1.40001
1.40001
1.40001
1.40001
1.40001
1.40001
1.40001
1.40001
1.40001
1.40001
1.40001
1.40001
1.40001
1.40001
1.40001
1.40001
1.40001
1.40001
1.40001
1.40001
1.40001
1.40001
1.40001
1.40001
1.40001
1.40001
1.40001
1.40001
1.40001
1.40001
1.40001
1.40001
1.40524
1.81073
4.01269
4.97837
4.96517
4.94022
4.9142
4.88722
4.86066
4.83265
4.80327
4.77249
4.74036
4.70648
4.67032
4.63199
4.59171
4.54982
4.50653
4.46206
4.41645
4.36948
4.32094
4.27059
4.21869
4.16557
4.11139
4.05635
3.99976
3.94179
3.88343
3.82475
3.76464
1.40001
1.40001
1.40001
1.40001
1.40001
1.40001
1.40001
1.40001
1.40001
1.40001
1.40001
1.40001
1.40001
1.40001
1.40001
1.40001
1.40001
1.40001
1.40001
1.40001
1.40001
1.40001
1.40001
1.40001
1.40001
1.40001
1.40001
1.40001
1.40001
1.40001
1.40001
1.40001
1.40001
1.40001
1.40001
1.40001
1.40001
1.40001
1.40001
1.40001
1.40001
1.40001
1.40001
1.40001
1.40001
1.40001
1.40001
1.40001
1.40001
1.40001
1.40001
1.40001
1.40001
1.40001
1.40001
1.40001
1.40001
1.40001
1.40001
1.40001
1.40001
1.40001
1.40001
1.40002
1.40913
1.91249
4.16884
4.97648
4.95535
4.92284
4.89224
4.86158
4.82986
4.79795
4.76604
4.73343
4.69956
4.66394
4.62666
4.58767
4.54704
4.50481
4.46115
4.41616
4.36966
4.32158
4.27229
4.22209
4.17083
4.11873
4.06559
4.01127
3.95578
3.89952
3.84333
3.78623
1.40001
1.40001
1.40001
1.40001
1.40001
1.40001
1.40001
1.40001
1.40001
1.40001
1.40001
1.40001
1.40001
1.40001
1.40001
1.40001
1.40001
1.40001
1.40001
1.40001
1.40001
1.40001
1.40001
1.40001
1.40001
1.40001
1.40001
1.40001
1.40001
1.40001
1.40001
1.40001
1.40001
1.40001
1.40001
1.40001
1.40001
1.40001