/*--------------------------------*- C++ -*----------------------------------*\
  =========                 |
  \\      /  F ield         | OpenFOAM: The Open Source CFD Toolbox
   \\    /   O peration     | Website:  https://openfoam.org
    \\  /    A nd           | Version:  7
     \\/     M anipulation  |
\*---------------------------------------------------------------------------*/
FoamFile
{
    version     2.0;
    format      ascii;
    class       volScalarField;
    location    "3.4";
    object      T;
}
// * * * * * * * * * * * * * * * * * * * * * * * * * * * * * * * * * * * * * //

dimensions      [0 0 0 1 0 0 0];

internalField   nonuniform List<scalar> 
19968
(
1
1
1
1
1
1
1
1
1
1
1
1
1
1
1
1
1
1
1
1
1
1
1
1
1
1
1
1
1
1
1
1
1
1
1
1
1
1
1
1
1
1
1
1
1
1
1
1
1.1034
2.35244
2.68981
2.69262
2.69631
2.69997
2.70336
2.70679
2.71094
2.71621
2.72222
2.72815
2.73337
2.73748
2.74038
2.74231
2.74384
2.74567
2.74834
2.75214
2.75686
2.7618
2.76612
2.76915
2.77083
2.7718
2.7728
2.77436
2.77673
2.77983
2.78321
2.78633
2.78893
2.79111
2.7931
2.79507
2.79702
2.7989
2.80063
2.80217
2.80352
2.80476
2.80607
2.80758
2.80932
2.81102
2.81227
2.81299
1
1
1
1
1
1
1
1
1
1
1
1
1
1
1
1
1
1
1
1
1
1
1
1
1
1
1
1
1
1
1
1
1
1
1
1
1
1
1
1
1
1
1
1
1
1
1
1
1.08993
2.34145
2.69076
2.69447
2.69728
2.70034
2.70337
2.70682
2.71115
2.7165
2.7224
2.72813
2.73318
2.73724
2.74014
2.74208
2.74361
2.74543
2.7481
2.75188
2.75658
2.7615
2.7658
2.76882
2.77052
2.77152
2.77257
2.77417
2.77659
2.77971
2.78308
2.78614
2.78867
2.79076
2.79268
2.79461
2.79656
2.79845
2.8002
2.80174
2.8031
2.80434
2.80563
2.80714
2.80888
2.81057
2.81182
2.81253
1
1
1
1
1
1
1
1
1
1
1
1
1
1
1
1
1
1
1
1
1
1
1
1
1
1
1
1
1
1
1
1
1
1
1
1
1
1
1
1
1
1
1
1
1
1
1
1
1.04413
2.31992
2.69355
2.6949
2.69726
2.7
2.70312
2.70692
2.71149
2.7168
2.72246
2.72795
2.73281
2.73676
2.73962
2.74153
2.74303
2.74483
2.74749
2.75126
2.75599
2.76093
2.76526
2.76829
2.77003
2.77107
2.77216
2.77383
2.77631
2.77949
2.78286
2.78587
2.7883
2.79028
2.7921
2.79394
2.79586
2.79775
2.79951
2.80105
2.80238
2.80359
2.80486
2.80634
2.80806
2.80974
2.81099
2.81169
1
1
1
1
1
1
1
1
1
1
1
1
1
1
1
1
1
1
1
1
1
1
1
1
1
1
1
1
1
1
1
1
1
1
1
1
1
1
1
1
1
1
1
1
1
1
1
1
1.00123
2.28172
2.69198
2.69438
2.6968
2.69976
2.70324
2.70742
2.7122
2.71742
2.72285
2.7281
2.73275
2.7365
2.73921
2.74102
2.7424
2.74408
2.74666
2.75037
2.75511
2.76011
2.76449
2.76756
2.76932
2.77037
2.77148
2.77317
2.77572
2.77895
2.78232
2.78527
2.78759
2.78943
2.79111
2.79288
2.79478
2.79669
2.79847
2.80002
2.80133
2.8025
2.80372
2.80515
2.80682
2.80846
2.80967
2.81034
1
1
1
1
1
1
1
1
1
1
1
1
1
1
1
1
1
1
1
1
1
1
1
1
1
1
1
1
1
1
1
1
1
1
1
1
1
1
1
1
1
1
1
1
1
1
1
1
1.00001
2.22668
2.68923
2.6925
2.69479
2.69813
2.70203
2.70651
2.71139
2.71661
2.72202
2.72729
2.73196
2.73569
2.73837
2.7401
2.74133
2.74281
2.74519
2.74875
2.75349
2.75862
2.76316
2.7664
2.76824
2.76933
2.77043
2.77212
2.77468
2.77795
2.78133
2.78424
2.78643
2.78812
2.78965
2.79132
2.79319
2.79513
2.79693
2.79849
2.7998
2.80096
2.80217
2.8036
2.80527
2.80691
2.80812
2.80878
1
1
1
1
1
1
1
1
1
1
1
1
1
1
1
1
1
1
1
1
1
1
1
1
1
1
1
1
1
1
1
1
1
1
1
1
1
1
1
1
1
1
1
1
1
1
1
1
1
2.14947
2.68448
2.69061
2.69259
2.69608
2.70031
2.70511
2.71018
2.71546
2.7209
2.72625
2.73102
2.73482
2.73751
2.7392
2.74024
2.74143
2.7435
2.74681
2.75148
2.75677
2.76157
2.7651
2.76707
2.76818
2.76917
2.77072
2.77317
2.77638
2.77975
2.78262
2.78474
2.7863
2.78771
2.78928
2.7911
2.79303
2.79482
2.79633
2.79759
2.7987
2.79987
2.80127
2.80292
2.80454
2.80573
2.80638
1
1
1
1
1
1
1
1
1
1
1
1
1
1
1
1
1
1
1
1
1
1
1
1
1
1
1
1
1
1
1
1
1
1
1
1
1
1
1
1
1
1
1
1
1
1
1
1
1
2.04283
2.67305
2.68934
2.68994
2.6928
2.69685
2.7018
2.70714
2.71267
2.71827
2.72382
2.72886
2.73294
2.73586
2.73766
2.73864
2.73953
2.74122
2.74414
2.74858
2.75398
2.7591
2.76307
2.76528
2.76647
2.76736
2.76871
2.77096
2.77407
2.77744
2.78034
2.78244
2.78393
2.78525
2.78674
2.78852
2.79042
2.79219
2.79365
2.79484
2.7959
2.79702
2.7984
2.80002
2.80163
2.8028
2.80345
1
1
1
1
1
1
1
1
1
1
1
1
1
1
1
1
1
1
1
1
1
1
1
1
1
1
1
1
1
1
1
1
1
1
1
1
1
1
1
1
1
1
1
1
1
1
1
1
1
1.89759
2.64785
2.68737
2.68649
2.68857
2.69206
2.69682
2.70222
2.70788
2.71366
2.71951
2.72503
2.72965
2.73305
2.73521
2.73633
2.73705
2.73836
2.74081
2.74483
2.75013
2.75553
2.76003
2.76263
2.76398
2.76476
2.76587
2.76781
2.77075
2.77411
2.77711
2.77931
2.78084
2.78213
2.78357
2.78532
2.78721
2.78895
2.79035
2.79143
2.79238
2.79341
2.79471
2.79626
2.79781
2.79893
2.79955
1
1
1
1
1
1
1
1
1
1
1
1
1
1
1
1
1
1
1
1
1
1
1
1
1
1
1
1
1
1
1
1
1
1
1
1
1
1
1
1
1
1
1
1
1
1
1
1
1
1.70747
2.60175
2.68395
2.68339
2.68582
2.68892
2.69287
2.69738
2.70241
2.70806
2.71411
2.72009
2.72534
2.72938
2.73211
2.73362
2.73441
2.73547
2.73745
2.74084
2.74575
2.75117
2.75606
2.75913
2.76071
2.76139
2.76221
2.76374
2.76633
2.76956
2.77261
2.77491
2.77646
2.7777
2.77906
2.78074
2.78262
2.78438
2.78579
2.78684
2.78774
2.78875
2.79005
2.79161
2.79317
2.7943
2.79491
1
1
1
1
1
1
1
1
1
1
1
1
1
1
1
1
1
1
1
1
1
1
1
1
1
1
1
1
1
1
1
1
1
1
1
1
1
1
1
1
1
1
1
1
1
1
1
1
1
1.4493
2.5135
2.67782
2.67933
2.68345
2.68644
2.6898
2.69347
2.69773
2.70286
2.7086
2.71452
2.72004
2.72464
2.72811
2.73039
2.73165
2.73265
2.73421
2.73683
2.741
2.74612
2.75116
2.75483
2.75687
2.75768
2.75829
2.75942
2.76157
2.76457
2.76763
2.77003
2.77161
2.77275
2.77395
2.77547
2.77725
2.77897
2.78032
2.78124
2.78197
2.78279
2.78393
2.78535
2.7868
2.78787
2.78843
1
1
1
1
1
1
1
1
1
1
1
1
1
1
1
1
1
1
1
1
1
1
1
1
1
1
1
1
1
1
1
1
1
1
1
1
1
1
1
1
1
1
1
1
1
1
1
1
1
1.1244
2.37067
2.68101
2.6819
2.68574
2.68871
2.69156
2.69453
2.69778
2.70137
2.70553
2.71024
2.71518
2.71982
2.72375
2.72674
2.72854
2.72951
2.7306
2.73228
2.73522
2.73948
2.74423
2.74841
2.75104
2.75221
2.75273
2.7535
2.75516
2.7578
2.7608
2.76333
2.76498
2.76602
2.76698
2.76823
2.76982
2.77147
2.77281
2.77374
2.77445
2.77525
2.77631
2.77765
2.77911
2.78019
2.78073
1
1
1
1
1
1
1
1
1
1
1
1
1
1
1
1
1
1
1
1
1
1
1
1
1
1
1
1
1
1
1
1
1
1
1
1
1
1
1
1
1
1
1
1
1
1
1
1
1
1.00151
2.16214
2.6738
2.67507
2.67656
2.67977
2.68313
2.68675
2.69031
2.6937
2.69728
2.70132
2.70582
2.71054
2.71508
2.719
2.72189
2.72351
2.7245
2.72562
2.72752
2.73078
2.73507
2.7395
2.74278
2.74459
2.74532
2.74591
2.7471
2.74928
2.7521
2.75472
2.75653
2.75759
2.7584
2.75943
2.76084
2.76243
2.76374
2.76458
2.76511
2.7655
2.76592
2.76679
2.76792
2.76876
2.76912
1
1
1
1
1
1
1
1
1
1
1
1
1
1
1
1
1
1
1
1
1
1
1
1
1
1
1
1
1
1
1
1
1
1
1
1
1
1
1
1
1
1
1
1
1
1
1
1
1
1
1.82816
2.61512
2.66958
2.67117
2.67407
2.67703
2.68049
2.68396
2.68737
2.69081
2.69448
2.69851
2.70291
2.70746
2.71174
2.7153
2.71761
2.71876
2.71957
2.72066
2.72279
2.72617
2.73021
2.73375
2.73604
2.73704
2.73747
2.73815
2.73963
2.74192
2.74434
2.74614
2.74705
2.74746
2.74791
2.74871
2.74972
2.75055
2.75103
2.75125
2.75138
2.75173
2.75245
2.7534
2.75398
2.75416
1
1
1
1
1
1
1
1
1
1
1
1
1
1
1
1
1
1
1
1
1
1
1
1
1
1
1
1
1
1
1
1
1
1
1
1
1
1
1
1
1
1
1
1
1
1
1
1
1
1
1.30576
2.4305
2.65431
2.65866
2.66368
2.66665
2.67011
2.67383
2.67767
2.68146
2.68524
2.68914
2.69329
2.69768
2.70204
2.70597
2.70895
2.71065
2.71157
2.71235
2.71366
2.71606
2.71937
2.72277
2.72529
2.72657
2.72694
2.72716
2.7279
2.72944
2.73132
2.73287
2.73364
2.73376
2.73377
2.73389
2.73432
2.73486
2.73515
2.7351
2.73471
2.73407
2.733
2.73145
2.72939
2.72731
1
1
1
1
1
1
1
1
1
1
1
1
1
1
1
1
1
1
1
1
1
1
1
1
1
1
1
1
1
1
1
1
1
1
1
1
1
1
1
1
1
1
1
1
1
1
1
1
1
1
1.00702
2.10706
2.64574
2.64596
2.64684
2.65041
2.65476
2.65953
2.66429
2.66875
2.67287
2.67681
2.6808
2.68493
2.68913
2.69312
2.69653
2.69899
2.70049
2.70152
2.70259
2.70426
2.70677
2.70966
2.71215
2.71363
2.71403
2.71396
2.71404
2.71451
2.71542
2.71632
2.71658
2.71622
2.71533
2.71413
2.71289
2.71158
2.70987
2.70748
2.70443
2.70107
2.69817
2.69539
2.69358
2.69236
1
1
1
1
1
1
1
1
1
1
1
1
1
1
1
1
1
1
1
1
1
1
1
1
1
1
1
1
1
1
1
1
1
1
1
1
1
1
1
1
1
1
1
1
1
1
1
1
1
1
1.00001
1.48353
2.47897
2.62738
2.6309
2.63804
2.64309
2.64795
2.6525
2.65662
2.66032
2.66376
2.66714
2.67064
2.67428
2.67795
2.68141
2.68436
2.68658
2.68815
2.68941
2.69075
2.6925
2.69464
2.69675
2.69816
2.69859
2.69833
2.69773
2.69712
2.69669
2.69632
2.69561
2.69424
2.69205
2.68917
2.68588
2.68236
2.67856
2.67426
2.66925
2.66393
2.65922
2.65815
2.65604
2.67032
1
1
1
1
1
1
1
1
1
1
1
1
1
1
1
1
1
1
1
1
1
1
1
1
1
1
1
1
1
1
1
1
1
1
1
1
1
1
1
1
1
1
1
1
1
1
1
1
1
1
1
1.02069
2.19941
2.63618
2.6344
2.63538
2.63782
2.64082
2.64406
2.64716
2.64998
2.65256
2.65507
2.65767
2.66048
2.6635
2.66659
2.66953
2.67207
2.67411
2.67573
2.67688
2.67808
2.67957
2.68116
2.68231
2.68269
2.68233
2.6814
2.67999
2.67834
2.67657
2.67451
2.67181
2.66812
2.66332
2.65742
2.6505
2.64216
2.63184
2.61763
2.59815
2.56937
2.52835
2.46542
2.33596
1
1
1
1
1
1
1
1
1
1
1
1
1
1
1
1
1
1
1
1
1
1
1
1
1
1
1
1
1
1
1
1
1
1
1
1
1
1
1
1
1
1
1
1
1
1
1
1
1
1
1
1.00001
1.73085
2.54721
2.62557
2.62841
2.63241
2.63529
2.638
2.64055
2.64282
2.64477
2.64652
2.64824
2.65012
2.65226
2.65467
2.65722
2.65964
2.66173
2.66334
2.66444
2.66528
2.6662
2.66717
2.66791
2.66807
2.66769
2.66661
2.66473
2.66217
2.65913
2.65564
2.65146
2.64616
2.63946
2.63091
2.62056
2.60745
2.59143
2.56956
2.54076
2.49812
2.44058
2.33243
2.16702
1
1
1
1
1
1
1
1
1
1
1
1
1
1
1
1
1
1
1
1
1
1
1
1
1
1
1
1
1
1
1
1
1
1
1
1
1
1
1
1
1
1
1
1
1
1
1
1
1
1
1
0.999998
1.07307
2.32461
2.62818
2.62538
2.62689
2.6298
2.6323
2.6345
2.63635
2.6378
2.63888
2.63976
2.6407
2.64191
2.64349
2.64527
2.64705
2.64868
2.64999
2.65088
2.65137
2.65166
2.65188
2.65199
2.65183
2.65127
2.64998
2.64777
2.64457
2.64055
2.63569
2.63003
2.62305
2.61454
2.60359
2.59017
2.57314
2.55225
2.52538
2.48983
2.4418
2.37211
2.26608
2.14318
1
1
1
1
1
1
1
1
1
1
1
1
1
1
1
1
1
1
1
1
1
1
1
1
1
1
1
1
1
1
1
1
1
1
1
1
1
1
1
1
1
1
1
1
1
1
1
1
1
1
1
1
1.00036
1.91862
2.56556
2.60591
2.61319
2.61808
2.62146
2.62433
2.62681
2.62874
2.63005
2.63089
2.63153
2.63225
2.6332
2.63414
2.6352
2.63619
2.63698
2.63737
2.6373
2.63693
2.63637
2.63569
2.63488
2.63378
2.63209
2.62957
2.62593
2.62123
2.6153
2.60833
2.59985
2.58969
2.57697
2.56125
2.54172
2.51759
2.48784
2.44937
2.3999
2.33461
2.24795
2.15242
1
1
1
1
1
1
1
1
1
1
1
1
1
1
1
1
1
1
1
1
1
1
1
1
1
1
1
1
1
1
1
1
1
1
1
1
1
1
1
1
1
1
1
1
1
1
1
1
1
1
1
1
1
1.21538
2.35982
2.59933
2.59846
2.60206
2.60664
2.61071
2.61437
2.61732
2.61951
2.62099
2.62201
2.62287
2.62342
2.62397
2.62448
2.62478
2.62476
2.6245
2.62383
2.62274
2.62131
2.61971
2.61796
2.61603
2.61366
2.61064
2.60655
2.60133
2.59469
2.58676
2.57721
2.56584
2.55203
2.53509
2.51441
2.48904
2.45866
2.42018
2.37327
2.3176
2.25078
2.17302
1
1
1
1
1
1
1
1
1
1
1
1
1
1
1
1
1
1
1
1
1
1
1
1
1
1
1
1
1
1
1
1
1
1
1
1
1
1
1
1
1
1
1
1
1
1
1
1
1
1
1
1
1
1.00347
1.95894
2.55876
2.57986
2.58487
2.59074
2.59551
2.59967
2.60326
2.60629
2.60873
2.61061
2.61196
2.61287
2.6134
2.61358
2.61341
2.61291
2.61206
2.61077
2.60898
2.60672
2.60416
2.60134
2.59836
2.59502
2.59122
2.58653
2.5808
2.57371
2.56518
2.55501
2.54298
2.52868
2.51146
2.49083
2.46572
2.43674
2.40042
2.35826
2.31119
2.25601
2.19508
1
1
1
1
1
1
1
1
1
1
1
1
1
1
1
1
1
1
1
1
1
1
1
1
1
1
1
1
1
1
1
1
1
1
1
1
1
1
1
1
1
1
1
1
1
1
1
1
1
1
1
1
1
1
1.19233
2.34543
2.58112
2.57831
2.58029
2.58328
2.58619
2.5891
2.59196
2.59465
2.59702
2.59889
2.60029
2.6012
2.60159
2.60145
2.60091
2.59986
2.5982
2.59599
2.59319
2.58992
2.58621
2.58222
2.57786
2.57311
2.56762
2.56123
2.55361
2.5446
2.53402
2.52168
2.50731
2.49031
2.47058
2.44642
2.41986
2.38677
2.35019
2.30962
2.26249
2.21355
1
1
1
1
1
1
1
1
1
1
1
1
1
1
1
1
1
1
1
1
1
1
1
1
1
1
1
1
1
1
1
1
1
1
1
1
1
1
1
1
1
1
1
1
1
1
1
1
1
1
1
1
1
1
1.00261
1.88355
2.52615
2.56081
2.56612
2.56923
2.57192
2.57434
2.57678
2.57928
2.5817
2.58386
2.58566
2.587
2.58785
2.58787
2.5875
2.58656
2.58489
2.58258
2.57953
2.57585
2.57152
2.56672
2.56146
2.55576
2.54942
2.5423
2.53412
2.5247
2.51389
2.50148
2.48737
2.47091
2.45237
2.42965
2.40574
2.37634
2.3446
2.30958
2.26941
2.22793
1
1
1
1
1
1
1
1
1
1
1
1
1
1
1
1
1
1
1
1
1
1
1
1
1
1
1
1
1
1
1
1
1
1
1
1
1
1
1
1
1
1
1
1
1
1
1
1
1
1
1
1
1
1
1
1.11049
2.25992
2.55886
2.55509
2.55647
2.55901
2.56145
2.56367
2.56571
2.56764
2.56935
2.57076
2.57187
2.5727
2.57312
2.57299
2.57235
2.57098
2.56889
2.56593
2.56228
2.55783
2.55271
2.54694
2.54059
2.53354
2.52573
2.51694
2.50702
2.49591
2.48332
2.46949
2.45342
2.43578
2.41491
2.39327
2.3672
2.33961
2.30894
2.27498
2.23906
1
1
1
1
1
1
1
1
1
1
1
1
1
1
1
1
1
1
1
1
1
1
1
1
1
1
1
1
1
1
1
1
1
1
1
1
1
1
1
1
1
1
1
1
1
1
1
1
1
1
1
1
1
1
1
1.0008
1.61282
2.43261
2.52589
2.53604
2.54241
2.54648
2.5491
2.55103
2.55253
2.55372
2.5546
2.55538
2.55605
2.55673
2.55688
2.55643
2.55532
2.5535
2.55083
2.54747
2.54326
2.53829
2.53245
2.5259
2.51854
2.51037
2.50121
2.49098
2.4797
2.46697
2.45342
2.43761
2.42075
2.40174
2.38191
2.3585
2.33429
2.30711
2.27809
2.24669
1
1
1
1
1
1
1
1
1
1
1
1
1
1
1
1
1
1
1
1
1
1
1
1
1
1
1
1
1
1
1
1
1
1
1
1
1
1
1
1
1
1
1
1
1
1
1
1
1
1
1
1
1
1
1
1
1.04033
2.05757
2.51792
2.52823
2.53188
2.53467
2.53669
2.5383
2.53947
2.54021
2.54053
2.5408
2.54095
2.54125
2.54136
2.541
2.54002
2.53833
2.53583
2.53266
2.52871
2.524
2.51845
2.51209
2.50487
2.49675
2.48757
2.47724
2.46596
2.45305
2.43953
2.42411
2.40789
2.39024
2.37182
2.35041
2.32889
2.30445
2.27931
2.25164
1
1
1
1
1
1
1
1
1
1
1
1
1
1
1
1
1
1
1
1
1
1
1
1
1
1
1
1
1
1
1
1
1
1
1
1
1
1
1
1
1
1
1
1
1
1
1
1
1
1
1
1
1
1
1
1
1.00012
1.20025
2.28624
2.52068
2.51959
2.52034
2.52123
2.52256
2.52367
2.52437
2.52468
2.52482
2.52467
2.52469
2.52461
2.52432
2.5235
2.52198
2.51962
2.5166
2.51284
2.50837
2.50322
2.49727
2.49077
2.48306
2.47456
2.4645
2.45337
2.44073
2.42742
2.41283
2.39719
2.3805
2.36309
2.34334
2.32374
2.30138
2.27908
2.25432
1
1
1
1
1
1
1
1
1
1
1
1
1
1
1
1
1
1
1
1
1
1
1
1
1
1
1
1
1
1
1
1
1
1
1
1
1
1
1
1
1
1
1
1
1
1
1
1
1
1
1
1
1
1
1
1
1
1.00272
1.68622
2.42392
2.49776
2.4977
2.50013
2.50277
2.50493
2.50655
2.5076
2.50828
2.5083
2.50837
2.50824
2.50797
2.50726
2.50585
2.50365
2.50071
2.49698
2.49262
2.48769
2.48216
2.4762
2.46926
2.46139
2.45201
2.44151
2.42971
2.41697
2.40335
2.38833
2.37253
2.35581
2.33761
2.3192
2.29873
2.27848
2.2561
1
1
1
1
1
1
1
1
1
1
1
1
1
1
1
1
1
1
1
1
1
1
1
1
1
1
1
1
1
1
1
1
1
1
1
1
1
1
1
1
1
1
1
1
1
1
1
1
1
1
1
1
1
1
1
1
1
1
1.05467
2.00194
2.47802
2.488
2.49057
2.49317
2.49375
2.49445
2.49463
2.4945
2.49412
2.49371
2.49306
2.49235
2.49131
2.48973
2.48752
2.48467
2.48097
2.47675
2.47189
2.46659
2.46087
2.4545
2.44736
2.43893
2.42946
2.41886
2.40712
2.39462
2.38057
2.36584
2.34987
2.33304
2.31543
2.29669
2.27771
2.25734
1
1
1
1
1
1
1
1
1
1
1
1
1
1
1
1
1
1
1
1
1
1
1
1
1
1
1
1
1
1
1
1
1
1
1
1
1
1
1
1
1
1
1
1
1
1
1
1
1
1
1
1
1
1
1
1
1
1
1.00023
1.17432
2.16793
2.47077
2.48564
2.4835
2.48392
2.48379
2.48304
2.48212
2.48104
2.47996
2.47864
2.47726
2.47569
2.4738
2.47138
2.4685
2.46496
2.46077
2.4561
2.45102
2.4455
2.43943
2.43278
2.42518
2.41672
2.40732
2.39683
2.38555
2.37284
2.35935
2.34445
2.32893
2.31219
2.29505
2.27711
2.25845
1
1
1
1
1
1
1
1
1
1
1
1
1
1
1
1
1
1
1
1
1
1
1
1
1
1
1
1
1
1
1
1
1
1
1
1
1
1
1
1
1
1
1
1
1
1
1
1
1
1
1
1
1
1
1
1
1
1
1
1.00205
1.33379
2.28237
2.46895
2.46719
2.46761
2.46753
2.46715
2.46666
2.46601
2.4652
2.464
2.46252
2.46071
2.45857
2.45597
2.45304
2.44962
2.44559
2.44112
2.43618
2.43066
2.42475
2.41838
2.41128
2.40356
2.39509
2.38578
2.3756
2.36437
2.35215
2.33858
2.32439
2.3089
2.29322
2.27641
2.25921
1
1
1
1
1
1
1
1
1
1
1
1
1
1
1
1
1
1
1
1
1
1
1
1
1
1
1
1
1
1
1
1
1
1
1
1
1
1
1
1
1
1
1
1
1
1
1
1
1
1
1
1
1
1
1
1
1
1
1
1
1.00857
1.70047
2.37831
2.4451
2.44231
2.44346
2.44508
2.44676
2.44794
2.44852
2.44819
2.44726
2.44569
2.44359
2.441
2.43803
2.43467
2.43074
2.42636
2.42152
2.41621
2.41045
2.40427
2.39749
2.39025
2.38241
2.37393
2.36465
2.35465
2.34346
2.33129
2.31845
2.30451
2.29031
2.27499
2.25909
1
1
1
1
1
1
1
1
1
1
1
1
1
1
1
1
1
1
1
1
1
1
1
1
1
1
1
1
1
1
1
1
1
1
1
1
1
1
1
1
1
1
1
1
1
1
1
1
1
1
1
1
1
1
1
1
1
1
1
1
1.00001
1.05886
1.90529
2.40543
2.43155
2.42926
2.43071
2.43184
2.4328
2.43341
2.43334
2.43272
2.43145
2.42956
2.42707
2.42416
2.42082
2.41698
2.41272
2.40801
2.40286
2.39728
2.39122
2.38462
2.37759
2.37007
2.36201
2.35328
2.34388
2.33342
2.32263
2.31112
2.29877
2.28596
2.27223
2.25773
1
1
1
1
1
1
1
1
1
1
1
1
1
1
1
1
1
1
1
1
1
1
1
1
1
1
1
1
1
1
1
1
1
1
1
1
1
1
1
1
1
1
1
1
1
1
1
1
1
1
1
1
1
1
1
1
1
1
1
1
1
1.00029
1.13269
2.00582
2.39575
2.42165
2.42145
2.42168
2.4212
2.42067
2.41989
2.4188
2.41731
2.4154
2.413
2.41019
2.40694
2.40324
2.39912
2.39457
2.38962
2.38424
2.37839
2.37205
2.36522
2.35796
2.35016
2.34178
2.33279
2.32308
2.31325
2.30274
2.29161
2.28003
2.26777
2.25462
1
1
1
1
1
1
1
1
1
1
1
1
1
1
1
1
1
1
1
1
1
1
1
1
1
1
1
1
1
1
1
1
1
1
1
1
1
1
1
1
1
1
1
1
1
1
1
1
1
1
1
1
1
1
1
1
1
1
1
1
1
1
1.00124
1.2015
2.06289
2.38122
2.41261
2.412
2.41121
2.41005
2.40859
2.40694
2.405
2.4027
2.40006
2.39712
2.39383
2.39018
2.38614
2.38171
2.3769
2.3717
2.36608
2.36002
2.35346
2.34639
2.33872
2.33057
2.32197
2.3129
2.30367
2.29389
2.28361
2.27299
2.26185
2.24991
1
1
1
1
1
1
1
1
1
1
1
1
1
1
1
1
1
1
1
1
1
1
1
1
1
1
1
1
1
1
1
1
1
1
1
1
1
1
1
1
1
1
1
1
1
1
1
1
1
1
1
1
1
1
1
1
1
1
1
1
1
1
1
1.00286
1.26312
2.10229
2.36774
2.39709
2.39728
2.39709
2.39631
2.39508
2.39318
2.39075
2.38794
2.38488
2.38153
2.37781
2.37374
2.36933
2.3646
2.35951
2.35404
2.34816
2.3418
2.3349
2.32743
2.31954
2.31132
2.30281
2.29404
2.28482
2.27514
2.26517
2.25487
2.24398
1
1
1
1
1
1
1
1
1
1
1
1
1
1
1
1
1
1
1
1
1
1
1
1
1
1
1
1
1
1
1
1
1
1
1
1
1
1
1
1
1
1
1
1
1
1
1
1
1
1
1
1
1
1
1
1
1
1
1
1
1
1
1
1
1.00504
1.32008
2.13009
2.35511
2.3767
2.37956
2.38084
2.3805
2.37946
2.37778
2.37559
2.37291
2.36972
2.36608
2.36208
2.35776
2.3531
2.34806
2.34264
2.3368
2.33052
2.32377
2.31663
2.30914
2.30128
2.29313
2.28467
2.27587
2.2667
2.25722
2.24757
2.23753
1
1
1
1
1
1
1
1
1
1
1
1
1
1
1
1
1
1
1
1
1
1
1
1
1
1
1
1
1
1
1
1
1
1
1
1
1
1
1
1
1
1
1
1
1
1
1
1
1
1
1
1
1
1
1
1
1
1
1
1
1
1
1
1
1.00001
1.00785
1.36831
2.14998
2.33848
2.35703
2.36031
2.36213
2.36262
2.36245
2.36148
2.35953
2.35683
2.35369
2.35013
2.34611
2.34166
2.33675
2.33144
2.32573
2.3196
2.31307
2.30619
2.29898
2.29144
2.28364
2.27554
2.26714
2.25845
2.24943
2.24031
2.23089
1
1
1
1
1
1
1
1
1
1
1
1
1
1
1
1
1
1
1
1
1
1
1
1
1
1
1
1
1
1
1
1
1
1
1
1
1
1
1
1
1
1
1
1
1
1
1
1
1
1
1
1
1
1
1
1
1
1
1
1
1
1
1
1
1
1.00002
1.01099
1.40559
2.15459
2.32521
2.34159
2.34184
2.34284
2.34372
2.34376
2.34312
2.34172
2.33964
2.33691
2.33347
2.32935
2.32478
2.31987
2.31452
2.30873
2.30255
2.29604
2.28921
2.28206
2.27466
2.26696
2.25898
2.25071
2.24214
2.23347
2.22446
1
1
1
1
1
1
1
1
1
1
1
1
1
1
1
1
1
1
1
1
1
1
1
1
1
1
1
1
1
1
1
1
1
1
1
1
1
1
1
1
1
1
1
1
1
1
1
1
1
1
1
1
1
1
1
1
1
1
1
1
1
1
1
1
1
1
1.00003
1.01398
1.42436
2.1555
2.31331
2.32496
2.32454
2.32492
2.32454
2.3241
2.32346
2.3225
2.32091
2.31855
2.31545
2.31174
2.30752
2.30278
2.29753
2.29185
2.28586
2.27956
2.27295
2.26604
2.2588
2.25128
2.24344
2.23536
2.2271
2.21849
1
1
1
1
1
1
1
1
1
1
1
1
1
1
1
1
1
1
1
1
1
1
1
1
1
1
1
1
1
1
1
1
1
1
1
1
1
1
1
1
1
1
1
1
1
1
1
1
1
1
1
1
1
1
1
1
1
1
1
1
1
1
1
1
1
1
1
1.00004
1.01569
1.43242
2.13822
2.30289
2.31234
2.3098
2.30849
2.30699
2.30567
2.30434
2.30285
2.30103
2.29875
2.296
2.2928
2.28914
2.28499
2.28032
2.27518
2.26959
2.26362
2.25729
2.25064
2.2437
2.23641
2.22892
2.22113
2.21297
1
1
1
1
1
1
1
1
1
1
1
1
1
1
1
1
1
1
1
1
1
1
1
1
1
1
1
1
1
1
1
1
1
1
1
1
1
1
1
1
1
1
1
1
1
1
1
1
1
1
1
1
1
1
1
1
1
1
1
1
1
1
1
1
1
1
1
1
1.00004
1.01662
1.41741
2.12167
2.28341
2.29945
2.29582
2.29348
2.29104
2.28857
2.28611
2.28365
2.28115
2.27869
2.27615
2.27336
2.27022
2.26668
2.26267
2.25818
2.25329
2.24794
2.24218
2.23597
2.22932
2.22242
2.21512
2.20747
1
1
1
1
1
1
1
1
1
1
1
1
1
1
1
1
1
1
1
1
1
1
1
1
1
1
1
1
1
1
1
1
1
1
1
1
1
1
1
1
1
1
1
1
1
1
1
1
1
1
1
1
1
1
1
1
1
1
1
1
1
1
1
1
1
1
1
1
1
1.00005
1.0153
1.39563
2.07929
2.27179
2.28613
2.28181
2.27882
2.27561
2.27249
2.26912
2.26588
2.263
2.26026
2.25756
2.25482
2.25194
2.2488
2.24531
2.24144
2.23716
2.23246
2.22719
2.22142
2.21521
2.20854
2.20148
1
1
1
1
1
1
1
1
1
1
1
1
1
1
1
1
1
1
1
1
1
1
1
1
1
1
1
1
1
1
1
1
1
1
1
1
1
1
1
1
1
1
1
1
1
1
1
1
1
1
1
1
1
1
1
1
1
1
1
1
1
1
1
1
1
1
1
1
1
1
1.00004
1.01332
1.35201
2.02313
2.24732
2.27463
2.26887
2.26522
2.26121
2.25724
2.25359
2.25022
2.24702
2.24397
2.241
2.23805
2.235
2.23182
2.22848
2.2249
2.22098
2.21658
2.21164
2.20619
2.20031
2.19403
1
1
1
1
1
1
1
1
1
1
1
1
1
1
1
1
1
1
1
1
1
1
1
1
1
1
1
1
1
1
1
1
1
1
1
1
1
1
1
1
1
1
1
1
1
1
1
1
1
1
1
1
1
1
1
1
1
1
1
1
1
1
1
1
1
1
1
1
1
1
1
1.00004
1.01025
1.29478
1.93533
2.22058
2.25921
2.25373
2.25046
2.24727
2.24405
2.2407
2.23726
2.23378
2.23032
2.22686
2.22336
2.21985
2.21634
2.21272
2.20891
2.20476
2.20022
2.19538
2.19022
2.18474
1
1
1
1
1
1
1
1
1
1
1
1
1
1
1
1
1
1
1
1
1
1
1
1
1
1
1
1
1
1
1
1
1
1
1
1
1
1
1
1
1
1
1
1
1
1
1
1
1
1
1
1
1
1
1
1
1
1
1
1
1
1
1
1
1
1
1
1
1
1
1
1
1.00003
1.00698
1.22263
1.82148
2.18458
2.24071
2.2375
2.23624
2.23428
2.23189
2.22894
2.2256
2.22193
2.21801
2.21396
2.20991
2.20582
2.2017
2.19746
2.19305
2.18855
2.18391
2.17903
2.17409
1
1
1
1
1
1
1
1
1
1
1
1
1
1
1
1
1
1
1
1
1
1
1
1
1
1
1
1
1
1
1
1
1
1
1
1
1
1
1
1
1
1
1
1
1
1
1
1
1
1
1
1
1
1
1
1
1
1
1
1
1
1
1
1
1
1
1
1
1
1
1
1
1
1.00001
1.00402
1.14661
1.70549
2.13947
2.21947
2.22128
2.22057
2.21939
2.21759
2.21515
2.2121
2.20863
2.20485
2.20079
2.19652
2.1921
2.18748
2.18278
2.178
2.1731
2.16829
2.16351
1
1
1
1
1
1
1
1
1
1
1
1
1
1
1
1
1
1
1
1
1
1
1
1
1
1
1
1
1
1
1
1
1
1
1
1
1
1
1
1
1
1
1
1
1
1
1
1
1
1
1
1
1
1
1
1
1
1
1
1
1
1
1
1
1
1
1
1
1
1
1
1
1
1
1.00001
1.00188
1.08878
1.58421
2.08669
2.18927
2.20979
2.20403
2.20336
2.20188
2.19985
2.19733
2.19432
2.1909
2.18715
2.18298
2.17849
2.17378
2.16887
2.16405
2.15919
2.15414
1
1
1
1
1
1
1
1
1
1
1
1
1
1
1
1
1
1
1
1
1
1
1
1
1
1
1
1
1
1
1
1
1
1
1
1
1
1
1
1
1
1
1
1
1
1
1
1
1
1
1
1
1
1
1
1
1
1
1
1
1
1
1
1
1
1
1
1
1
1
1
1
1
1
1
1
1.00079
1.04821
1.46458
1.99649
2.16636
2.19576
2.18975
2.18818
2.18648
2.18446
2.18204
2.17936
2.17623
2.17269
2.16884
2.16468
2.16036
2.15574
2.15081
2.14593
1
1
1
1
1
1
1
1
1
1
1
1
1
1
1
1
1
1
1
1
1
1
1
1
1
1
1
1
1
1
1
1
1
1
1
1
1
1
1
1
1
1
1
1
1
1
1
1
1
1
1
1
1
1
1
1
1
1
1
1
1
1
1
1
1
1
1
1
1
1
1
1
1
1
1
1
1
1.00029
1.02377
1.33545
1.8753
2.13672
2.17889
2.17616
2.17362
2.1713
2.16916
2.16662
2.16398
2.16129
2.15824
2.15488
2.1511
2.14686
2.14271
2.13819
1
1
1
1
1
1
1
1
1
1
1
1
1
1
1
1
1
1
1
1
1
1
1
1
1
1
1
1
1
1
1
1
1
1
1
1
1
1
1
1
1
1
1
1
1
1
1
1
1
1
1
1
1
1
1
1
1
1
1
1
1
1
1
1
1
1
1
1
1
1
1
1
1
1
1
1
1
1
1.0001
1.01038
1.21028
1.72375
2.09281
2.15505
2.16378
2.1587
2.15628
2.15448
2.15239
2.14976
2.14702
2.14405
2.14082
2.13754
2.13371
2.12943
1
1
1
1
1
1
1
1
1
1
1
1
1
1
1
1
1
1
1
1
1
1
1
1
1
1
1
1
1
1
1
1
1
1
1
1
1
1
1
1
1
1
1
1
1
1
1
1
1
1
1
1
1
1
1
1
1
1
1
1
1
1
1
1
1
1
1
1
1
1
1
1
1
1
1
1
1
1
1
1.00003
1.0039
1.10912
1.56746
2.01532
2.1278
2.15141
2.14714
2.14421
2.14136
2.13873
2.1359
2.13281
2.12988
2.1267
2.12301
2.1198
1
1
1
1
1
1
1
1
1
1
1
1
1
1
1
1
1
1
1
1
1
1
1
1
1
1
1
1
1
1
1
1
1
1
1
1
1
1
1
1
1
1
1
1
1
1
1
1
1
1
1
1
1
1
1
1
1
1
1
1
1
1
1
1
1
1
1
1
1
1
1
1
1
1
1
1
1
1
1
1
1.00001
1.0012
1.0481
1.40905
1.89895
2.0967
2.13661
2.13451
2.13059
2.12845
2.12587
2.12252
2.11882
2.11512
2.11219
2.10922
1
1
1
1
1
1
1
1
1
1
1
1
1
1
1
1
1
1
1
1
1
1
1
1
1
1
1
1
1
1
1
1
1
1
1
1
1
1
1
1
1
1
1
1
1
1
1
1
1
1
1
1
1
1
1
1
1
1
1
1
1
1
1
1
1
1
1
1
1
1
1
1
1
1
1
1
1
1
1
1
1
1
1.00031
1.01823
1.25781
1.72937
2.05619
2.11416
2.12382
2.11998
2.11572
2.11249
2.10893
2.10563
2.10263
2.09882
1
1
1
1
1
1
1
1
1
1
1
1
1
1
1
1
1
1
1
1
1
1
1
1
1
1
1
1
1
1
1
1
1
1
1
1
1
1
1
1
1
1
1
1
1
1
1
1
1
1
1
1
1
1
1
1
1
1
1
1
1
1
1
1
1
1
1
1
1
1
1
1
1
1
1
1
1
1
1
1
1
1
1
1.00007
1.00612
1.12431
1.55453
1.97344
2.0815
2.11024
2.10682
2.10266
2.09993
2.09724
2.09437
2.09096
1
1
1
1
1
1
1
1
1
1
1
1
1
1
1
1
1
1
1
1
1
1
1
1
1
1
1
1
1
1
1
1
1
1
1
1
1
1
1
1
1
1
1
1
1
1
1
1
1
1
1
1
1
1
1
1
1
1
1
1
1
1
1
1
1
1
1
1
1
1
1
1
1
1
1
1
1
1
1
1
1
1
1
1
1.00001
1.00159
1.04838
1.38536
1.82293
2.05326
2.09786
2.09666
2.09168
2.08671
2.08373
2.08236
1
1
1
1
1
1
1
1
1
1
1
1
1
1
1
1
1
1
1
1
1
1
1
1
1
1
1
1
1
1
1
1
1
1
1
1
1
1
1
1
1
1
1
1
1
1
1
1
1
1
1
1
1
1
1
1
1
1
1
1
1
1
1
1
1
1
1
1
1
1
1
1
1
1
1
1
1
1
1
1
1
1
1
1
1
1
1.00033
1.01648
1.20933
1.63861
1.98752
2.07902
2.08529
2.0808
2.07275
2.06799
1
1
1
1
1
1
1
1
1
1
1
1
1
1
1
1
1
1
1
1
1
1
1
1
1
1
1
1
1
1
1
1
1
1
1
1
1
1
1
1
1
1
1
1
1
1
1
1
1
1
1
1
1
1
1
1
1
1
1
1
1
1
1
1
1
1
1
1
1
1
1
1
1
1
1
1
1
1
1
1
1
1
1
1
1
1
1
1.00006
1.00434
1.08392
1.46354
1.85583
2.04306
2.07604
2.07357
2.06236
1
1
1
1
1
1
1
1
1
1
1
1
1
1
1
1
1
1
1
1
1
1
1
1
1
1
1
1
1
1
1
1
1
1
1
1
1
1
1
1
1
1
1
1
1
1
1
1
1
1
1
1
1
1
1
1
1
1
1
1
1
1
1
1
1
1
1
1
1
1
1
1
1
1
1
1
1
1
1
1
1
1
1
1
1
1
1
1
1.00001
1.0008
1.03037
1.26581
1.6945
1.98214
2.04549
2.05889
1
1
1
1
1
1
1
1
1
1
1
1
1
1
1
1
1
1
1
1
1
1
1
1
1
1
1
1
1
1
1
1
1
1
1
1
1
1
1
1
1
1
1
1
1
1
1
1
1
1
1
1
1
1
1
1
1
1
1
1
1
1
1
1
1
1
1
1
1
1
1
1
1
1
1
1
1
1
1
1
1
1
1
1
1
1
1
1
1
1
1.00016
1.00746
1.1208
1.48691
1.87515
2.01289
1
1
1
1
1
1
1
1
1
1
1
1
1
1
1
1
1
1
1
1
1
1
1
1
1
1
1
1
1
1
1
1
1
1
1
1
1
1
1
1
1
1
1
1
1
1
1
1
1
1
1
1
1
1
1
1
1
1
1
1
1
1
1
1
1
1
1
1
1
1
1
1
1
1
1
1
1
1
1
1
1
1
1
1
1
1
1
1
1
1
1
1.00002
1.00166
1.03661
1.2962
1.72007
1
1
1
1
1
1
1
1
1
1
1
1
1
1
1
1
1
1
1
1
1
1
1
1
1
1
1
1
1
1
1
1
1
1
1
1
1
1
1
1
1
1
1
1
1
1
1
1
1
1
1
1
1
1
1
1
1
1
1
1
1
1
1
1
1
1
1
1
1
1
1
1
1
1
1
1
1
1
1
1
1
1
1
1
1
1
1
1
1
1
1
1
1
1.00022
1.00974
1.13781
1
1
1
1
1
1
1
1
1
1
1
1
1
1
1
1
1
1
1
1
1
1
1
1
1
1
1
1
1
1
1
1
1
1
1
1
1
1
1
1
1
1
1
1
1
1
1
1
1
1
1
1
1
1
1
1
1
1
1
1
1
1
1
1
1
1
1
1
1
1
1
1
1
1
1
1
1
1
1
1
1
1
1
1
1
1
1
1
1
1
1
1
1
1
1.00003
1.00183
1
1
1
1
1
1
1
1
1
1
1
1
1
1
1
1
1
1
1
1
1
1
1
1
1
1
1
1
1
1
1
1
1
1
1
1
1
1
1
1
1
1
1
1
1
1
1
1
1
1
1
1
1
1
1
1
1
1
1
1
1
1
1
1
1
1
1
1
1
1
1
1
1
1
1
1
1
1
1
1
1
1
1
1
1
1
1
1
1
1
1
1
1
1
1
1
1
1
1
1
1
1
1
1
1
1
1
1
1
1
1
1
1
1
1
1
1
1
1
1
1
1
1
1
1
1
1
1
1
1
1
1
1
1
1
1
1
1
1
1
1
1
1
1
1
1
1
1
1
1
1
1
1
1
1
1
1
1
1
1
1
1
1
1
1
1
1
1
1
1
1
1
1
1
1
1
1
1
1
1
1
1
1
1
1
1
1
1
1
1
1
1
1
1
1
1
1
1
1
1
1
1
1
1
1
1
1
1
1
1
1
1
1
1
1
1
1
1
1
1
1
1
1
1
1
1
1
1
1
1
1
1
1
1
1
1
1
1
1
1
1
1
1
1
1
1
1
1
1
1
1
1
1
1
1
1
1
1
1
1
1
1
1
1
1
1
1
1
1
1
1
1
1
1
1
1
1
1
1
1
1
1
1
1
1
1
1
1
1
1
1
1
1
1
1
1
1
1
1
1
1
1
1
1
1
1
1
1
1
1
1
1
1
1
1
1
1
1
1
1
1
1
1
1
1
1
1
1
1
1
1
1
1
1
1
1
1
1
1
1
1
1
1
1
1
1
1
1
1
1
1
1
1
1
1
1
1
1
1
1
1
1
1
1
1
1
1
1
1
1
1
1
1
1
1
1
1
1
1
1
1
1
1
1
1
1
1
1
1
1
1
1
1
1
1
1
1
1
1
1
1
1
1
1
1
1
1
1
1
1
1
1
1
1
1
1
1
1
1
1
1
1
1
1
1
1
1
1
1
1
1
1
1
1
1
1
1
1
1
1
1
1
1
1
1
1
1
1
1
1
1
1
1
1
1
1
1
1
1
1
1
1
1
1
1
1
1
1
1
1
1
1
1
1
1
1
1
1
1
1
1
1
1
1
1
1
1
1
1
1
1
1
1
1
1
1
1
1
1
1
1
1
1
1
1
1
1
1
1
1
1
1
1
1
1
1
1
1
1
1
1
1
1
1
1
1
1
1
1
1
1
1
1
1
1
1
1
1
1
1
1
1
1
1
1
1
1
1
1
1
1
1
1
1
1
1
1
1
1
1
1
1
1
1
1
1
1
1
1
1
1
1
1
1
1
1
1
1
1
1
1
1
1
1
1
1
1
1
1
1
1
1
1
1
1
1
1
1
1
1
1
1
1
1
1
1
1
1
1
1
1
1
1
1
1
1
1
1
1
1
1
1
1
1
1
1
1
1
1
1
1
1
1
1
1
1
1
1
1
1
1
1
1
1
1
1
1
1
1
1
1
1
1
1
1
1
1
1
1
1
1
1
1
1
1
1
1
1
1
1
1
1
1
1
1
1
1
1
1
1
1
1
1
1
1
1
1
1
1
1
1
1
1
1
1
1
1
1
1
1
1
1
1
1
1
1
1
1
1
1
1
1
1
1
1
1
1
1
1
1
1
1
1
1
1
1
1
1
1
1
1
1
1
1
1
1
1
1
1
1
1
1
1
1
1
1
1
1
1
1
1
1
1
1
1
1
1
1
1
1
1
1
1
1
1
1
1
1
1
1
1
1
1
1
1
1
1
1
1
1
1
1
1
1
1
1
1
1
1
1
1
1
1
1
1
1
1
1
1
1
1
1
1
1
1
1
1
1
1
1
1
1
1
1
1
1
1
1
1
1
1
1
1
1
1
1
1
1
1
1
1
1
1
1
1
1
1
1
1
1
1
1
1
1
1
1
1
1
1
1
1
1
1
1
1
1
1
1
1
1
1
1
1
1
1
1
1
1
1
1
1
1
1
1
1
1
1
1
1
1
1
1
1
1
1
1
1
1
1
1
1
1
1
1
1
1
1
1
1
1
1
1
1
1
1
1
1
1
1
1
1
1
1
1
1
1
1
1
1
1
1
1
1
1
1
1
1
1
1
1
1
1
1
1
1
1
1
1
1
1
1
1
1
1
1
1
1
1
1
1
1
1
1
1
1
1
1
1
1
1
1
1
1
1
1
1
1
1
1
1
1
1
1
1
1
1
1
1
1
1
1
1
1
1
1
1
1
1
1
1
1
1
1
1
1
1
1
1
1
1
1
1
1
1
1
1
1
1
1
1
1
1
1
1
1
1
1
1
1
1
1
1
1
1
1
1
1
1
1
1
1
1
1
1
1
1
1
1
1
1
1
1
1
1
1
1
1
1
1
1
1
1
1
1
1
1
1
1
1
1
1
1
1
1
1
1
1
1
1
1
1
1
1
1
1
1
1
1
1
1
1
1
1
1
1
1
1
1
1
1
1
1
1
1
1
1
1
1
1
1
1
1
1
1
1
1
1
1
1
1
1
1
1
1
1
1
1
1
1
1
1
1
1
1
1
1
1
1
1
1
1
1
1
1
1
1
1
1
1
1
1
1
1
1
1
1
1
1
1
1
1
1
1
1
1
1
1
1
1
1
1
1
1
1
1
1
1
1
1
1
1
1
1
1
1
1
1
1
1
1
1
1
1
1
1
1
1
1
1
1
1
1
1
1
1
1
1
1
1
1
1
1
1
1
1
1
1
1
1
1
1
1
1
1
1
1
1
1
1
1
1
1
1
1
1
1
1
1
1
1
1
1
1
1
1
1
1
1
1
1
1
1
1
1
1
1
1
1
1
1
1
1
1
1
1
1
1
1
1
1
1
1
1
1
1
1
1
1
1
1
1
1
1
1
1
1
1
1
1
1
1
1
1
1
1
1
1
1
1
1
1
1
1
1
1
1
1
1
1
1
1
1
1
1
1
1
1
1
1
1
1
1
1
1
1
1
1
1
1
1
1
1
1
1
1
1
1
1
1
1
1
1
1
1
1
1
1
1
1
1
1
1
1
1
1
1
1
1
1
1
1
1
1
1
1
1
1
1
1
1
1
1
1
1
1
1
1
1
1
1
1
1
1
1
1
1
1
1
1
1
1
1
1
1
1
1
1
1
1
1
1
1
1
1
1
1
1
1
1
1
1
1
1
1
1
1
1
1
1
1
1
1
1
1
1
1
1
1
1
1
1
1
1
1
1
1
1
1
1
1
1
1
1
1
1
1
1
1
1
1
1
1
1
1
1
1
1
1
1
1
1
1
1
1
1
1
1
1
1
1
1
1
1
1
1
1
1
1
1
1
1
1
1
1
1
1
1
1
1
1
1
1
1
1
1
1
1
1
1
1
1
1
1
1
1
1
1
1
1
1
1
1
1
1
1
1
1
1
1
1
1
1
1
1
1
1
1
1
1
1
1
1
1
1
1
1
1
1
1
1
1
1
1
1
1
1
1.5068
0.959837
0.581833
0.397788
0.590841
0.906425
1.03957
1.09155
1.21143
1.35422
1.37176
1.37998
1.37698
1.37795
1.40462
1.47141
1.53412
1.58325
1.60688
1.60057
1.58322
1.57525
1.57788
1.58831
1.60366
1.60493
1.59757
1.58923
1.59108
1.603
1.6269
1.646
1.64874
1.64755
1.64267
1.64031
1.64044
1.64258
1.64538
1.64605
1.64578
1.645
1.64303
1.64234
1.6431
1.64573
1.64899
1.65177
1.65332
1.65333
1.65393
1.65641
1.65764
1.65751
1.65746
1.65711
1.65606
1.65602
1.65711
1.65825
1.65802
1.6558
2.24187
2.81942
2.81808
2.80993
2.80516
2.80189
2.79929
2.79516
2.78932
2.78168
2.77245
2.76201
2.75084
2.73929
2.72756
2.71555
2.70338
2.69146
2.68028
2.67027
2.6618
2.65481
2.6487
2.64255
2.63567
2.62777
2.61895
2.60943
2.59944
2.58925
2.57899
2.56866
2.55804
2.54706
2.53586
2.52476
2.51425
2.50478
2.49668
2.49009
2.48492
2.48069
2.47614
2.4699
2.46184
2.45264
2.44287
2.43289
2.42321
2.41427
2.4049
2.3948
2.3845
2.37391
2.36407
2.35569
2.3483
2.3421
2.33566
2.32881
2.32182
2.31467
2.30791
2.30178
2.29628
2.29207
2.28882
2.28533
2.28022
2.27278
2.26375
2.2522
2.2389
2.22758
2.21873
2.21089
2.20484
2.20137
2.19833
2.19409
2.18965
2.18486
2.17903
2.17217
2.16544
2.15993
2.15541
2.15109
2.14682
2.14278
2.13862
2.13355
2.12765
2.12087
2.11235
2.10214
2.0924
2.08468
2.07799
2.07181
2.06668
2.06208
2.05702
2.05196
2.04618
2.03898
2.03073
2.02352
2.01797
2.01342
2.00979
2.00704
2.00451
2.00196
1.9989
1.99503
1.98936
1.98144
1.97307
1.96694
1.96278
1.95914
1.95569
1.95231
1.94848
1.94422
1.93925
1.9327
1.9253
1.91563
1.7491
1.41128
1.24414
1.11638
0.96599
0.982703
1.00719
1.00091
1.01923
1.04469
1.07802
1.09485
1.11721
1.15061