/*--------------------------------*- C++ -*----------------------------------*\
  =========                 |
  \\      /  F ield         | OpenFOAM: The Open Source CFD Toolbox
   \\    /   O peration     | Website:  https://openfoam.org
    \\  /    A nd           | Version:  7
     \\/     M anipulation  |
\*---------------------------------------------------------------------------*/
FoamFile
{
    version     2.0;
    format      ascii;
    class       volVectorField;
    location    "3.4";
    object      U;
}
// * * * * * * * * * * * * * * * * * * * * * * * * * * * * * * * * * * * * * //

dimensions      [0 1 -1 0 0 0 0];

internalField   nonuniform List<vector> 
19968
(
(3 8.42802e-17 0)
(3 -4.25147e-17 0)
(3 -2.50827e-16 0)
(3 -2.58057e-16 0)
(3 -5.23034e-16 0)
(3 -7.48749e-16 0)
(3 -5.4057e-16 0)
(3 -1.40539e-17 0)
(3 3.00688e-16 0)
(3 3.36361e-16 0)
(3 3.32259e-16 0)
(3 2.86944e-16 0)
(3 4.47325e-16 0)
(3 5.59137e-16 0)
(3 -3.76788e-17 0)
(3 -2.77024e-16 0)
(3 -1.4998e-16 0)
(3 -2.7069e-16 0)
(3 8.83379e-17 0)
(3 3.94904e-16 0)
(3 2.61202e-16 0)
(3 3.0725e-16 0)
(3 3.34978e-16 0)
(3 -1.06829e-15 0)
(3 -1.29116e-15 0)
(3 -1.41762e-15 0)
(3 -2.26128e-16 0)
(3 6.8086e-16 0)
(3 1.55446e-15 0)
(3 1.39812e-15 0)
(3 1.03334e-15 0)
(3 7.29873e-18 0)
(3 -5.33284e-16 0)
(3 -1.16492e-15 0)
(3 -1.99639e-15 0)
(3 -1.82923e-15 0)
(3 -3.3638e-16 0)
(3 -2.58113e-16 0)
(3 -4.76352e-16 0)
(3 -3.68588e-16 0)
(3 -5.58043e-16 0)
(3 -1.00062e-16 0)
(3 -5.60256e-16 0)
(3 -9.55116e-16 0)
(3 -1.47331e-15 0)
(3 -6.62546e-16 0)
(3 9.3909e-18 0)
(3 -2.17003e-16 0)
(2.954 0.000890024 0)
(1.04373 0.0069081 0)
(0.761799 0.00533927 0)
(0.747481 0.00883371 0)
(0.73321 0.00937994 0)
(0.717814 0.00936696 0)
(0.701522 0.00914378 0)
(0.685148 0.00894048 0)
(0.669541 0.00881356 0)
(0.655062 0.00877206 0)
(0.641182 0.00884311 0)
(0.626931 0.00899696 0)
(0.611734 0.00920492 0)
(0.595708 0.00946256 0)
(0.579378 0.00973676 0)
(0.563241 0.00989047 0)
(0.547685 0.00970417 0)
(0.532974 0.00918296 0)
(0.518965 0.00872288 0)
(0.505035 0.00871858 0)
(0.490456 0.00922381 0)
(0.474896 0.00982195 0)
(0.458884 0.00987568 0)
(0.443308 0.0095595 0)
(0.428147 0.00965056 0)
(0.412794 0.0101012 0)
(0.397065 0.0103982 0)
(0.381119 0.0105053 0)
(0.364912 0.0106646 0)
(0.34832 0.0108941 0)
(0.331433 0.0111017 0)
(0.314529 0.0112729 0)
(0.297862 0.0114317 0)
(0.281507 0.0115811 0)
(0.265315 0.0117208 0)
(0.248974 0.0118624 0)
(0.232152 0.0120205 0)
(0.214626 0.0122102 0)
(0.196333 0.0124392 0)
(0.177335 0.0127123 0)
(0.157757 0.0130247 0)
(0.137685 0.0133661 0)
(0.117139 0.0137345 0)
(0.0961096 0.0141233 0)
(0.074714 0.0144651 0)
(0.0531809 0.0147768 0)
(0.0317216 0.0148954 0)
(0.0107973 0.0150417 0)
(3 1.29512e-16 0)
(3 3.10316e-16 0)
(3 1.68833e-16 0)
(3 1.26834e-16 0)
(3 4.58561e-16 0)
(3 5.22126e-16 0)
(3 5.82165e-16 0)
(3 6.22352e-16 0)
(3 2.17437e-16 0)
(3 6.83495e-16 0)
(3 9.45118e-16 0)
(3 8.50355e-16 0)
(3 8.8974e-16 0)
(3 7.0341e-16 0)
(3 -3.69936e-16 0)
(3 -1.25241e-15 0)
(3 -1.03912e-15 0)
(3 -9.82826e-16 0)
(3 -9.04659e-16 0)
(3 -3.4619e-16 0)
(3 -2.05156e-16 0)
(3 3.23417e-17 0)
(3 -6.67426e-16 0)
(3 -1.31378e-15 0)
(3 -1.44675e-15 0)
(3 -1.01891e-15 0)
(3 -2.612e-16 0)
(3 9.44777e-16 0)
(3 1.68634e-15 0)
(3 1.39731e-15 0)
(3 9.97072e-16 0)
(3 1.16235e-15 0)
(3 -1.12036e-16 0)
(3 -1.77851e-15 0)
(3 -3.22651e-15 0)
(3 -3.22022e-15 0)
(3 -1.85905e-15 0)
(3 -5.12444e-16 0)
(3 -8.89715e-16 0)
(3 -1.35876e-15 0)
(3 -1.77342e-15 0)
(3 -1.98136e-15 0)
(3 -1.30415e-15 0)
(3 -1.527e-15 0)
(3 -1.67046e-15 0)
(3 -1.55029e-15 0)
(3 -1.16703e-15 0)
(3 -6.34983e-16 0)
(2.96025 0.0104274 0)
(1.04953 0.0335584 0)
(0.755958 0.0268005 0)
(0.738815 0.0206705 0)
(0.725953 0.0227897 0)
(0.711546 0.0242867 0)
(0.696204 0.0253255 0)
(0.680574 0.0259398 0)
(0.665359 0.0261699 0)
(0.650837 0.0260468 0)
(0.636756 0.025916 0)
(0.622546 0.026163 0)
(0.607781 0.0268303 0)
(0.592467 0.027837 0)
(0.576882 0.0290009 0)
(0.561287 0.0298699 0)
(0.545919 0.0297483 0)
(0.531078 0.0285018 0)
(0.516703 0.0272157 0)
(0.502288 0.0271342 0)
(0.487314 0.028536 0)
(0.471442 0.0302612 0)
(0.455106 0.0303925 0)
(0.43921 0.02937 0)
(0.423729 0.0294125 0)
(0.408215 0.0305758 0)
(0.392408 0.0313327 0)
(0.37644 0.0315804 0)
(0.360235 0.0320301 0)
(0.343656 0.032727 0)
(0.326773 0.0333938 0)
(0.309851 0.0339863 0)
(0.293137 0.0345626 0)
(0.276727 0.0351072 0)
(0.260517 0.0355965 0)
(0.244251 0.0360534 0)
(0.227636 0.0365291 0)
(0.210456 0.0370919 0)
(0.192616 0.0377906 0)
(0.174134 0.038648 0)
(0.155096 0.0396406 0)
(0.135572 0.0407281 0)
(0.115574 0.0419001 0)
(0.0950788 0.043155 0)
(0.0741508 0.0443061 0)
(0.0529737 0.0454008 0)
(0.0317135 0.0459166 0)
(0.0108438 0.0465566 0)
(3 3.69935e-17 0)
(3 4.78393e-16 0)
(3 1.15792e-15 0)
(3 1.08911e-15 0)
(3 1.10606e-15 0)
(3 1.72157e-15 0)
(3 1.60461e-15 0)
(3 8.35282e-16 0)
(3 4.76922e-16 0)
(3 7.44076e-16 0)
(3 7.26086e-16 0)
(3 2.69968e-16 0)
(3 -3.7953e-17 0)
(3 -5.20273e-16 0)
(3 -1.11513e-15 0)
(3 -1.35202e-15 0)
(3 -1.94274e-16 0)
(3 -1.05159e-16 0)
(3 -7.34311e-16 0)
(3 -1.88036e-15 0)
(3 -1.73728e-15 0)
(3 -1.68488e-15 0)
(3 -1.49951e-15 0)
(3 -1.16923e-15 0)
(3 -8.14536e-16 0)
(3 -1.48517e-15 0)
(3 -1.97795e-15 0)
(3 -2.10883e-15 0)
(3 -1.48858e-15 0)
(3 -1.30872e-15 0)
(3 -7.75583e-16 0)
(3 -4.01347e-16 0)
(3 -4.9128e-16 0)
(3 -1.21119e-15 0)
(3 -2.3737e-15 0)
(3 -2.36372e-15 0)
(3 -2.36827e-15 0)
(3 -1.0061e-15 0)
(3 -7.51661e-16 0)
(3 -1.27563e-15 0)
(3 -1.62417e-15 0)
(3 -1.82069e-15 0)
(3 -8.39652e-16 0)
(3 -4.35012e-16 0)
(3 4.19945e-16 0)
(3 7.77609e-16 0)
(3 -1.29052e-16 0)
(3 -4.06153e-16 0)
(2.97217 -0.00352734 0)
(1.0775 0.0589744 0)
(0.763351 0.0494809 0)
(0.744062 0.0389058 0)
(0.728263 0.0396989 0)
(0.712974 0.0413058 0)
(0.69757 0.0431327 0)
(0.682012 0.044743 0)
(0.666603 0.0456981 0)
(0.651497 0.045609 0)
(0.636746 0.0449001 0)
(0.62217 0.0445064 0)
(0.607504 0.0450515 0)
(0.592651 0.0465134 0)
(0.577682 0.0485188 0)
(0.562631 0.0502565 0)
(0.547533 0.0505169 0)
(0.532696 0.048898 0)
(0.518084 0.047021 0)
(0.503255 0.0469785 0)
(0.487949 0.0493163 0)
(0.471793 0.0522134 0)
(0.455039 0.0526158 0)
(0.438659 0.0510834 0)
(0.422593 0.0511109 0)
(0.406638 0.0529102 0)
(0.390449 0.0540761 0)
(0.37415 0.0544256 0)
(0.357653 0.0551208 0)
(0.340808 0.0562198 0)
(0.323639 0.0572512 0)
(0.306365 0.0581381 0)
(0.289216 0.0589845 0)
(0.272315 0.0597789 0)
(0.255629 0.0604913 0)
(0.238991 0.0611571 0)
(0.222174 0.0618484 0)
(0.204978 0.0626699 0)
(0.187277 0.0637031 0)
(0.169046 0.0650014 0)
(0.150344 0.0665472 0)
(0.131249 0.0683005 0)
(0.111796 0.0702581 0)
(0.0919677 0.0724374 0)
(0.0717764 0.074515 0)
(0.0513625 0.0765454 0)
(0.030796 0.0776089 0)
(0.0105694 0.0789185 0)
(3 1.2816e-16 0)
(3 5.77023e-16 0)
(3 7.08922e-16 0)
(3 7.18133e-16 0)
(3 5.89804e-16 0)
(3 5.88637e-16 0)
(3 4.86527e-16 0)
(3 6.14741e-16 0)
(3 7.7783e-16 0)
(3 3.07102e-16 0)
(3 4.02732e-16 0)
(3 4.5786e-16 0)
(3 4.13365e-16 0)
(3 2.45087e-16 0)
(3 -1.18411e-18 0)
(3 -2.10959e-16 0)
(3 -4.44312e-16 0)
(3 -2.81078e-16 0)
(3 -3.19192e-16 0)
(3 -3.70487e-16 0)
(3 -1.02243e-15 0)
(3 -1.18724e-15 0)
(3 -6.69964e-16 0)
(3 -4.83575e-17 0)
(3 4.06033e-16 0)
(3 -7.63472e-16 0)
(3 -2.31623e-15 0)
(3 -2.9551e-15 0)
(3 -2.50846e-15 0)
(3 -1.71782e-15 0)
(3 -5.60785e-16 0)
(3 -8.14375e-16 0)
(3 -8.066e-16 0)
(3 -7.40441e-16 0)
(3 -5.34897e-16 0)
(3 -9.62841e-16 0)
(3 -1.7333e-15 0)
(3 -7.84216e-16 0)
(3 -2.5646e-16 0)
(3 -1.22541e-15 0)
(3 -1.43636e-15 0)
(3 -1.29407e-15 0)
(3 -1.28273e-16 0)
(3 1.14534e-15 0)
(3 1.40584e-15 0)
(3 1.51023e-15 0)
(3 5.85e-16 0)
(3 -8.37748e-17 0)
(2.99891 0.00121789 0)
(1.12408 0.0746729 0)
(0.76831 0.068093 0)
(0.75067 0.0569744 0)
(0.735735 0.0565376 0)
(0.720635 0.0580378 0)
(0.705359 0.0609389 0)
(0.689678 0.0640362 0)
(0.673755 0.0661702 0)
(0.657685 0.0664359 0)
(0.6418 0.0651317 0)
(0.626256 0.0638344 0)
(0.610977 0.063904 0)
(0.595838 0.0655723 0)
(0.580775 0.0683734 0)
(0.565644 0.0711543 0)
(0.550272 0.0721614 0)
(0.535001 0.0705563 0)
(0.519922 0.0682352 0)
(0.504636 0.068162 0)
(0.489164 0.071302 0)
(0.473074 0.0753277 0)
(0.456299 0.0762116 0)
(0.439869 0.0743828 0)
(0.423666 0.0744113 0)
(0.407726 0.0767938 0)
(0.391567 0.0784011 0)
(0.375282 0.07891 0)
(0.358782 0.0798992 0)
(0.341902 0.0814496 0)
(0.324599 0.082903 0)
(0.307035 0.0841421 0)
(0.289425 0.0853191 0)
(0.271929 0.0864306 0)
(0.254602 0.0874318 0)
(0.237377 0.0883482 0)
(0.220099 0.0892455 0)
(0.202581 0.090247 0)
(0.18466 0.0914636 0)
(0.166267 0.0929904 0)
(0.147451 0.0948345 0)
(0.128324 0.0969851 0)
(0.108979 0.099468 0)
(0.0894474 0.102368 0)
(0.0697059 0.105241 0)
(0.0498748 0.108157 0)
(0.0298956 0.109789 0)
(0.0102783 0.111821 0)
(3 -5.51577e-17 0)
(3 -1.0464e-16 0)
(3 -3.44401e-16 0)
(3 -2.39532e-16 0)
(3 2.17031e-17 0)
(3 -2.51957e-17 0)
(3 -5.03716e-18 0)
(3 1.96464e-16 0)
(3 1.20756e-17 0)
(3 -3.4202e-16 0)
(3 -2.60011e-16 0)
(3 3.84258e-16 0)
(3 1.2451e-15 0)
(3 1.08743e-15 0)
(3 8.37802e-16 0)
(3 5.15064e-16 0)
(3 -3.59773e-16 0)
(3 -6.85048e-16 0)
(3 -3.47422e-16 0)
(3 2.65283e-16 0)
(3 2.8827e-16 0)
(3 1.42335e-16 0)
(3 3.29879e-16 0)
(3 1.01101e-15 0)
(3 6.94914e-16 0)
(3 1.36846e-16 0)
(3 2.31149e-16 0)
(3 9.14184e-18 0)
(3 -4.15334e-16 0)
(3 -4.07888e-16 0)
(3 -5.77987e-16 0)
(3 -1.74323e-15 0)
(3 -1.81074e-15 0)
(3 -1.64021e-15 0)
(3 -1.24863e-15 0)
(3 -1.30368e-15 0)
(3 -1.5499e-15 0)
(3 -1.1968e-15 0)
(3 -1.19986e-15 0)
(3 -1.51875e-15 0)
(3 -1.08425e-15 0)
(3 -1.18888e-15 0)
(3 -1.39106e-15 0)
(3 4.59422e-16 0)
(3 1.32959e-15 0)
(3 1.25616e-15 0)
(3 1.04121e-15 0)
(3 3.08314e-16 0)
(3 3.0716e-06 0)
(1.20036 0.0973263 0)
(0.770623 0.0880241 0)
(0.748867 0.0759026 0)
(0.734023 0.0757698 0)
(0.718705 0.0778674 0)
(0.703419 0.0818362 0)
(0.687809 0.0860585 0)
(0.672019 0.0889999 0)
(0.656076 0.0894623 0)
(0.640344 0.0875165 0)
(0.624999 0.0850433 0)
(0.609916 0.0842905 0)
(0.595003 0.0859346 0)
(0.580198 0.0894427 0)
(0.5653 0.0932929 0)
(0.549985 0.0951585 0)
(0.534662 0.0937188 0)
(0.519621 0.0908615 0)
(0.504431 0.0904178 0)
(0.489412 0.0940001 0)
(0.474123 0.0989751 0)
(0.457995 0.100541 0)
(0.442085 0.0986357 0)
(0.426238 0.0986712 0)
(0.410732 0.101577 0)
(0.394944 0.103705 0)
(0.37894 0.104463 0)
(0.362684 0.10578 0)
(0.346019 0.107801 0)
(0.32884 0.109709 0)
(0.311254 0.111338 0)
(0.293456 0.112897 0)
(0.27564 0.114413 0)
(0.257934 0.115829 0)
(0.240351 0.117144 0)
(0.222793 0.118388 0)
(0.205073 0.119676 0)
(0.186985 0.121135 0)
(0.168398 0.122897 0)
(0.149327 0.124994 0)
(0.129894 0.127452 0)
(0.110236 0.130318 0)
(0.0904453 0.133784 0)
(0.0704833 0.137308 0)
(0.0504872 0.141017 0)
(0.0302727 0.143193 0)
(0.0104434 0.145949 0)
(3 9.40349e-18 0)
(3 -6.2192e-17 0)
(3 2.95408e-16 0)
(3 3.56551e-16 0)
(3 2.22117e-16 0)
(3 1.29008e-16 0)
(3 -1.38788e-16 0)
(3 -3.87139e-16 0)
(3 -4.85701e-16 0)
(3 -8.00434e-16 0)
(3 -5.73584e-16 0)
(3 -4.63214e-16 0)
(3 -2.83994e-16 0)
(3 -1.76981e-16 0)
(3 -7.45289e-16 0)
(3 -7.60689e-16 0)
(3 -4.75946e-16 0)
(3 1.07861e-17 0)
(3 9.17491e-16 0)
(3 1.45391e-15 0)
(3 1.20898e-15 0)
(3 4.95787e-16 0)
(3 6.01878e-16 0)
(3 1.04408e-15 0)
(3 1.00577e-15 0)
(3 8.87958e-16 0)
(3 1.6083e-15 0)
(3 1.55912e-15 0)
(3 8.01927e-16 0)
(3 -4.70541e-16 0)
(3 -9.37813e-16 0)
(3 -1.14898e-15 0)
(3 -1.50516e-15 0)
(3 -1.4882e-15 0)
(3 -1.32669e-15 0)
(3 -1.46927e-15 0)
(3 -1.73682e-15 0)
(3 -1.95226e-15 0)
(3 -1.97075e-15 0)
(3 -1.53204e-15 0)
(3 -4.75964e-16 0)
(3 6.80853e-16 0)
(3 1.17859e-15 0)
(3 5.19019e-16 0)
(3 6.13255e-16 0)
(3 5.13761e-16 0)
(3 8.86144e-16 0)
(3 2.86078e-16 0)
(3 7.99336e-09 0)
(1.32137 0.122413 0)
(0.77719 0.111166 0)
(0.749359 0.0967802 0)
(0.734583 0.0960206 0)
(0.719341 0.0981064 0)
(0.704315 0.102545 0)
(0.688948 0.107594 0)
(0.673281 0.111496 0)
(0.657235 0.112649 0)
(0.641234 0.110659 0)
(0.625592 0.107283 0)
(0.610186 0.10561 0)
(0.595071 0.107085 0)
(0.580283 0.11119 0)
(0.565569 0.116101 0)
(0.550359 0.118959 0)
(0.534965 0.117965 0)
(0.519859 0.114675 0)
(0.50453 0.113597 0)
(0.489519 0.117225 0)
(0.474615 0.123021 0)
(0.458696 0.125605 0)
(0.442768 0.123997 0)
(0.426797 0.124139 0)
(0.411282 0.127592 0)
(0.395506 0.130414 0)
(0.379454 0.131569 0)
(0.363176 0.133256 0)
(0.346534 0.13576 0)
(0.32936 0.138151 0)
(0.311697 0.140189 0)
(0.293712 0.142136 0)
(0.275611 0.144071 0)
(0.257567 0.145942 0)
(0.239651 0.147715 0)
(0.221817 0.149371 0)
(0.203911 0.151006 0)
(0.185726 0.152749 0)
(0.167106 0.154765 0)
(0.148031 0.157101 0)
(0.128614 0.159824 0)
(0.108999 0.162995 0)
(0.0893348 0.166962 0)
(0.0695588 0.171076 0)
(0.0498535 0.175577 0)
(0.0298769 0.178336 0)
(0.0103542 0.181849 0)
(3 -1.52365e-16 0)
(3 -3.84011e-16 0)
(3 -3.16514e-16 0)
(3 -3.61082e-16 0)
(3 -4.96122e-16 0)
(3 -8.34582e-16 0)
(3 -8.46221e-16 0)
(3 -7.82071e-16 0)
(3 -1.15096e-15 0)
(3 -1.02918e-15 0)
(3 -7.71637e-16 0)
(3 -7.15903e-16 0)
(3 -9.52975e-16 0)
(3 -7.71154e-16 0)
(3 -4.73927e-16 0)
(3 -1.93057e-16 0)
(3 7.08749e-17 0)
(3 1.5405e-16 0)
(3 1.16771e-16 0)
(3 -3.42623e-17 0)
(3 -1.32173e-16 0)
(3 -1.63565e-16 0)
(3 -8.93966e-17 0)
(3 -1.81239e-17 0)
(3 6.4542e-16 0)
(3 8.05683e-16 0)
(3 1.04012e-15 0)
(3 1.19101e-15 0)
(3 9.22667e-16 0)
(3 9.2318e-16 0)
(3 1.14582e-15 0)
(3 1.32367e-15 0)
(3 1.32127e-15 0)
(3 1.21775e-15 0)
(3 7.63604e-16 0)
(3 2.86621e-16 0)
(3 -1.72996e-15 0)
(3 -2.90882e-15 0)
(3 -2.32375e-15 0)
(3 -2.15886e-15 0)
(3 -2.06276e-15 0)
(3 -4.1124e-16 0)
(3 4.88094e-16 0)
(3 8.43648e-17 0)
(3 -6.56921e-16 0)
(3 -9.84808e-16 0)
(3 -9.15408e-16 0)
(3 -6.52251e-16 0)
(3 1.6768e-11 0)
(1.50296 0.147209 0)
(0.791057 0.136565 0)
(0.753533 0.12104 0)
(0.738047 0.118803 0)
(0.721963 0.120199 0)
(0.706575 0.124535 0)
(0.691278 0.130156 0)
(0.675886 0.13507 0)
(0.660043 0.137124 0)
(0.64409 0.135464 0)
(0.628422 0.131459 0)
(0.612886 0.128624 0)
(0.597663 0.12944 0)
(0.583042 0.133712 0)
(0.568793 0.139477 0)
(0.55403 0.143457 0)
(0.538793 0.143365 0)
(0.523728 0.140042 0)
(0.508336 0.138256 0)
(0.493227 0.141569 0)
(0.478667 0.147979 0)
(0.463048 0.151835 0)
(0.447148 0.150831 0)
(0.43118 0.151024 0)
(0.415774 0.154848 0)
(0.400178 0.158395 0)
(0.384184 0.160016 0)
(0.367938 0.162047 0)
(0.351335 0.165024 0)
(0.334171 0.167987 0)
(0.316422 0.170568 0)
(0.29823 0.173032 0)
(0.279799 0.175512 0)
(0.261312 0.177961 0)
(0.242867 0.180309 0)
(0.224457 0.18248 0)
(0.205986 0.184546 0)
(0.18729 0.18663 0)
(0.16823 0.188917 0)
(0.148765 0.191444 0)
(0.128993 0.194317 0)
(0.109054 0.197596 0)
(0.0891593 0.201836 0)
(0.0692455 0.206301 0)
(0.0495843 0.211439 0)
(0.02966 0.214722 0)
(0.0103169 0.218933 0)
(3 -1.25543e-16 0)
(3 -5.07814e-16 0)
(3 -6.88746e-16 0)
(3 -4.55058e-16 0)
(3 -5.05406e-16 0)
(3 -5.33233e-16 0)
(3 -7.46041e-16 0)
(3 -1.02605e-15 0)
(3 -8.95119e-16 0)
(3 -6.50411e-16 0)
(3 -1.15892e-15 0)
(3 -1.26256e-15 0)
(3 -1.07413e-15 0)
(3 -5.52551e-16 0)
(3 1.87249e-18 0)
(3 6.0202e-16 0)
(3 4.99342e-16 0)
(3 -6.49503e-16 0)
(3 -2.04412e-15 0)
(3 -2.08158e-15 0)
(3 -1.79828e-15 0)
(3 -1.69187e-15 0)
(3 -2.0232e-15 0)
(3 -1.90432e-15 0)
(3 -1.80497e-15 0)
(3 -9.54765e-16 0)
(3 -6.52582e-16 0)
(3 -4.43172e-16 0)
(3 -6.73854e-17 0)
(3 -1.59569e-16 0)
(3 -9.75708e-17 0)
(3 8.29727e-17 0)
(3 2.37904e-16 0)
(3 4.93921e-17 0)
(3 -2.70977e-16 0)
(3 -7.32291e-16 0)
(3 -1.24119e-15 0)
(3 -1.90687e-15 0)
(3 -9.29319e-16 0)
(3 -3.60323e-16 0)
(3 1.77682e-16 0)
(3 5.41806e-16 0)
(3 5.06105e-16 0)
(3 1.86322e-16 0)
(3 -5.90681e-16 0)
(3 -2.98035e-16 0)
(3 4.35195e-16 0)
(3 1.54654e-15 0)
(3 3.33606e-14 0)
(1.76477 0.165752 0)
(0.816788 0.161105 0)
(0.758191 0.149093 0)
(0.741784 0.143764 0)
(0.724919 0.143959 0)
(0.7093 0.147625 0)
(0.694206 0.15329 0)
(0.679354 0.159003 0)
(0.663985 0.162096 0)
(0.648221 0.161235 0)
(0.632423 0.157271 0)
(0.616521 0.153439 0)
(0.600724 0.153153 0)
(0.58569 0.15705 0)
(0.571506 0.163375 0)
(0.557087 0.168612 0)
(0.541978 0.169854 0)
(0.526888 0.167039 0)
(0.511521 0.164547 0)
(0.496289 0.167092 0)
(0.482063 0.173772 0)
(0.466942 0.178964 0)
(0.451212 0.178883 0)
(0.435433 0.17902 0)
(0.420311 0.18298 0)
(0.405203 0.187271 0)
(0.38959 0.189503 0)
(0.373722 0.191907 0)
(0.35753 0.195387 0)
(0.340783 0.199074 0)
(0.323357 0.202434 0)
(0.305328 0.205655 0)
(0.28686 0.208921 0)
(0.268107 0.212206 0)
(0.249165 0.215399 0)
(0.230067 0.218358 0)
(0.210809 0.221108 0)
(0.191323 0.223739 0)
(0.171531 0.226426 0)
(0.151392 0.229164 0)
(0.130988 0.232081 0)
(0.11044 0.235223 0)
(0.0900105 0.239412 0)
(0.0696488 0.243827 0)
(0.0497565 0.249283 0)
(0.029695 0.252898 0)
(0.0103208 0.257625 0)
(3 3.14446e-16 0)
(3 5.90675e-16 0)
(3 7.02617e-16 0)
(3 7.37047e-16 0)
(3 8.96752e-16 0)
(3 1.27414e-15 0)
(3 1.06284e-15 0)
(3 5.48559e-16 0)
(3 3.57363e-16 0)
(3 3.2385e-16 0)
(3 4.47116e-16 0)
(3 4.07917e-17 0)
(3 -4.00685e-16 0)
(3 -4.76323e-16 0)
(3 1.83136e-16 0)
(3 5.38021e-16 0)
(3 3.13916e-16 0)
(3 -5.30231e-16 0)
(3 -1.8802e-15 0)
(3 -1.95297e-15 0)
(3 -1.70708e-15 0)
(3 -1.89932e-15 0)
(3 -2.23015e-15 0)
(3 -2.52172e-15 0)
(3 -2.99518e-15 0)
(3 -2.89274e-15 0)
(3 -2.56548e-15 0)
(3 -2.28531e-15 0)
(3 -1.44284e-15 0)
(3 -1.14053e-15 0)
(3 -1.30179e-15 0)
(3 -1.39688e-15 0)
(3 -6.84827e-16 0)
(3 -5.85537e-16 0)
(3 -4.5064e-16 0)
(3 -2.5065e-16 0)
(3 5.43381e-17 0)
(3 5.83239e-16 0)
(3 1.59111e-15 0)
(3 2.38959e-15 0)
(3 2.66096e-15 0)
(3 1.33892e-15 0)
(3 2.60287e-16 0)
(3 2.99684e-16 0)
(3 5.39373e-16 0)
(3 3.67286e-16 0)
(3 4.64501e-16 0)
(3 3.62972e-16 0)
(3 1.80911e-16 0)
(2.11304 0.175097 0)
(0.851494 0.191476 0)
(0.755202 0.183085 0)
(0.740189 0.172346 0)
(0.723461 0.170589 0)
(0.708592 0.173171 0)
(0.694273 0.178208 0)
(0.680745 0.184265 0)
(0.666903 0.188483 0)
(0.652346 0.188942 0)
(0.637223 0.185922 0)
(0.621627 0.181763 0)
(0.605776 0.180183 0)
(0.590526 0.182989 0)
(0.576445 0.189184 0)
(0.562536 0.19548 0)
(0.547644 0.198318 0)
(0.532301 0.196604 0)
(0.516704 0.193578 0)
(0.500956 0.194853 0)
(0.486452 0.20122 0)
(0.471484 0.207562 0)
(0.455514 0.208716 0)
(0.439467 0.208626 0)
(0.424052 0.212283 0)
(0.409006 0.217111 0)
(0.393486 0.219997 0)
(0.377777 0.222717 0)
(0.361902 0.226625 0)
(0.345669 0.231099 0)
(0.328869 0.235435 0)
(0.311484 0.239626 0)
(0.293624 0.243868 0)
(0.275382 0.248182 0)
(0.25679 0.25244 0)
(0.237844 0.256444 0)
(0.218561 0.260174 0)
(0.19892 0.263671 0)
(0.178874 0.267068 0)
(0.158355 0.270285 0)
(0.137413 0.273425 0)
(0.116112 0.276492 0)
(0.0947521 0.280564 0)
(0.073326 0.284723 0)
(0.0523787 0.290266 0)
(0.0312549 0.294044 0)
(0.0108483 0.29914 0)
(3 -4.38841e-17 0)
(3 8.38249e-17 0)
(3 1.85267e-16 0)
(3 -9.97841e-17 0)
(3 -1.93637e-16 0)
(3 1.16193e-17 0)
(3 2.43075e-16 0)
(3 3.90139e-16 0)
(3 7.35533e-17 0)
(3 4.68599e-16 0)
(3 7.16543e-16 0)
(3 7.32829e-16 0)
(3 6.21229e-16 0)
(3 4.63441e-16 0)
(3 2.20279e-16 0)
(3 -2.33324e-16 0)
(3 -4.41472e-16 0)
(3 -4.49275e-16 0)
(3 -5.60244e-16 0)
(3 -1.02495e-15 0)
(3 -1.0406e-15 0)
(3 -6.01089e-16 0)
(3 -6.94643e-16 0)
(3 -1.9112e-15 0)
(3 -2.48959e-15 0)
(3 -1.73742e-15 0)
(3 -1.1167e-15 0)
(3 -9.08059e-16 0)
(3 -5.08824e-16 0)
(3 3.63634e-16 0)
(3 4.95334e-16 0)
(3 1.74061e-16 0)
(3 -7.96437e-16 0)
(3 -1.04618e-15 0)
(3 -4.52487e-16 0)
(3 1.07591e-15 0)
(3 1.50014e-15 0)
(3 1.95764e-15 0)
(3 1.91887e-15 0)
(3 1.06577e-15 0)
(3 3.53653e-16 0)
(3 -2.71445e-16 0)
(3 -8.59464e-16 0)
(3 -1.05198e-15 0)
(3 -7.3647e-16 0)
(3 -5.64467e-16 0)
(3 -6.11293e-16 0)
(3 -5.44101e-16 0)
(3 -6.39743e-16 0)
(2.56891 0.167468 0)
(0.933045 0.229682 0)
(0.774543 0.211814 0)
(0.76375 0.197449 0)
(0.7463 0.194501 0)
(0.730588 0.196062 0)
(0.715109 0.200785 0)
(0.700674 0.206729 0)
(0.686688 0.211872 0)
(0.672261 0.214384 0)
(0.657274 0.213298 0)
(0.641847 0.209842 0)
(0.6259 0.20743 0)
(0.610008 0.209052 0)
(0.595124 0.214927 0)
(0.58095 0.222515 0)
(0.565876 0.227794 0)
(0.549819 0.228395 0)
(0.533495 0.225693 0)
(0.516791 0.22557 0)
(0.50118 0.231045 0)
(0.485888 0.238333 0)
(0.469261 0.241362 0)
(0.452243 0.241384 0)
(0.435616 0.244507 0)
(0.419651 0.24964 0)
(0.403336 0.253234 0)
(0.386829 0.256189 0)
(0.370264 0.260262 0)
(0.353555 0.265263 0)
(0.336481 0.270453 0)
(0.318905 0.275571 0)
(0.300893 0.280778 0)
(0.282525 0.286185 0)
(0.263793 0.291684 0)
(0.244647 0.297009 0)
(0.225113 0.302075 0)
(0.205204 0.306847 0)
(0.184909 0.311387 0)
(0.164131 0.31552 0)
(0.142855 0.319257 0)
(0.121065 0.322553 0)
(0.0990255 0.326598 0)
(0.0766811 0.330398 0)
(0.0547866 0.335834 0)
(0.0326903 0.339599 0)
(0.0113128 0.344963 0)
(3 -2.70931e-16 0)
(3 -3.73674e-16 0)
(3 -7.61106e-16 0)
(3 -1.07278e-15 0)
(3 -1.45015e-15 0)
(3 -2.04484e-15 0)
(3 -1.71109e-15 0)
(3 1.59958e-16 0)
(3 8.98676e-16 0)
(3 1.02082e-15 0)
(3 7.97773e-16 0)
(3 6.25511e-16 0)
(3 7.83226e-16 0)
(3 7.21258e-16 0)
(3 4.88507e-16 0)
(3 -5.22725e-17 0)
(3 -6.33883e-16 0)
(3 -6.2855e-16 0)
(3 -7.17602e-17 0)
(3 4.94429e-17 0)
(3 7.1399e-16 0)
(3 1.05361e-15 0)
(3 1.26459e-15 0)
(3 1.04875e-15 0)
(3 4.03629e-16 0)
(3 3.61633e-16 0)
(3 8.77235e-16 0)
(3 9.92264e-16 0)
(3 1.04586e-15 0)
(3 1.99999e-15 0)
(3 2.60553e-15 0)
(3 2.5005e-15 0)
(3 9.8317e-16 0)
(3 -2.02385e-16 0)
(3 -3.01734e-16 0)
(3 8.90681e-16 0)
(3 1.223e-15 0)
(3 6.88169e-16 0)
(3 2.91667e-16 0)
(3 -3.50964e-16 0)
(3 -7.2739e-16 0)
(3 -7.06297e-16 0)
(3 -5.9159e-16 0)
(3 -1.41396e-15 0)
(3 -1.78792e-15 0)
(3 -1.65817e-15 0)
(3 -1.63867e-15 0)
(3 -1.6484e-15 0)
(3 -1.78907e-15 0)
(2.96647 0.0352772 0)
(1.07447 0.255128 0)
(0.797783 0.22492 0)
(0.788082 0.216569 0)
(0.772887 0.218466 0)
(0.757094 0.221173 0)
(0.741349 0.225701 0)
(0.72612 0.231157 0)
(0.711634 0.236405 0)
(0.697367 0.239584 0)
(0.682977 0.239572 0)
(0.668203 0.237243 0)
(0.652693 0.235011 0)
(0.636721 0.23577 0)
(0.621301 0.240815 0)
(0.607031 0.248844 0)
(0.592615 0.256231 0)
(0.576904 0.259684 0)
(0.560509 0.258544 0)
(0.543616 0.257202 0)
(0.527118 0.260904 0)
(0.511608 0.268396 0)
(0.494856 0.273956 0)
(0.477052 0.275262 0)
(0.459282 0.27809 0)
(0.44223 0.283514 0)
(0.424967 0.288235 0)
(0.407394 0.291864 0)
(0.389726 0.296207 0)
(0.372001 0.301672 0)
(0.354096 0.307688 0)
(0.335823 0.313756 0)
(0.317204 0.319875 0)
(0.298359 0.326246 0)
(0.279313 0.332877 0)
(0.25994 0.339467 0)
(0.240193 0.345883 0)
(0.220031 0.352065 0)
(0.199396 0.358057 0)
(0.178122 0.363642 0)
(0.156065 0.368719 0)
(0.133128 0.373125 0)
(0.109488 0.37793 0)
(0.0851411 0.381843 0)
(0.0609322 0.387423 0)
(0.0363714 0.391178 0)
(0.0125566 0.396868 0)
(3 9.03029e-18 0)
(3 -1.04354e-16 0)
(3 -3.03075e-16 0)
(3 -3.06586e-16 0)
(3 -3.80452e-16 0)
(3 -6.24821e-16 0)
(3 -4.35821e-16 0)
(3 1.68889e-16 0)
(3 6.54854e-16 0)
(3 1.40798e-16 0)
(3 -2.69202e-16 0)
(3 -4.00233e-16 0)
(3 -3.8089e-16 0)
(3 -5.44033e-17 0)
(3 1.64896e-16 0)
(3 7.84451e-16 0)
(3 1.1244e-15 0)
(3 1.60146e-15 0)
(3 1.81445e-15 0)
(3 2.00637e-15 0)
(3 2.04176e-15 0)
(3 1.84975e-15 0)
(3 1.78008e-15 0)
(3 2.2192e-15 0)
(3 2.44404e-15 0)
(3 2.22942e-15 0)
(3 1.62085e-15 0)
(3 1.22654e-15 0)
(3 7.31879e-16 0)
(3 7.58117e-16 0)
(3 1.33523e-15 0)
(3 1.68162e-15 0)
(3 1.5402e-15 0)
(3 1.1001e-15 0)
(3 1.13751e-15 0)
(3 1.44117e-15 0)
(3 1.6074e-15 0)
(3 7.24768e-16 0)
(3 2.30309e-16 0)
(3 2.80152e-16 0)
(3 2.22109e-16 0)
(3 4.86836e-16 0)
(3 1.0186e-16 0)
(3 6.90171e-17 0)
(3 -2.46321e-16 0)
(3 -8.67043e-16 0)
(3 -1.4637e-15 0)
(3 -2.78919e-15 0)
(3 -2.70146e-15 0)
(3.00274 0.000944923 0)
(1.32537 0.267936 0)
(0.808294 0.235945 0)
(0.782188 0.243589 0)
(0.767335 0.249672 0)
(0.751455 0.252649 0)
(0.736853 0.256978 0)
(0.722486 0.262188 0)
(0.708667 0.267173 0)
(0.695255 0.270192 0)
(0.682055 0.270889 0)
(0.66864 0.269956 0)
(0.65457 0.268831 0)
(0.639867 0.269438 0)
(0.625196 0.273348 0)
(0.611482 0.280734 0)
(0.598603 0.289397 0)
(0.584838 0.295448 0)
(0.570051 0.296722 0)
(0.554716 0.295544 0)
(0.538994 0.297574 0)
(0.524284 0.304433 0)
(0.509095 0.311884 0)
(0.492326 0.315261 0)
(0.475089 0.318107 0)
(0.458335 0.323447 0)
(0.441539 0.329053 0)
(0.424261 0.333512 0)
(0.406655 0.338095 0)
(0.388845 0.343717 0)
(0.370834 0.350183 0)
(0.352482 0.356979 0)
(0.333685 0.36386 0)
(0.314545 0.371032 0)
(0.295134 0.378719 0)
(0.27527 0.386684 0)
(0.254806 0.394768 0)
(0.233678 0.402852 0)
(0.211936 0.410984 0)
(0.189489 0.418723 0)
(0.166419 0.426013 0)
(0.142273 0.432153 0)
(0.117677 0.438274 0)
(0.0918803 0.442759 0)
(0.065798 0.448433 0)
(0.0392206 0.451909 0)
(0.0133738 0.457647 0)
(3 1.38281e-17 0)
(3 1.83063e-17 0)
(3 1.37183e-17 0)
(3 2.31873e-16 0)
(3 3.19905e-16 0)
(3 3.23903e-16 0)
(3 2.50423e-17 0)
(3 -6.87091e-17 0)
(3 -1.50144e-16 0)
(3 -7.76894e-16 0)
(3 -1.14018e-15 0)
(3 -1.16841e-15 0)
(3 -1.32817e-15 0)
(3 -1.37893e-15 0)
(3 -1.03429e-15 0)
(3 -7.43705e-16 0)
(3 1.46547e-16 0)
(3 7.57288e-16 0)
(3 1.06677e-15 0)
(3 1.09668e-15 0)
(3 1.0778e-15 0)
(3 1.11337e-15 0)
(3 4.41504e-16 0)
(3 1.19225e-16 0)
(3 4.09849e-16 0)
(3 7.92197e-16 0)
(3 4.94328e-17 0)
(3 -3.47978e-16 0)
(3 -7.19733e-16 0)
(3 -3.45861e-16 0)
(3 -2.59571e-16 0)
(3 -2.38765e-16 0)
(3 4.45024e-16 0)
(3 1.2295e-15 0)
(3 9.27493e-16 0)
(3 2.50371e-16 0)
(3 1.85526e-17 0)
(3 1.82448e-17 0)
(3 -4.34325e-16 0)
(3 -3.41647e-16 0)
(3 -7.54715e-17 0)
(3 1.33049e-16 0)
(3 3.43818e-17 0)
(3 3.90218e-16 0)
(3 5.89435e-16 0)
(3 5.52388e-16 0)
(3 1.01195e-15 0)
(3 1.31749e-15 0)
(3 9.12817e-16 0)
(3.00001 1.59927e-06 0)
(1.88985 0.305794 0)
(0.84249 0.294641 0)
(0.770645 0.275528 0)
(0.759079 0.278689 0)
(0.746719 0.280555 0)
(0.734925 0.284928 0)
(0.722293 0.290227 0)
(0.709687 0.294669 0)
(0.697428 0.296946 0)
(0.685538 0.297619 0)
(0.673502 0.297592 0)
(0.660857 0.29768 0)
(0.647501 0.298811 0)
(0.633796 0.302165 0)
(0.62053 0.308628 0)
(0.608406 0.317423 0)
(0.596362 0.32537 0)
(0.583258 0.329434 0)
(0.569531 0.329831 0)
(0.555202 0.331087 0)
(0.541298 0.336893 0)
(0.527844 0.345528 0)
(0.512766 0.35204 0)
(0.496585 0.356289 0)
(0.480499 0.362029 0)
(0.464529 0.368818 0)
(0.447994 0.374968 0)
(0.430859 0.380713 0)
(0.413273 0.387089 0)
(0.395311 0.394338 0)
(0.377028 0.402276 0)
(0.358231 0.410476 0)
(0.338972 0.41891 0)
(0.319434 0.427985 0)
(0.299509 0.437566 0)
(0.279056 0.447574 0)
(0.257808 0.457645 0)
(0.236082 0.467845 0)
(0.213526 0.477699 0)
(0.190094 0.48724 0)
(0.165205 0.495933 0)
(0.138716 0.505193 0)
(0.109654 0.513149 0)
(0.0789431 0.521035 0)
(0.0469875 0.525317 0)
(0.0157204 0.530921 0)
(3 5.55021e-17 0)
(3 -5.49974e-17 0)
(3 4.1611e-17 0)
(3 1.79815e-16 0)
(3 3.35446e-16 0)
(3 7.26625e-16 0)
(3 2.96699e-16 0)
(3 3.8217e-16 0)
(3 2.26717e-16 0)
(3 2.27838e-16 0)
(3 2.75452e-16 0)
(3 2.91989e-16 0)
(3 1.35678e-16 0)
(3 9.13142e-17 0)
(3 8.90011e-17 0)
(3 7.20664e-17 0)
(3 1.30462e-16 0)
(3 5.18431e-17 0)
(3 2.91479e-16 0)
(3 2.96675e-16 0)
(3 3.80831e-16 0)
(3 -4.67685e-17 0)
(3 -8.53825e-16 0)
(3 -7.56748e-16 0)
(3 -8.07038e-16 0)
(3 -4.15494e-16 0)
(3 -1.62861e-16 0)
(3 -1.88143e-16 0)
(3 -6.79265e-16 0)
(3 -6.30085e-16 0)
(3 1.02992e-17 0)
(3 4.51475e-16 0)
(3 6.6678e-16 0)
(3 6.17852e-16 0)
(3 2.69793e-16 0)
(3 -1.42761e-16 0)
(3 -2.56871e-16 0)
(3 -3.31634e-16 0)
(3 2.73562e-16 0)
(3 9.97441e-17 0)
(3 -3.83256e-17 0)
(3 2.72572e-17 0)
(3 8.3273e-16 0)
(3 1.10362e-15 0)
(3 1.19556e-15 0)
(3 1.12233e-15 0)
(3 6.23732e-16 0)
(3 9.34951e-16 0)
(3 -2.05708e-15 0)
(3 3.72114e-09 0)
(2.79302 0.158454 0)
(1.0206 0.347929 0)
(0.806139 0.316044 0)
(0.7906 0.304195 0)
(0.773571 0.306868 0)
(0.758542 0.312395 0)
(0.74342 0.318413 0)
(0.728809 0.322546 0)
(0.714986 0.324268 0)
(0.701911 0.325003 0)
(0.68912 0.325855 0)
(0.676172 0.327249 0)
(0.66284 0.329387 0)
(0.649209 0.332735 0)
(0.635761 0.338236 0)
(0.623311 0.346206 0)
(0.611813 0.354808 0)
(0.599966 0.361085 0)
(0.587417 0.363838 0)
(0.574294 0.365504 0)
(0.561031 0.37037 0)
(0.548589 0.379228 0)
(0.535469 0.3886 0)
(0.520767 0.395493 0)
(0.505666 0.402253 0)
(0.49074 0.410155 0)
(0.475475 0.418211 0)
(0.459529 0.425818 0)
(0.442899 0.433555 0)
(0.425606 0.441996 0)
(0.407904 0.451319 0)
(0.389714 0.461215 0)
(0.370764 0.471351 0)
(0.351329 0.482208 0)
(0.331141 0.493785 0)
(0.310258 0.506155 0)
(0.288142 0.519059 0)
(0.264761 0.532762 0)
(0.239807 0.547008 0)
(0.213087 0.561743 0)
(0.184475 0.576425 0)
(0.154421 0.591645 0)
(0.122949 0.605717 0)
(0.0899282 0.617009 0)
(0.0550617 0.623245 0)
(0.0175332 0.62695 0)
(3 -1.0769e-17 0)
(3 -1.01341e-16 0)
(3 2.43124e-17 0)
(3 2.16557e-16 0)
(3 4.84532e-16 0)
(3 7.86213e-16 0)
(3 6.30827e-16 0)
(3 3.21783e-16 0)
(3 3.00316e-16 0)
(3 4.3731e-16 0)
(3 7.62704e-16 0)
(3 9.85686e-16 0)
(3 9.8833e-16 0)
(3 8.4481e-16 0)
(3 6.97632e-16 0)
(3 6.7325e-16 0)
(3 7.46645e-16 0)
(3 8.42266e-16 0)
(3 7.08683e-16 0)
(3 3.79533e-16 0)
(3 -1.29811e-16 0)
(3 1.61328e-16 0)
(3 5.41809e-16 0)
(3 9.75264e-16 0)
(3 6.93639e-16 0)
(3 -1.22796e-16 0)
(3 5.85729e-18 0)
(3 -7.37903e-17 0)
(3 -1.44805e-16 0)
(3 -3.84488e-16 0)
(3 -9.0422e-16 0)
(3 -9.47192e-16 0)
(3 -6.44351e-16 0)
(3 1.15706e-16 0)
(3 1.02213e-15 0)
(3 1.15569e-15 0)
(3 7.07048e-16 0)
(3 4.14376e-16 0)
(3 7.99229e-16 0)
(3 1.22143e-15 0)
(3 1.29044e-15 0)
(3 1.2295e-15 0)
(3 1.83667e-15 0)
(3 1.95886e-15 0)
(3 1.97689e-15 0)
(3 1.81473e-15 0)
(3 1.12968e-15 0)
(3 8.33486e-16 0)
(3 -1.61188e-15 0)
(3 7.10082e-12 0)
(3.01444 0.00359801 0)
(1.47088 0.382179 0)
(0.848295 0.34949 0)
(0.814549 0.338348 0)
(0.800388 0.344121 0)
(0.783616 0.348252 0)
(0.767822 0.352385 0)
(0.752445 0.355 0)
(0.737689 0.355845 0)
(0.723627 0.356178 0)
(0.710112 0.357113 0)
(0.696891 0.358968 0)
(0.683714 0.361656 0)
(0.670436 0.36503 0)
(0.657196 0.369485 0)
(0.644563 0.375794 0)
(0.633011 0.383584 0)
(0.62191 0.390909 0)
(0.610375 0.396024 0)
(0.598248 0.39926 0)
(0.585738 0.403724 0)
(0.573768 0.411942 0)
(0.56223 0.422732 0)
(0.549446 0.432683 0)
(0.535673 0.441346 0)
(0.521839 0.450479 0)
(0.507961 0.460306 0)
(0.493669 0.470347 0)
(0.478591 0.480409 0)
(0.462882 0.490773 0)
(0.446612 0.501976 0)
(0.429797 0.514187 0)
(0.412069 0.52691 0)
(0.393715 0.54045 0)
(0.374637 0.555035 0)
(0.354721 0.570902 0)
(0.333662 0.58805 0)
(0.31143 0.606736 0)
(0.28797 0.626719 0)
(0.263199 0.64731 0)
(0.236988 0.667347 0)
(0.208617 0.685449 0)
(0.178102 0.703512 0)
(0.141642 0.724056 0)
(0.0959715 0.747677 0)
(0.0365401 0.767543 0)
(3 2.04408e-17 0)
(3 6.1376e-17 0)
(3 2.38436e-16 0)
(3 1.38734e-16 0)
(3 8.06383e-17 0)
(3 3.72946e-17 0)
(3 1.08956e-16 0)