/*--------------------------------*- C++ -*----------------------------------*\
  =========                 |
  \\      /  F ield         | OpenFOAM: The Open Source CFD Toolbox
   \\    /   O peration     | Website:  https://openfoam.org
    \\  /    A nd           | Version:  7
     \\/     M anipulation  |
\*---------------------------------------------------------------------------*/
FoamFile
{
    version     2.0;
    format      ascii;
    class       volScalarField;
    location    "22";
    object      p;
}
// * * * * * * * * * * * * * * * * * * * * * * * * * * * * * * * * * * * * * //

dimensions      [0 2 -2 0 0 0 0];

internalField   nonuniform List<scalar> 
8800
(
0.421184
0.373399
0.334711
0.305716
0.284849
0.27001
0.259398
0.251889
0.247014
0.244855
0.245974
0.250011
0.256521
0.265727
0.278426
0.296103
0.32084
0.354752
0.397275
0.455973
0.252434
0.260112
0.267593
0.270903
0.269401
0.264322
0.25783
0.251734
0.246969
0.244046
0.243633
0.24597
0.250305
0.256125
0.262794
0.268997
0.272583
0.271815
0.266351
0.257635
0.230839
0.237004
0.241139
0.244094
0.246152
0.24676
0.245646
0.243518
0.24144
0.240409
0.241208
0.243418
0.246058
0.248104
0.248604
0.247319
0.244907
0.24146
0.236877
0.233109
0.225043
0.227699
0.230471
0.232896
0.234549
0.235719
0.236454
0.236542
0.236176
0.235997
0.236561
0.237536
0.238195
0.238101
0.23736
0.236159
0.234251
0.231604
0.229156
0.227651
0.219686
0.221118
0.222935
0.225013
0.22684
0.228212
0.229205
0.229974
0.230519
0.23094
0.231371
0.231626
0.231505
0.231023
0.230149
0.228743
0.22691
0.22495
0.223583
0.222754
0.214652
0.215575
0.216877
0.218523
0.220233
0.221824
0.223146
0.224196
0.225076
0.225802
0.226232
0.226275
0.225962
0.225261
0.224133
0.222709
0.221187
0.219767
0.218871
0.218331
0.209862
0.21053
0.211575
0.213001
0.214533
0.216095
0.217616
0.218974
0.220111
0.221022
0.221536
0.221543
0.221077
0.2202
0.219061
0.21781
0.216522
0.215384
0.214713
0.214327
0.205267
0.205769
0.206661
0.207963
0.209405
0.210915
0.212461
0.213967
0.215317
0.216416
0.217057
0.217098
0.216617
0.215783
0.21476
0.213645
0.212511
0.211548
0.211019
0.210735
0.200916
0.201291
0.202063
0.203281
0.204678
0.20613
0.207624
0.209168
0.210699
0.212051
0.212832
0.212937
0.212577
0.211932
0.211093
0.210115
0.2091
0.208274
0.207859
0.207652
0.196799
0.197076
0.197763
0.19894
0.200328
0.201807
0.203367
0.204946
0.206516
0.207998
0.20905
0.209469
0.20937
0.208872
0.20813
0.207256
0.206328
0.205604
0.205277
0.205131
0.192985
0.193164
0.193779
0.194912
0.196258
0.197693
0.199252
0.200963
0.20277
0.20454
0.205871
0.206504
0.206582
0.206302
0.20578
0.205083
0.204283
0.203663
0.203421
0.203336
0.189603
0.189704
0.190184
0.191146
0.192335
0.193669
0.195175
0.196869
0.19876
0.200794
0.202522
0.203603
0.204114
0.204211
0.204003
0.203605
0.203083
0.202681
0.202547
0.202502
0.18639
0.186447
0.186796
0.18758
0.18865
0.189934
0.191481
0.19334
0.195517
0.197954
0.200152
0.201638
0.202485
0.202901
0.203016
0.202924
0.202712
0.202557
0.202514
0.20248
0.182811
0.182869
0.183135
0.183746
0.184666
0.185857
0.18741
0.189378
0.191831
0.194749
0.197544
0.199615
0.20103
0.201891
0.20242
0.202716
0.202848
0.202917
0.202928
0.202889
0.17845
0.178508
0.178771
0.179339
0.180227
0.18149
0.183212
0.185497
0.18842
0.191984
0.195506
0.198229
0.20012
0.201425
0.202307
0.202908
0.203309
0.203509
0.203544
0.203499
0.1731
0.17316
0.17347
0.174111
0.175099
0.176534
0.178558
0.181278
0.184829
0.189229
0.193642
0.197108
0.199584
0.201365
0.202619
0.203491
0.204072
0.204344
0.204404
0.204359
0.166705
0.166754
0.16712
0.167904
0.169138
0.17092
0.173386
0.176732
0.181099
0.186541
0.192061
0.19645
0.199632
0.201902
0.203494
0.204681
0.205371
0.205698
0.205791
0.205747
0.159273
0.159311
0.159748
0.160793
0.162293
0.164541
0.167622
0.171769
0.177183
0.183939
0.190818
0.196311
0.200332
0.203206
0.205243
0.206631
0.207471
0.207886
0.208022
0.207978
0.150652
0.150681
0.151196
0.152437
0.154443
0.157182
0.161053
0.166219
0.172951
0.181349
0.189894
0.196745
0.201777
0.205385
0.207941
0.209615
0.210662
0.211205
0.211385
0.211336
0.140516
0.140551
0.14118
0.142636
0.145113
0.148657
0.153456
0.159929
0.168354
0.178806
0.189396
0.197877
0.20411
0.208582
0.21173
0.213846
0.215171
0.215873
0.216095
0.216033
0.12822
0.128265
0.129049
0.130902
0.13398
0.138411
0.144521
0.152723
0.163312
0.176326
0.189401
0.199816
0.207459
0.212975
0.216844
0.219481
0.221155
0.222035
0.222302
0.222223
0.11294
0.113006
0.114046
0.116452
0.1204
0.126096
0.13395
0.144422
0.157786
0.173979
0.190043
0.202748
0.212065
0.21876
0.223491
0.226745
0.228829
0.229904
0.230227
0.230126
0.0935156
0.093621
0.095055
0.0983109
0.103594
0.11111
0.121395
0.134903
0.151807
0.171876
0.191462
0.206815
0.218042
0.226133
0.231879
0.235868
0.238446
0.239777
0.240152
0.240022
0.0681279
0.0683049
0.0704169
0.0751053
0.0825206
0.0928203
0.106584
0.124147
0.145499
0.170199
0.193837
0.212183
0.225577
0.23527
0.242214
0.247084
0.250245
0.251857
0.252294
0.25213
0.0337624
0.0341263
0.0376139
0.0449957
0.0560161
0.0706645
0.0893996
0.112303
0.139123
0.169202
0.197362
0.218989
0.234772
0.246279
0.25463
0.260577
0.264469
0.266426
0.266918
0.266703
-0.0153933
-0.0140189
-0.00697153
0.00591541
0.0232071
0.044567
0.0701702
0.0998347
0.133103
0.169184
0.202201
0.2273
0.245632
0.259128
0.269099
0.276362
0.281195
0.283611
0.284166
0.28388
-0.0886845
-0.0803572
-0.0640798
-0.0411891
-0.0144502
0.0158794
0.0498937
0.0873642
0.127815
0.170481
0.208831
0.237831
0.259141
0.275074
0.287166
0.29631
0.302652
0.305988
0.306853
0.306704
-0.167151
-0.148223
-0.122102
-0.0888447
-0.0523791
-0.0129412
0.0295842
0.075081
0.123172
0.173212
0.217992
0.252028
0.277348
0.296632
0.311641
0.323381
0.331911
0.336873
0.338553
0.338584
-0.230691
-0.209078
-0.174908
-0.133259
-0.0882478
-0.0403365
0.0103334
0.063589
0.119062
0.176131
0.226869
0.2654
0.29418
0.316253
0.333528
0.347039
0.357167
0.363149
0.364489
0.364697
-0.282393
-0.258799
-0.219675
-0.172006
-0.120312
-0.0654043
-0.0076386
0.0526314
0.114902
0.178471
0.234593
0.27698
0.308505
0.332584
0.351365
0.366082
0.377029
0.383416
0.385058
0.385376
-0.324981
-0.300447
-0.257799
-0.205535
-0.148529
-0.0879188
-0.0241461
0.0422637
0.110625
0.18005
0.240933
0.286557
0.320212
0.345722
0.365479
0.380898
0.392204
0.398908
0.40092
0.401247
-0.361325
-0.336257
-0.291014
-0.235055
-0.1737
-0.108284
-0.0393555
0.03243
0.106235
0.180944
0.246091
0.294486
0.329835
0.356351
0.376664
0.392338
0.403739
0.410505
0.41267
0.412952
-0.393365
-0.367982
-0.320751
-0.261733
-0.196715
-0.127148
-0.0536909
0.0229018
0.10165
0.18124
0.250318
0.301241
0.338077
0.365386
0.386035
0.401768
0.413148
0.419929
0.422223
0.422486
-0.422548
-0.396878
-0.348017
-0.286405
-0.218244
-0.145048
-0.0675525
0.0133986
0.096718
0.180908
0.253793
0.307171
0.345392
0.373418
0.39438
0.410178
0.421545
0.428255
0.430646
0.430887
-0.449727
-0.4238
-0.373523
-0.309682
-0.238763
-0.162361
-0.0812564
0.0036759
0.0912715
0.17988
0.256493
0.312342
0.352037
0.380879
0.40223
0.418167
0.429529
0.436107
0.438527
0.43885
-0.475601
-0.449352
-0.397774
-0.332014
-0.258635
-0.179384
-0.0950202
-0.00643904
0.0851562
0.178024
0.258414
0.316925
0.358296
0.388098
0.40995
0.426101
0.437508
0.443989
0.446339
0.446652
-0.500453
-0.473864
-0.421166
-0.353658
-0.278085
-0.196283
-0.108987
-0.0170686
0.0782837
0.175329
0.259638
0.321008
0.364252
0.395213
0.417729
0.434218
0.445734
0.452165
0.454374
0.454616
-0.524619
-0.497639
-0.443941
-0.374796
-0.297268
-0.213191
-0.123241
-0.0282599
0.0706283
0.171755
0.260049
0.324528
0.369927
0.402293
0.425661
0.442617
0.454303
0.460696
0.462737
0.462886
-0.54815
-0.520658
-0.466184
-0.395537
-0.316269
-0.230147
-0.137808
-0.0400313
0.0621436
0.167181
0.259539
0.32741
0.375307
0.409342
0.433756
0.451306
0.463212
0.469562
0.471464
0.471473
-0.57113
-0.543218
-0.487861
-0.415911
-0.335092
-0.247153
-0.152689
-0.0524033
0.0527801
0.161551
0.25802
0.329534
0.380275
0.416309
0.441993
0.460262
0.472421
0.478672
0.480408
0.480293
-0.593636
-0.56523
-0.50904
-0.435925
-0.353735
-0.26419
-0.167853
-0.0653419
0.0425703
0.154849
0.255371
0.330743
0.384691
0.42311
0.450335
0.469438
0.481843
0.487916
0.489426
0.489208
-0.61568
-0.586719
-0.529732
-0.455552
-0.372145
-0.281205
-0.183229
-0.0787714
0.0315683
0.147046
0.251493
0.330851
0.388369
0.429634
0.458765
0.478829
0.491396
0.497172
0.498396
0.498086
-0.637096
-0.60762
-0.549878
-0.474751
-0.39027
-0.298114
-0.19874
-0.0926012
0.0198394
0.138176
0.246308
0.329673
0.391048
0.435696
0.467285
0.488532
0.501061
0.506258
0.507098
0.506705
-0.65783
-0.627872
-0.569438
-0.493459
-0.408046
-0.314853
-0.214288
-0.106748
0.00747474
0.128289
0.239773
0.327035
0.392442
0.441
0.475848
0.498834
0.511087
0.515081
0.515277
0.514837
-0.677959
-0.64744
-0.588377
-0.511637
-0.425407
-0.331335
-0.229783
-0.121098
-0.0054123
0.117473
0.231878
0.322801
0.392224
0.445075
0.484194
0.510164
0.522411
0.524131
0.522773
0.522356
-0.697303
-0.666306
-0.606641
-0.529216
-0.44229
-0.347477
-0.245126
-0.135532
-0.0186932
0.105851
0.222669
0.316874
0.3901
0.447251
0.491575
0.522548
0.536826
0.536152
0.531083
0.529551
-0.715951
-0.68446
-0.62425
-0.546223
-0.458729
-0.363327
-0.260375
-0.150112
-0.0324377
0.0933548
0.21203
0.309016
0.385771
0.446703
0.49652
0.534735
0.555149
0.557144
0.546988
0.527367
-0.733844
-0.70191
-0.641328
-0.562844
-0.475012
-0.379213
-0.275942
-0.165323
-0.047195
0.07932
0.199264
0.298358
0.37848
0.442242
0.495911
0.541838
0.568771
0.566855
0.55167
0.529246
-0.750821
-0.718814
-0.657698
-0.57883
-0.490849
-0.394792
-0.2916
-0.180832
-0.0626332
0.0640645
0.184573
0.284688
0.367805
0.433294
0.484668
0.531811
0.558513
0.547529
0.476375
0.438401
-0.766264
-0.736253
-0.673011
-0.593607
-0.505544
-0.409597
-0.307062
-0.196419
-0.0785336
0.0477399
0.16799
0.267915
0.352973
0.420249
0.462022
0.493021
0.505155
0.458954
0.384693
0.337292
-0.82079
-0.751223
-0.686964
-0.608517
-0.520495
-0.424988
-0.322392
-0.212341
-0.095223
0.0299645
0.14905
0.24774
0.331347
0.404958
0.410435
0.423544
0.393515
0.329075
0.248259
0.202603
-0.781828
-0.766405
-0.707065
-0.629716
-0.542075
-0.447013
-0.34555
-0.23655
-0.121009
0.00184129
0.11759
0.21281
0.287884
0.358295
0.360035
0.249507
0.139658
0.0634649
-0.0149977
0.0250174
-0.81155
-0.783194
-0.723412
-0.646161
-0.558902
-0.464239
-0.362728
-0.254603
-0.140464
-0.0198973
0.0924116
0.183243
0.25069
0.28821
0.239901
0.0871197
-0.0518991
-0.152198
-0.263609
-0.199038
-0.83434
-0.802876
-0.74225
-0.664641
-0.577493
-0.483036
-0.381808
-0.274743
-0.162308
-0.0445435
0.0636474
0.148803
0.206566
0.215418
0.103068
-0.0909586
-0.260997
-0.39419
-0.554035
-0.499225
-0.856363
-0.823415
-0.761804
-0.683461
-0.596216
-0.50196
-0.401389
-0.295494
-0.184932
-0.0702757
0.0331078
0.111965
0.157041
0.127832
-0.0428392
-0.268838
-0.486633
-0.682569
-0.908536
-0.909328
-0.877454
-0.844341
-0.781994
-0.703021
-0.615657
-0.521659
-0.421844
-0.317215
-0.208742
-0.0975037
0.000551504
0.0724506
0.100173
0.0354326
-0.183655
-0.429699
-0.68667
-0.917868
-1.20884
-1.56523
-0.898672
-0.865784
-0.803049
-0.723687
-0.636198
-0.542417
-0.44328
-0.33993
-0.233618
-0.125976
-0.0334414
0.0308129
0.0415796
-0.0746322
-0.307516
-0.554389
-0.804264
-1.01837
-1.10191
-1.22884
-0.920751
-0.888101
-0.825248
-0.745757
-0.658259
-0.564779
-0.466403
-0.364487
-0.26063
-0.157036
-0.0704455
-0.0152923
-0.0280272
-0.191977
-0.416814
-0.644006
-0.844199
-0.963872
-0.988659
-1.01246
-0.944025
-0.911574
-0.848717
-0.769262
-0.681913
-0.588878
-0.491474
-0.391265
-0.290253
-0.191302
-0.111117
-0.0666546
-0.106025
-0.299712
-0.516332
-0.717248
-0.87108
-0.929176
-0.945336
-0.949178
-0.968682
-0.936322
-0.873488
-0.794136
-0.707052
-0.614649
-0.518425
-0.420217
-0.322451
-0.22875
-0.155518
-0.124071
-0.185298
-0.402585
-0.609145
-0.789644
-0.906933
-0.919267
-0.92355
-0.924123
-0.994644
-0.962192
-0.899562
-0.820311
-0.733616
-0.641996
-0.547157
-0.451242
-0.357099
-0.269204
-0.203536
-0.184015
-0.274682
-0.499813
-0.696685
-0.855195
-0.900966
-0.912798
-0.914965
-0.914656
-1.02162
-0.989063
-0.926745
-0.847636
-0.761436
-0.670757
-0.577511
-0.484153
-0.394029
-0.312336
-0.254933
-0.246991
-0.377645
-0.59228
-0.777046
-0.897566
-0.917614
-0.911852
-0.91131
-0.910733
-1.04901
-1.01667
-0.954561
-0.875852
-0.790242
-0.700653
-0.609187
-0.518619
-0.432879
-0.357715
-0.308857
-0.318061
-0.47819
-0.680162
-0.852753
-0.906729
-0.918767
-0.91486
-0.910947
-0.909794
-1.07649
-1.04442
-0.982612
-0.904488
-0.819608
-0.731238
-0.641732
-0.554134
-0.473026
-0.404783
-0.364222
-0.392288
-0.575126
-0.765904
-0.915502
-0.961532
-0.939913
-0.918807
-0.906553
-0.903529
-1.10304
-1.07165
-1.01046
-0.932921
-0.848891
-0.761906
-0.674483
-0.58999
-0.513537
-0.452649
-0.420353
-0.462672
-0.662543
-0.859851
-0.958575
-0.956647
-0.951432
-0.950247
-0.945532
-0.940274
-1.12769
-1.09695
-1.03718
-0.960359
-0.877359
-0.791806
-0.706538
-0.625217
-0.553228
-0.499751
-0.476166
-0.53531
-0.740118
-0.929478
-1.09584
-1.10602
-1.10874
-1.11823
-1.11547
-1.10297
-1.1491
-1.11966
-1.06133
-0.985766
-0.904012
-0.819979
-0.736769
-0.658479
-0.59071
-0.543843
-0.530226
-0.609025
-0.835518
-0.994867
-1.19173
-1.25275
-1.31264
-1.36176
-1.35499
-1.35041
-1.16584
-1.13823
-1.08194
-1.00792
-0.927617
-0.845186
-0.763894
-0.688054
-0.624208
-0.582516
-0.582031
-0.678205
-0.980645
-1.01615
-0.691748
-0.910505
-1.34092
-1.48547
-1.47041
-1.46918
-1.17647
-1.15131
-1.09771
-1.02559
-0.946864
-0.866047
-0.786371
-0.712152
-0.651015
-0.613959
-0.626404
-0.745572
-1.14754
-1.43893
-1.5035
-1.78724
-1.83422
-1.72236
-1.59698
-1.61108
-1.17934
-1.15754
-1.10733
-1.03758
-0.960562
-0.881183
-0.802588
-0.729049
-0.667856
-0.633902
-0.651819
-0.828225
-1.38823
-2.31407
-3.24456
-3.73255
-3.6464
-3.12
-2.63462
-2.43803
-1.17374
-1.15565
-1.10969
-1.04295
-0.967741
-0.889528
-0.811182
-0.73679
-0.672709
-0.632553
-0.647396
-0.8132
-1.38813
-2.18418
-2.96171
-3.31316
-3.28987
-3.00628
-2.66823
-2.48877
-1.1585
-1.144
-1.10403
-1.04125
-0.967969
-0.890532
-0.811525
-0.734169
-0.663881
-0.608427
-0.59661
-0.630752
-0.848713
-0.993186
-1.09312
-1.02943
-0.818006
-0.583701
-0.393583
-0.294089
-1.13469
-1.12423
-1.09062
-1.03285
-0.961552
-0.884495
-0.804025
-0.72239
-0.640876
-0.566017
-0.494715
-0.408304
-0.215072
0.179664
0.657149
1.12741
1.47653
1.698
1.81084
1.84613
-1.10467
-1.09812
-1.07162
-1.01928
-0.94982
-0.872829
-0.790617
-0.703881
-0.612973
-0.51417
-0.408841
-0.306628
0.031196
0.632462
1.28062
1.85529
2.27915
2.52652
2.63704
2.66959
-1.07202
-1.06842
-1.05025
-1.00274
-0.934748
-0.857582
-0.774207
-0.685144
-0.588184
-0.475774
-0.359076
-0.228359
-0.0176456
0.503395
1.09066
1.59766
1.9662
2.18379
2.28901
2.32577
-1.04092
-1.03934
-1.02778
-0.985282
-0.917634
-0.83981
-0.756965
-0.66873
-0.571853
-0.460365
-0.340789
-0.216473
-0.0808144
0.217052
0.627971
0.983055
1.25677
1.4256
1.50899
1.53671
-1.0012
-1.00243
-0.995447
-0.95764
-0.892076
-0.816269
-0.738007
-0.655547
-0.565402
-0.461268
-0.351995
-0.251316
-0.149811
0.00480048
0.277737
0.530967
0.727096
0.851354
0.917593
0.936029
-0.929873
-0.93172
-0.926914
-0.897296
-0.843232
-0.779508
-0.712552
-0.641218
-0.561233
-0.467787
-0.370839
-0.294641
-0.22704
-0.140769
0.0417719
0.213993
0.342074
0.421008
0.456157
0.465005
-0.830052
-0.830268
-0.825907
-0.808085
-0.773545
-0.729889
-0.680624
-0.624312
-0.55686
-0.474294
-0.391349
-0.335107
-0.309506
-0.263069
-0.133027
-0.0138178
0.0698301
0.117314
0.137674
0.141189
-0.739414
-0.73851
-0.735457
-0.726838
-0.709287
-0.683547
-0.651227
-0.610015
-0.554723
-0.480087
-0.400195
-0.348525
-0.34197
-0.313917
-0.22639
-0.150239
-0.0976916
-0.0688545
-0.0567618
-0.0564106
-0.685656
-0.684325
-0.682127
-0.678154
-0.669503
-0.654911
-0.634569
-0.605567
-0.560977
-0.490583
-0.406894
-0.340656
-0.308598
-0.279284
-0.231592
-0.194025
-0.173038
-0.162196
-0.158617
-0.159237
-0.669638
-0.668449
-0.666703
-0.664211
-0.659169
-0.65068
-0.638429
-0.619801
-0.58675
-0.522643
-0.430496
-0.33824
-0.274313
-0.245146
-0.234158
-0.221845
-0.207224
-0.197545
-0.192236
-0.193138
-0.680935
-0.680037
-0.679025
-0.677951
-0.676004
-0.673228
-0.670172
-0.665641
-0.651804
-0.609486
-0.517999
-0.39584
-0.301034
-0.275355
-0.268743
-0.250018
-0.232348
-0.214571
-0.205925
-0.207222
-0.709581
-0.709262
-0.709564
-0.710854
-0.713621
-0.719632
-0.731721
-0.753004
-0.782418
-0.800855
-0.734844
-0.577035
-0.45099
-0.407356
-0.374899
-0.325596
-0.269532
-0.229252
-0.214925
-0.219354
-0.743305
-0.74396
-0.746195
-0.751012
-0.760826
-0.780031
-0.816059
-0.882622
-0.998763
-1.14084
-1.12677
-0.89767
-0.704256
-0.62639
-0.5379
-0.433115
-0.340389
-0.27905
-0.262846
-0.266905
-0.766524
-0.768416
-0.772902
-0.781961
-0.800244
-0.835514
-0.902201
-1.03193
-1.2791
-1.62779
-1.68624
-1.34787
-1.03186
-0.875662
-0.735772
-0.583744
-0.458147
-0.387411
-0.378669
-0.383295
-0.762448
-0.765304
-0.77155
-0.784428
-0.809685
-0.85932
-0.953646
-1.14097
-1.51264
-2.05249
-2.23288
-1.81019
-1.36003
-1.12693
-0.945295
-0.780294
-0.663881
-0.608602
-0.601571
-0.606095
-0.71789
-0.721103
-0.727946
-0.741975
-0.770294
-0.824919
-0.929677
-1.13943
-1.5543
-2.14946
-2.37136
-1.96473
-1.526
-1.30547
-1.11539
-1.00102
-0.946352
-0.920645
-0.904327
-0.901296
-0.631549
-0.634336
-0.640247
-0.65241
-0.677337
-0.725442
-0.818715
-1.00689
-1.37426
-1.87905
-2.01811
-1.72021
-1.45215
-1.27327
-1.15721
-1.12573
-1.12353
-1.10449
-1.0849
-1.07663
-0.514916
-0.516722
-0.520593
-0.528866
-0.546404
-0.580651
-0.647264
-0.781191
-1.04503
-1.41146
-1.51662
-1.36164
-1.19886
-1.05654
-1.00805
-1.03136
-1.05063
-1.04183
-1.02981
-1.0238
-0.38716
-0.387845
-0.389462
-0.393426
-0.402631
-0.421203
-0.45761
-0.530695
-0.677604
-0.902389
-0.988428
-0.918724
-0.802178
-0.735719
-0.757748
-0.818244
-0.83254
-0.831877
-0.82895
-0.826539
-0.267192
-0.266992
-0.266919
-0.267539
-0.27012
-0.276102
-0.288406
-0.313452
-0.36437
-0.457457
-0.500199
-0.456079
-0.414251
-0.444859
-0.526354
-0.576252
-0.589865
-0.593317
-0.594064
-0.593483
-0.167747
-0.167078
-0.166125
-0.164962
-0.163763
-0.162375
-0.160672
-0.158549
-0.155065
-0.140035
-0.122745
-0.125808
-0.180104
-0.264916
-0.333044
-0.3663
-0.37992
-0.38524
-0.388297
-0.388938
-0.0936304
-0.0928501
-0.0917128
-0.0900989
-0.0876202
-0.0834796
-0.0765916
-0.0651927
-0.0464173
-0.0172461
0.00704375
-0.0125057
-0.0808676
-0.148833
-0.193665
-0.216962
-0.227428
-0.233222
-0.236726
-0.237795
-0.0434371
-0.0427593
-0.041813
-0.0404851
-0.0382072
-0.0340762
-0.0270446
-0.0156839
0.0014884
0.0231643
0.0328593
0.0114116
-0.0358667
-0.0799826
-0.109582
-0.12513
-0.132664
-0.136784
-0.139393
-0.140261
-0.0125512
-0.0120511
-0.0114014
-0.0105881
-0.00904768
-0.00601146
-0.000728062
0.00759922
0.0192021
0.0312352
0.0316536
0.0130918
-0.0167947
-0.0437845
-0.0620237
-0.0721121
-0.0770267
-0.079667
-0.081314
-0.081871
0.00432514
0.00465665
0.00504165
0.0053898
0.00618936
0.00801302
0.0113292
0.0164784
0.0231219
0.0285043
0.0250404
0.0107688
-0.00799425
-0.0243245
-0.0354396
-0.0417206
-0.0448328
-0.0464606
-0.0474349
-0.0477592
0.0117839
0.011986
0.0121754
0.0122163
0.0124918
0.0133778
0.0151644
0.0179478
0.0212444
0.0229338
0.0186281
0.0084252
-0.00335165
-0.0132515
-0.0200338
-0.0239653
-0.0259529
-0.0269635
-0.0275407
-0.0277273
0.0132762
0.0133915
0.013462
0.0133455
0.0133152
0.0136098
0.0144111
0.0157141
0.0170938
0.0170971
0.0133227
0.00643862
-0.000855591
-0.00683082
-0.0109492
-0.0134079
-0.0146954
-0.0153135
-0.0156434
-0.015752
0.0111528
0.011214
0.0112207
0.0110509
0.0108818
0.010876
0.0111426
0.0116484
0.0120911
0.011577
0.0088671
0.00459254
0.00030421
-0.00314901
-0.0055452
-0.00701121
-0.00779122
-0.00816609
-0.00835656
-0.00842014
0.00691781
0.00694599
0.00692638
0.00677101
0.00659719
0.00650598
0.00655411
0.00671004
0.00680359
0.00637884
0.00487542
0.00268583
0.0005635
-0.00112657
-0.00230623
-0.00304448
-0.00344623
-0.00364368
-0.00373845
-0.00377685
0.00150662
0.00151895
0.00158888
0.00165444
0.00163379
0.00158483
0.00154053
0.001512
0.00147884
0.00138221
0.00111387
0.000655205
0.000166426
-0.000255429
-0.000567266
-0.000761749
-0.000828663
-0.000779542
-0.000709247
-0.000673434
-0.6428
-0.436701
-0.202015
-0.00546138
0.153729
0.281547
0.388983
0.479597
0.520464
0.497889
-0.271862
-0.12842
0.0225172
0.152998
0.263699
0.356218
0.431356
0.484861
0.512417
0.523962
-0.0139776
0.0824306
0.184231
0.274676
0.352709
0.418159
0.470174
0.508161
0.535091
0.552475
0.169491
0.236196
0.307546
0.372573
0.429068
0.476941
0.516061
0.546999
0.571722
0.58964
0.309354
0.357701
0.409237
0.458127
0.501218
0.538627
0.570427
0.596624
0.61821
0.63582
0.422606
0.458787
0.500287
0.539152
0.574581
0.606127
0.63351
0.656334
0.674978
0.692224
0.520691
0.551279
0.587626
0.621769
0.653476
0.682113
0.707022
0.727599
0.74365
0.760705
0.612713
0.643107
0.678574
0.711867
0.742563
0.770084
0.793701
0.812748
0.826505
0.843558
0.710173
0.744029
0.781586
0.815965
0.846706
0.87349
0.895927
0.913569
0.925715
0.94315
0.826581
0.864613
0.903857
0.93865
0.96843
0.993546
1.01422
1.03035
1.042
1.06011
0.972427
1.01127
1.04753
1.0785
1.10444
1.12675
1.14599
1.16167
1.17422
1.19225
1.14766
1.17966
1.20603
1.2286
1.24872
1.26758
1.2854
1.30196
1.31739
1.33548
1.33657
1.35391
1.36913
1.38548
1.40147
1.41608
1.42935
1.44333
1.46092
1.4811
1.51869
1.52813
1.53972
1.55057
1.55989
1.56954
1.58041
1.59182
1.60322
1.61859
1.72586
1.72956
1.71464
1.69985
1.69364
1.69937
1.71786
1.74821
1.78041
1.80707
2.03221
1.89735
1.82076
1.77848
1.76108
1.76505
1.79248
1.8489
1.95153
2.1759
0.31178
0.309653
0.305167
0.296543
0.284321
0.272191
0.261955
0.254039
0.248377
0.245039
0.244543
0.247112
0.25206
0.259153
0.268441
0.279904
0.292496
0.30349
0.309584
0.312621
0.236232
0.24208
0.24842
0.252918
0.255391
0.255067
0.252326
0.2485
0.244942
0.242588
0.242292
0.24431
0.24781
0.251958
0.255651
0.257448
0.256446
0.252911
0.247708
0.241072
0.227813
0.230109
0.233524
0.236537
0.238627
0.240133
0.240888
0.240552
0.239479
0.238499
0.23851
0.239739
0.241367
0.242511
0.242557
0.241556
0.239915
0.237504
0.234188
0.231245
0.222317
0.223402
0.225254
0.227666
0.229722
0.231176
0.232205
0.232939
0.233289
0.233399
0.233705
0.234287
0.234668
0.23454
0.233961
0.232967
0.231371
0.229179
0.227014
0.225607
0.217141
0.217799
0.218936
0.220696
0.222535
0.224218
0.225546
0.226556
0.227385
0.228064
0.228584
0.228853
0.228777
0.228369
0.227582
0.226326
0.224722
0.223028
0.221605
0.2208
0.212224
0.212673
0.213499
0.214897
0.216495
0.218112
0.219655
0.220988
0.22208
0.222991
0.223653
0.223901
0.223721
0.223122
0.222112
0.220837
0.219451
0.218093
0.217033
0.216493
0.207544
0.207871
0.208528
0.209719
0.211156
0.212661
0.21421
0.215726
0.217093
0.218229
0.219039
0.219334
0.219075
0.218365
0.217365
0.216225
0.215043
0.213892
0.213047
0.212649
0.203054
0.203288
0.20383
0.204915
0.206289
0.207749
0.209252
0.210794
0.212309
0.213668
0.214666
0.215042
0.214826
0.214203
0.213347
0.212349
0.211271
0.210246
0.20954
0.209245
0.198832
0.198999
0.199445
0.200427
0.20174
0.203164
0.204643
0.206159
0.2077
0.209212
0.21042
0.210986
0.210979
0.210586
0.209912
0.209054
0.208102
0.207208
0.206634
0.206416
0.194838
0.194941
0.19532
0.196267
0.197585
0.199018
0.200558
0.202199
0.20389
0.205552
0.206997
0.207869
0.208092
0.207833
0.20726
0.206516
0.205655
0.204831
0.20434
0.20419
0.191252
0.191299
0.191593
0.19242
0.19361
0.194925
0.196355
0.197937
0.199711
0.201618
0.203386
0.204573
0.205107
0.205205
0.204984
0.204523
0.20391
0.203282
0.20293
0.202846
0.188005
0.18802
0.188227
0.188881
0.18991
0.191137
0.192562
0.194218
0.196116
0.198238
0.200391
0.202042
0.203008
0.203431
0.203494
0.203326
0.20301
0.202662
0.202489
0.20245
0.184685
0.184693
0.184847
0.185334
0.186184
0.187298
0.18866
0.190369
0.192479
0.194988
0.197645
0.199807
0.201223
0.202077
0.202539
0.202742
0.202769
0.202729
0.202714
0.202694
0.180744
0.180752
0.180897
0.1813
0.182029
0.18308
0.184486
0.186325
0.188697
0.191646
0.194928
0.197765
0.199748
0.201102
0.20198
0.202562
0.202923
0.203146
0.20323
0.203217
0.175913
0.175919
0.176077
0.176507
0.177258
0.178378
0.179946
0.182117
0.184975
0.188572
0.192643
0.196228
0.198839
0.200654
0.201901
0.202789
0.203431
0.203812
0.203942
0.203936
0.170035
0.170027
0.17022
0.170748
0.171619
0.172951
0.174836
0.177426
0.180882
0.185301
0.190374
0.194906
0.198231
0.200617
0.202333
0.203514
0.204372
0.204851
0.205023
0.205031
0.16312
0.163094
0.163298
0.163937
0.165123
0.166763
0.169095
0.172317
0.176592
0.182066
0.188369
0.194046
0.198259
0.201285
0.203434
0.204988
0.205993
0.206556
0.206782
0.206809
0.155124
0.155081
0.155326
0.156112
0.157566
0.159678
0.162587
0.166589
0.171902
0.178694
0.186527
0.193605
0.198881
0.202694
0.20541
0.207312
0.208532
0.209236
0.209542
0.209586
0.145786
0.145724
0.14602
0.146977
0.148731
0.151444
0.15511
0.160092
0.166721
0.175177
0.184904
0.193683
0.200251
0.205013
0.208388
0.210723
0.212254
0.213157
0.213554
0.213609
0.134647
0.134576
0.134971
0.136182
0.138343
0.141631
0.146248
0.15256
0.160896
0.171468
0.18354
0.194381
0.202468
0.208325
0.21251
0.215406
0.217335
0.218497
0.218995
0.219059
0.120945
0.12086
0.121403
0.122945
0.12567
0.129823
0.135715
0.14376
0.154324
0.167571
0.182516
0.195822
0.205714
0.212904
0.218005
0.221564
0.223966
0.225421
0.226036
0.22611
0.10371
0.103612
0.104388
0.106448
0.110018
0.115434
0.123105
0.133494
0.146948
0.163539
0.181954
0.198167
0.210158
0.218856
0.225061
0.229414
0.232375
0.234165
0.234914
0.234994
0.0814716
0.0813755
0.0825375
0.0854295
0.0903275
0.0976794
0.107931
0.121537
0.138753
0.159486
0.182014
0.201573
0.21596
0.226402
0.233887
0.239183
0.242818
0.24501
0.245909
0.245998
0.0519181
0.0518697
0.0537392
0.0580893
0.065225
0.0756631
0.0897554
0.107811
0.129877
0.155622
0.182895
0.206206
0.223262
0.235673
0.244643
0.251059
0.255506
0.258177
0.259249
0.25934
0.0108768
0.0110314
0.0144707
0.0218676
0.0331494
0.0486944
0.0684967
0.0925584
0.120665
0.152271
0.184832
0.21221
0.232146
0.246723
0.257386
0.265141
0.270608
0.273872
0.275121
0.275202
-0.0493893
-0.0479439
-0.0396208
-0.0257296
-0.00676759
0.0169226
0.0447295
0.0764342
0.111685
0.149837
0.18804
0.219648
0.242572
0.259429
0.271942
0.281237
0.287912
0.291919
0.293394
0.293469
-0.121516
-0.119171
-0.103471
-0.0792887
-0.0497464
-0.0165471
0.0200439
0.059963
0.102936
0.148406
0.193295
0.230332
0.257423
0.277669
0.293019
0.304733
0.313406
0.318509
0.320059
0.320324
-0.195717
-0.188149
-0.165011
-0.13083
-0.0915749
-0.0491686
-0.00386381
0.0442586
0.0949699
0.147799
0.199493
0.242077
0.273379
0.297048
0.31535
0.329616
0.34039
0.346329
0.348908
0.349599
-0.254301
-0.245067
-0.217117
-0.176213
-0.129475
-0.079338
-0.0263123
0.0293734
0.0873768
0.147154
0.205155
0.252699
0.287594
0.313981
0.334379
0.350293
0.362324
0.369513
0.373135
0.374014
-0.301871
-0.292095
-0.260717
-0.214997
-0.162557
-0.106259
-0.0468038
0.0154432
0.0799733
0.146094
0.209809
0.261666
0.299467
0.327876
0.349731
0.366751
0.379641
0.387864
0.391811
0.392753
-0.341525
-0.331598
-0.298029
-0.248553
-0.191567
-0.130268
-0.0654108
0.00250419
0.0727933
0.144599
0.213435
0.269044
0.309213
0.339119
0.361924
0.379549
0.392881
0.401522
0.405639
0.406626
-0.375957
-0.366001
-0.330816
-0.278329
-0.217598
-0.152067
-0.0825581
-0.00968564
0.0657507
0.142702
0.216216
0.275189
0.317391
0.348479
0.371916
0.389808
0.403218
0.411975
0.41606
0.417148
-0.406736
-0.396797
-0.36039
-0.3054
-0.24155
-0.17238
-0.0987788
-0.0214715
0.0586454
0.140364
0.218257
0.280424
0.324544
0.356676
0.380603
0.39867
0.412086
0.42092
0.425001
0.426027
-0.435062
-0.42511
-0.38769
-0.330572
-0.264043
-0.191689
-0.114471
-0.0331656
0.0512547
0.137464
0.219603
0.284893
0.330876
0.36406
0.388512
0.406805
0.420288
0.429108
0.43323
0.434061
-0.461703
-0.451708
-0.413393
-0.354458
-0.285545
-0.210379
-0.129942
-0.0450075
0.0433993
0.133868
0.220147
0.288613
0.336605
0.370986
0.396083
0.414667
0.428245
0.43706
0.441172
0.441913
-0.487122
-0.477088
-0.437963
-0.377439
-0.306381
-0.22871
-0.145378
-0.0571521
0.0349353
0.129456
0.219869
0.291722
0.341941
0.377685
0.403575
0.422578
0.436341
0.445162
0.449228
0.449947
-0.511735
-0.501563
-0.46161
-0.399719
-0.326752
-0.246845
-0.160919
-0.0697054
0.025802
0.124211
0.218788
0.294178
0.346868
0.384226
0.411103
0.430672
0.444717
0.453596
0.457544
0.45825
-0.5357
-0.525312
-0.4847
-0.42147
-0.346785
-0.264894
-0.17663
-0.082698
0.0159708
0.118085
0.216765
0.295884
0.351345
0.390617
0.418708
0.439001
0.453418
0.462377
0.466206
0.466865
-0.559056
-0.548472
-0.507247
-0.442748
-0.366548
-0.282872
-0.192522
-0.0961451
0.00540836
0.110976
0.213706
0.296755
0.355309
0.396808
0.42637
0.447556
0.462429
0.471475
0.475162
0.475712
-0.581943
-0.571094
-0.529187
-0.463582
-0.386037
-0.300783
-0.208587
-0.11004
-0.00589065
0.102888
0.209553
0.296647
0.358619
0.402723
0.434054
0.456308
0.471699
0.480811
0.484309
0.484717
-0.604268
-0.593161
-0.550615
-0.483989
-0.405236
-0.31859
-0.224773
-0.124323
-0.0178665
0.0938371
0.204231
0.295418
0.361083
0.408213
0.441698
0.465234
0.481162
0.490241
0.493483
0.493733
-0.626051
-0.614677
-0.571486
-0.50393
-0.424098
-0.336237
-0.241012
-0.138908
-0.0304407
0.0838519
0.197702
0.292925
0.362495
0.413082
0.449229
0.474365
0.490825
0.499663
0.502498
0.502576
-0.647147
-0.635566
-0.59174
-0.523352
-0.442563
-0.353639
-0.257226
-0.153712
-0.043533
0.0730047
0.18996
0.289047
0.362614
0.417061
0.456518
0.483819
0.500849
0.509043
0.511155
0.51102
-0.667642
-0.655773
-0.611351
-0.542215
-0.460589
-0.370752
-0.273318
-0.168645
-0.0570412
0.0614006
0.181038
0.283691
0.361206
0.419768
0.463265
0.493722
0.511775
0.518726
0.519319
0.518808
-0.687408
-0.675257
-0.630289
-0.560468
-0.478092
-0.387486
-0.289202
-0.183582
-0.0708394
0.0491267
0.171014
0.276809
0.358072
0.420749
0.468888
0.503928
0.524544
0.530239
0.527669
0.525632
-0.706466
-0.694078
-0.648503
-0.578057
-0.495032
-0.403774
-0.304794
-0.198435
-0.084808
0.0363392
0.160003
0.268384
0.353077
0.419538
0.47239
0.513445
0.539454
0.546895
0.540825
0.529759
-0.724752
-0.712177
-0.666099
-0.59513
-0.511614
-0.419896
-0.320433
-0.213617
-0.0994178
0.0224993
0.147413
0.257762