/*--------------------------------*- C++ -*----------------------------------*\
  =========                 |
  \\      /  F ield         | OpenFOAM: The Open Source CFD Toolbox
   \\    /   O peration     | Website:  https://openfoam.org
    \\  /    A nd           | Version:  7
     \\/     M anipulation  |
\*---------------------------------------------------------------------------*/
FoamFile
{
    version     2.0;
    format      ascii;
    class       volScalarField;
    location    "1";
    object      p;
}
// * * * * * * * * * * * * * * * * * * * * * * * * * * * * * * * * * * * * * //

dimensions      [0 2 -2 0 0 0 0];

internalField   nonuniform List<scalar> 
8800
(
1.76708
1.72253
1.69042
1.66649
1.64798
1.63322
1.62138
1.61213
1.60557
1.60235
1.60362
1.60881
1.61688
1.62749
1.64077
1.65729
1.67824
1.70584
1.74313
1.79915
1.58769
1.58872
1.58775
1.58464
1.57893
1.57138
1.56317
1.55534
1.54877
1.5444
1.54348
1.54656
1.55233
1.55976
1.56797
1.57602
1.5828
1.58728
1.58921
1.58891
1.58946
1.59226
1.59329
1.59258
1.59008
1.58626
1.58156
1.57672
1.57264
1.57043
1.57138
1.57491
1.57966
1.58466
1.58908
1.59236
1.59416
1.59382
1.59225
1.59039
1.57382
1.57372
1.57345
1.57281
1.57162
1.56971
1.56712
1.56418
1.56152
1.56009
1.56083
1.56329
1.56639
1.56935
1.57169
1.57328
1.5742
1.57464
1.5748
1.57482
1.56032
1.5603
1.56011
1.5597
1.55897
1.55785
1.55632
1.55454
1.55287
1.55197
1.55256
1.55427
1.5563
1.55815
1.55959
1.56057
1.56115
1.56145
1.56155
1.56154
1.54789
1.54788
1.54779
1.54757
1.54718
1.54655
1.54569
1.54465
1.54368
1.54322
1.54372
1.54491
1.54624
1.54741
1.54828
1.54887
1.54921
1.54939
1.54945
1.54944
1.5362
1.53619
1.53614
1.53601
1.5358
1.53546
1.53499
1.53444
1.53393
1.53379
1.53426
1.53513
1.53605
1.53682
1.53738
1.53776
1.53798
1.53809
1.53813
1.53812
1.52488
1.52486
1.52484
1.52478
1.52467
1.52451
1.52429
1.52405
1.52388
1.52397
1.52447
1.52517
1.52585
1.5264
1.52679
1.52705
1.5272
1.52728
1.5273
1.5273
1.51373
1.51372
1.51371
1.51369
1.51366
1.51361
1.51356
1.51354
1.51362
1.51391
1.51448
1.51512
1.51569
1.51613
1.51643
1.51663
1.51674
1.5168
1.51682
1.51681
1.50264
1.50263
1.50263
1.50264
1.50266
1.5027
1.50278
1.50293
1.50321
1.5037
1.50438
1.50505
1.50559
1.50598
1.50625
1.50642
1.50652
1.50657
1.50658
1.50658
1.49151
1.4915
1.49152
1.49155
1.49161
1.49172
1.49191
1.49221
1.49268
1.49339
1.49423
1.49498
1.49556
1.49597
1.49624
1.49641
1.4965
1.49655
1.49657
1.49656
1.48027
1.48027
1.48029
1.48035
1.48045
1.48063
1.48093
1.48138
1.48206
1.483
1.48407
1.48497
1.48564
1.48611
1.48641
1.48659
1.4867
1.48675
1.48677
1.48675
1.46886
1.46885
1.46889
1.46897
1.46912
1.46937
1.46979
1.47042
1.47133
1.47257
1.47393
1.47505
1.47586
1.47642
1.47678
1.477
1.47712
1.47718
1.4772
1.47719
1.45719
1.45718
1.45723
1.45734
1.45754
1.45789
1.45844
1.45928
1.46048
1.4621
1.46384
1.46525
1.46627
1.46695
1.4674
1.46766
1.46782
1.46789
1.46791
1.46789
1.44517
1.44517
1.44523
1.44537
1.44564
1.4461
1.44683
1.44793
1.4495
1.4516
1.45383
1.45562
1.4569
1.45776
1.45832
1.45865
1.45884
1.45893
1.45896
1.45894
1.4327
1.43268
1.43277
1.43296
1.43332
1.43392
1.43488
1.43632
1.43836
1.44106
1.44392
1.4462
1.44782
1.44892
1.44962
1.45004
1.45028
1.45039
1.45043
1.4504
1.4196
1.41959
1.4197
1.41996
1.42043
1.42123
1.42248
1.42436
1.427
1.43049
1.43415
1.43706
1.43912
1.4405
1.44139
1.44193
1.44223
1.44237
1.44241
1.44238
1.4057
1.40569
1.40584
1.40617
1.4068
1.40785
1.4095
1.41195
1.41539
1.41989
1.42457
1.42828
1.43089
1.43265
1.43377
1.43444
1.43482
1.435
1.43506
1.43502
1.39071
1.3907
1.39091
1.39136
1.3922
1.39359
1.39578
1.39899
1.40346
1.40926
1.41524
1.41995
1.42326
1.42548
1.4269
1.42775
1.42823
1.42846
1.42853
1.42847
1.37426
1.37426
1.37454
1.37516
1.37629
1.37817
1.38108
1.38532
1.39114
1.39861
1.40623
1.41219
1.41637
1.41918
1.42097
1.42205
1.42265
1.42294
1.42303
1.42296
1.35581
1.35583
1.35623
1.35709
1.35865
1.36121
1.36513
1.37076
1.37837
1.38797
1.39763
1.40514
1.4104
1.41394
1.4162
1.41757
1.41833
1.4187
1.41881
1.41872
1.33455
1.33461
1.3352
1.33644
1.33865
1.34221
1.34757
1.35511
1.36508
1.37738
1.38955
1.39895
1.40554
1.40999
1.41286
1.4146
1.41558
1.41605
1.4162
1.41609
1.30922
1.30937
1.31029
1.31216
1.31541
1.32053
1.328
1.3382
1.35127
1.36693
1.38212
1.39377
1.40198
1.40758
1.41123
1.41349
1.41477
1.41539
1.4156
1.41546
1.27764
1.27803
1.2796
1.28265
1.28772
1.29537
1.30603
1.31993
1.337
1.35675
1.37545
1.38972
1.39986
1.4069
1.41162
1.41462
1.41637
1.41726
1.41757
1.4174
1.23562
1.23672
1.23989
1.2455
1.25406
1.26599
1.28146
1.30043
1.32252
1.34702
1.36965
1.38681
1.39917
1.408
1.41419
1.41835
1.42097
1.42243
1.42301
1.42286
1.17418
1.17822
1.18634
1.19807
1.2134
1.23233
1.25472
1.28021
1.30822
1.33797
1.36472
1.3849
1.39966
1.41059
1.41869
1.42465
1.42894
1.43186
1.4335
1.43359
1.07188
1.09744
1.11877
1.14225
1.16808
1.19643
1.22722
1.26009
1.29445
1.32957
1.3604
1.38358
1.40088
1.41419
1.42469
1.43318
1.4402
1.44612
1.45105
1.45522
0.969343
1.01985
1.05358
1.08815
1.12401
1.16139
1.20022
1.24017
1.28065
1.32099
1.35581
1.38194
1.40171
1.41733
1.43014
1.44097
1.4504
1.45878
1.46623
1.47541
0.905941
0.957567
0.998065
1.0403
1.08412
1.12926
1.17533
1.22179
1.26784
1.31261
1.35031
1.37813
1.39902
1.41554
1.42903
1.4403
1.44989
1.45816
1.46553
1.4739
0.852792
0.908661
0.953
1.00006
1.04951
1.10075
1.15296
1.20515
1.2561
1.30449
1.34398
1.37223
1.39301
1.40921
1.42233
1.4332
1.44238
1.45029
1.45726
1.46481
0.80842
0.866802
0.914256
0.965235
1.01928
1.0756
1.13308
1.19031
1.24555
1.2968
1.33705
1.36461
1.38422
1.39925
1.41136
1.42141
1.42993
1.43729
1.44379
1.45071
0.768895
0.829668
0.879794
0.934135
0.992175
1.05296
1.11516
1.17699
1.23611
1.28968
1.32984
1.35568
1.37315
1.38623
1.39677
1.40563
1.41327
1.41998
1.4258
1.43215
0.732374
0.795338
0.848044
0.905481
0.96717
1.03209
1.0987
1.16488
1.22768
1.2833
1.32275
1.3459
1.36022
1.37047
1.37877
1.38599
1.39247
1.39834
1.40373
1.40941
0.69754
0.762804
0.817931
0.878342
0.943478
1.01231
1.08318
1.15364
1.22017
1.27785
1.31621
1.33577
1.34578
1.35212
1.35733
1.36232
1.36724
1.37208
1.37684
1.38197
0.663955
0.731222
0.788745
0.852009
0.920479
0.993126
1.06817
1.14295
1.21341
1.27347
1.31067
1.32582
1.33021
1.33123
1.33218
1.33407
1.3369
1.34041
1.34432
1.34864
0.63017
0.700142
0.759994
0.826022
0.897752
0.974088
1.05328
1.13248
1.20722
1.27021
1.30663
1.31677
1.31403
1.30791
1.30292
1.30046
1.30035
1.30202
1.30482
1.30834
0.597021
0.669118
0.731292
0.800056
0.874949
0.954922
1.0382
1.12192
1.2013
1.26807
1.30453
1.30945
1.29801
1.28238
1.26911
1.2604
1.25609
1.25513
1.25643
1.25948
0.563501
0.638105
0.702529
0.773934
0.851893
0.935394
1.0227
1.11099
1.19539
1.26688
1.30475
1.3049
1.28334
1.25527
1.23038
1.21261
1.20209
1.19734
1.19659
1.19859
0.530048
0.606906
0.673611
0.747591
0.828491
0.91539
1.0066
1.09943
1.18912
1.26634
1.30748
1.30422
1.2717
1.22782
1.18669
1.15555
1.13566
1.12518
1.12144
1.12219
0.49631
0.575692
0.644578
0.721058
0.804781
0.894872
0.989827
1.08707
1.18216
1.26598
1.31259
1.30845
1.26537
1.20228
1.13869
1.08762
1.05327
1.03391
1.02567
1.02475
0.462729
0.544489
0.615529
0.694403
0.780791
0.873899
0.972339
1.07377
1.17424
1.26527
1.31957
1.31825
1.26697
1.18224
1.08833
1.00744
0.950275
0.916757
0.901506
0.898076
0.429163
0.513476
0.586583
0.66774
0.756655
0.852563
0.954185
1.05953
1.16512
1.2636
1.32757
1.33355
1.27912
1.17286
1.03963
0.914089
0.820259
0.763944
0.737836
0.732453
0.396257
0.48284
0.557896
0.641223
0.732487
0.830967
0.935502
1.04436
1.15466
1.26047
1.33537
1.35326
1.30349
1.18061
0.999487
0.806633
0.649248
0.559936
0.520532
0.512679
0.364172
0.452723
0.52969
0.615048
0.708452
0.809238
0.916389
1.02836
1.14288
1.25543
1.34163
1.37516
1.33965
1.21206
0.978457
0.67832
0.413382
0.269125
0.22233
0.219553
0.332385
0.423285
0.5021
0.589365
0.684736
0.787601
0.897039
1.01169
1.12977
1.24827
1.34511
1.39607
1.38374
1.27082
0.992514
0.511426
-0.0128201
-0.243022
-0.214873
-0.163933
0.301805
0.394572
0.475221
0.564309
0.661492
0.766261
0.877653
0.994523
1.11558
1.23896
1.34492
1.4126
1.42815
1.35116
1.06291
0.232622
-1.1936
-1.5487
-0.868211
-0.479241
0.2718
0.366744
0.449176
0.539904
0.638698
0.745117
0.858223
0.976906
1.10034
1.22744
1.3405
1.42207
1.46399
1.43265
1.18689
0.158636
-2.37804
-3.18264
-1.50642
-0.296206
0.242154
0.339832
0.423905
0.51588
0.615992
0.723811
0.838135
0.958229
1.08334
1.21296
1.33082
1.42207
1.48293
1.49167
1.35938
0.66633
-0.770175
-1.25402
-1.06456
-0.566364
0.213312
0.314548
0.399764
0.492701
0.593705
0.702565
0.817787
0.93905
1.06522
1.19607
1.31604
1.41104
1.47795
1.49723
1.40094
1.02847
0.46133
0.0417415
0.0485706
0.0236141
0.182874
0.292049
0.377441
0.471171
0.572995
0.682379
0.797639
0.919572
1.04589
1.17667
1.29609
1.38958
1.45124
1.46316
1.37617
1.12798
0.803575
0.504017
0.398134
0.305522
0.0592503
0.271466
0.356168
0.449482
0.551919
0.661958
0.777897
0.899626
1.02473
1.15338
1.26937
1.35661
1.40696
1.40013
1.30893
1.10265
0.865096
0.64833
0.518634
0.407112
0.216452
0.243959
0.325271
0.41748
0.520082
0.63086
0.746894
0.868005
0.992344
1.11836
1.22645
1.29566
1.3181
1.27803
1.16141
0.965365
0.761316
0.593142
0.450038
0.394921
0.128508
0.218427
0.298199
0.392408
0.495963
0.607812
0.725603
0.8487
0.974386
1.09896
1.20134
1.26009
1.26523
1.2037
1.06993
0.873912
0.648805
0.484871
0.313474
0.270279
0.083952
0.182801
0.26954
0.367549
0.473169
0.585564
0.703026
0.823468
0.944408
1.0631
1.15657
1.20275
1.19175
1.11154
0.956871
0.739981
0.473278
0.270147
0.0602819
0.0592841
0.0403445
0.148169
0.240438
0.339076
0.445288
0.557648
0.675164
0.796286
0.918047
1.03517
1.12311
1.15923
1.13564
1.04299
0.87394
0.637378
0.305496
0.00429806
-0.344477
-0.354736
-0.00091299
0.112454
0.207902
0.309561
0.417894
0.532162
0.6511
0.772117
0.892192
1.00525
1.08604
1.11277
1.07896
0.97731
0.798344
0.54825
0.153907
-0.295446
-0.90368
-1.24134
-0.0349097
0.0795908
0.176515
0.279762
0.389303
0.504285
0.623598
0.744799
0.864225
0.974991
1.05112
1.07191
1.03344
0.93104
0.757767
0.500159
0.115281
-0.465348
-1.00262
-1.67806
-0.0681549
0.0439397
0.141355
0.246303
0.35764
0.474564
0.595336
0.717198
0.836194
0.944875
1.01731
1.03477
0.99672
0.902476
0.750071
0.527006
0.230139
-0.209446
-0.745317
-0.913238
-0.104887
0.00800906
0.106092
0.212329
0.325251
0.443622
0.565368
0.68778
0.806422
0.913777
0.984344
1.00204
0.970126
0.893862
0.779518
0.636163
0.467807
0.272384
0.101083
0.0775246
-0.144297
-0.0304446
0.0687689
0.176343
0.29091
0.410851
0.533855
0.656961
0.775807
0.882743
0.953335
0.974666
0.954121
0.90235
0.831966
0.75803
0.695775
0.655891
0.657823
0.686502
-0.186668
-0.0709958
0.029587
0.138711
0.254978
0.376531
0.50092
0.625092
0.74458
0.852246
0.924851
0.953294
0.94745
0.921272
0.888052
0.859955
0.846019
0.849623
0.869436
0.892589
-0.23258
-0.113906
-0.0115291
0.0994873
0.217582
0.340918
0.466928
0.592457
0.713234
0.822841
0.89949
0.937633
0.947852
0.944864
0.939874
0.940355
0.949386
0.966466
0.988592
1.0059
-0.279144
-0.158568
-0.0541036
0.058951
0.179043
0.304322
0.432176
0.559494
0.682225
0.794857
0.877848
0.926199
0.952416
0.968894
0.983936
1.0016
1.02274
1.04613
1.06986
1.08595
-0.328181
-0.204673
-0.0978071
0.0174862
0.139864
0.267239
0.397156
0.526619
0.651985
0.768705
0.859706
0.918617
0.958995
0.990649
1.01942
1.04762
1.0754
1.10189
1.12622
1.14166
-0.377616
-0.251128
-0.141869
-0.0241607
0.100518
0.230145
0.362385
0.494316
0.622835
0.744556
0.843509
0.913755
0.965575
1.00854
1.04656
1.0812
1.11265
1.1407
1.16512
1.18029
-0.426141
-0.296813
-0.185251
-0.0651943
0.0618089
0.193772
0.328374
0.463014
0.595056
0.72225
0.828988
0.908872
0.970495
1.02173
1.06587
1.10441
1.13791
1.16673
1.19098
1.20559
-0.471272
-0.340407
-0.226774
-0.104568
0.0246209
0.158835
0.295795
0.433158
0.568764
0.701318
0.815617
0.903656
0.972781
1.02978
1.07791
1.11874
1.15334
1.18241
1.20627
1.2204
-0.513814
-0.380746
-0.265261
-0.141051
-0.00993831
0.126245
0.265304
0.405084
0.543983
0.681519
0.802405
0.896953
0.971556
1.03251
1.08309
1.1253
1.16034
1.1894
1.21295
1.22667
-0.550111
-0.415767
-0.298759
-0.17314
-0.0405531
0.0970311
0.237579
0.379213
0.520698
0.66223
0.788262
0.88764
0.966049
1.02955
1.08165
1.12453
1.15985
1.18877
1.21196
1.22552
-0.57863
-0.443261
-0.325448
-0.199008
-0.0657273
0.072394
0.21347
0.355843
0.498785
0.64284
0.772299
0.874799
0.955527
1.02055
1.07349
1.11673
1.15206
1.1808
1.20361
1.21699
-0.595142
-0.460505
-0.342605
-0.216389
-0.0836985
0.0536118
0.193732
0.335373
0.478103
0.622733
0.753525
0.85743
0.939183
1.00488
1.05815
1.10153
1.13686
1.16555
1.18786
1.20134
-0.597215
-0.463647
-0.34686
-0.222436
-0.0920925
0.0423361
0.179444
0.318182
0.458439
0.601232
0.731
0.834417
0.915916
0.98144
1.03462
1.07796
1.11326
1.142
1.16386
1.17769
-0.578705
-0.447492
-0.33383
-0.213549
-0.0882567
0.0405051
0.171697
0.304692
0.439627
0.577706
0.703711
0.804464
0.88416
0.948523
1.00103
1.04405
1.07925
1.10809
1.12985
1.14433
-0.529909
-0.404309
-0.297498
-0.185158
-0.0689613
0.0501453
0.171622
0.295334
0.421611
0.551588
0.670679
0.766138
0.84192
0.90351
0.954237
0.996229
1.03099
1.05981
1.08159
1.09668
-0.437443
-0.325002
-0.23089
-0.132915
-0.0317953
0.0724073
0.17973
0.290264
0.404297
0.522574
0.63121
0.718123
0.78699
0.843044
0.889513
0.928465
0.961205
0.988788
1.01054
1.02667
-0.27261
-0.197643
-0.129226
-0.0554872
0.0230571
0.106635
0.195238
0.288796
0.387122
0.490177
0.584788
0.659657
0.717939
0.764424
0.802165
0.833081
0.858276
0.878403
0.894517
0.905357
-0.0463045
-0.0262771
0.00377075
0.0432616
0.0922215
0.150363
0.217206
0.292071
0.374167
0.462609
0.544747
0.609403
0.658751
0.696772
0.726211
0.749129
0.767164
0.781289
0.791371
0.7968
0.0964801
0.10189
0.11284
0.131039
0.15811
0.195061
0.242229
0.299358
0.365673
0.439932
0.51033
0.565716
0.607193
0.638066
0.660687
0.676744
0.687498
0.694121
0.697764
0.699536
0.168143
0.171173
0.177552
0.188491
0.205435
0.229902
0.263177
0.305988
0.35829
0.419118
0.477976
0.524329
0.5585
0.583177
0.600512
0.612263
0.619881
0.624523
0.627046
0.62821
0.212196
0.214191
0.21828
0.22541
0.236797
0.253823
0.277864
0.310051
0.350896
0.399921
0.448267
0.486437
0.514271
0.534004
0.547569
0.556567
0.562274
0.565685
0.567533
0.568417
0.239058
0.240469
0.243327
0.248316
0.256368
0.268625
0.286351
0.310726
0.342525
0.381648
0.42085
0.451916
0.474443
0.490244
0.500969
0.508003
0.512425
0.515058
0.516486
0.517174
0.254444
0.255476
0.257553
0.261184
0.267077
0.27614
0.289433
0.308045
0.33281
0.363843
0.395353
0.420438
0.43858
0.451232
0.45977
0.465337
0.468824
0.470896
0.47202
0.472562
0.261716
0.262488
0.264037
0.266746
0.271156
0.277979
0.288082
0.302398
0.321705
0.346242
0.371421
0.391554
0.406112
0.41624
0.42305
0.427479
0.430246
0.431887
0.432779
0.433209
0.26305
0.263636
0.26481
0.266863
0.270215
0.275421
0.283174
0.294247
0.309331
0.328694
0.348731
0.364823
0.376467
0.384561
0.389998
0.393527
0.395732
0.39704
0.397749
0.398089
0.259945
0.260395
0.261294
0.262868
0.265441
0.269447
0.275439
0.284044
0.295846
0.311115
0.327019
0.33984
0.349132
0.35559
0.359924
0.36274
0.364498
0.365539
0.366103
0.366373
0.253473
0.253821
0.254515
0.255731
0.25772
0.260824
0.265477
0.272188
0.281437
0.29347
0.30607
0.316261
0.323658
0.328803
0.332258
0.334498
0.335893
0.336719
0.337168
0.337382
0.244418
0.244687
0.245226
0.246169
0.247715
0.25013
0.25376
0.259006
0.266264
0.275747
0.285717
0.293804
0.299683
0.303773
0.306517
0.308298
0.309411
0.310069
0.310425
0.310594
0.233371
0.233581
0.234
0.234736
0.235941
0.237826
0.240662
0.244772
0.250473
0.257945
0.265826
0.272233
0.276896
0.280144
0.282327
0.283743
0.284625
0.285147
0.285431
0.285564
0.220775
0.220938
0.221266
0.22184
0.222782
0.224257
0.226479
0.229704
0.234184
0.24007
0.246294
0.251364
0.255058
0.257633
0.259363
0.260486
0.261188
0.261601
0.261824
0.261929
0.206974
0.207102
0.207358
0.207807
0.208545
0.2097
0.211442
0.213972
0.217494
0.22213
0.227041
0.231049
0.233974
0.236013
0.237382
0.238269
0.238821
0.239148
0.239326
0.239409
0.192228
0.192328
0.192529
0.192881
0.193459
0.194366
0.195732
0.197718
0.200487
0.204136
0.208008
0.21117
0.213479
0.215089
0.216172
0.216875
0.217314
0.217572
0.217712
0.217777
0.176748
0.176827
0.176984
0.17726
0.177712
0.178422
0.179494
0.181055
0.183229
0.186099
0.189149
0.191641
0.19346
0.194729
0.195583
0.196138
0.196484
0.196689
0.196799
0.196851
0.16069
0.160751
0.160874
0.16109
0.161445
0.162002
0.16284
0.164062
0.165767
0.16802
0.170415
0.172376
0.173811
0.174814
0.175487
0.175923
0.176193
0.176353
0.176439
0.176479
0.144183
0.144231
0.144326
0.144494
0.144771
0.145205
0.145862
0.146818
0.148152
0.149917
0.151794
0.153332
0.154456
0.155239
0.155765
0.156107
0.156319
0.156444
0.156511
0.156544
0.127321
0.127359
0.127434
0.127565
0.127779
0.128117
0.128628
0.129372
0.130412
0.131787
0.133249
0.134447
0.135322
0.135933
0.136346
0.136615
0.136783
0.136883
0.136937
0.136961
0.110187
0.110215
0.110272
0.110373
0.110541
0.110802
0.111195
0.111769
0.112572
0.113634
0.114766
0.115695
0.116375
0.116852
0.117172
0.117378
0.117506
0.117582
0.117623
0.117642
0.0928394
0.0928621
0.0929068
0.0929837
0.0931097
0.0933085
0.0936098
0.0940485
0.0946608
0.0954705
0.0963337
0.0970412
0.0975586
0.0979185
0.0981611
0.0983206
0.0984195
0.0984763
0.0985075
0.0985232
0.075331
0.0753473
0.0753804
0.075439
0.0755349
0.0756845
0.0759092
0.0762359
0.0766929
0.0772971
0.0779405
0.0784681
0.0788548
0.0791263
0.0793082
0.0794248
0.0794988
0.0795443
0.0795683
0.0795789
0.0577035
0.0577157
0.0577404
0.0577834
0.0578526
0.0579599
0.0581206
0.0583544
0.0586804
0.0591118
0.0595719
0.0599507
0.0602296
0.060425
0.0605576
0.0606446
0.060698
0.0607284
0.0607448
0.0607525
0.0399942
0.0400046
0.0400227
0.040051
0.0400955
0.0401652
0.0402704
0.0404236
0.0406385
0.0409227
0.0412249
0.0414736
0.0416565
0.0417858
0.0418729
0.0419293
0.0419643
0.041985
0.0419968
0.0420025
0.0222178
0.0222284
0.0222283
0.0222465
0.0222717
0.0223088
0.022364
0.0224438
0.0225549
0.0227034
0.0228677
0.0230034
0.0231028
0.0231724
0.0232209
0.0232536
0.0232745
0.0232863
0.0232911
0.0232948
0.00447194
0.00447596
0.00445241
0.00444076
0.00443853
0.00444245
0.00445191
0.00446708
0.00448884
0.00451759
0.00455205
0.00458452
0.00460975
0.00462876
0.00464186
0.0046501
0.00465551
0.00466098
0.004668
0.00467301
-0.151708
0.0231922
0.177386
0.259342
0.291562
0.238862
0.114904
-0.0681966
-0.111869
-0.0171636
0.0762156
0.170548
0.208656
0.230983
0.215992
0.167548
0.104816
0.0580568
0.0618234
0.081444
0.186391
0.219808
0.228002
0.226772
0.211812
0.188553
0.169649
0.166617
0.18051
0.215939
0.245294
0.259004
0.260989
0.258274
0.253838
0.250462
0.252476
0.264707
0.287986
0.325679
0.296131
0.306754
0.311299
0.315153
0.320723
0.329024
0.342017
0.362182
0.388902
0.421689
0.355724
0.368557
0.37803
0.38758
0.399841
0.414788
0.433296
0.456443
0.482338
0.510138
0.427918
0.443178
0.456469
0.469659
0.485636
0.503258
0.523522
0.54555
0.568612
0.593265
0.510478
0.52723
0.542267
0.556867
0.573683
0.591725
0.610795
0.631111
0.651685
0.673517
0.600346
0.616431
0.631981
0.64569
0.662206
0.679082
0.695928
0.713807
0.731659
0.750397
0.694675
0.709162
0.723551
0.73646
0.751811
0.766668
0.781476
0.795946
0.809185
0.822406
0.788443
0.800489
0.813316
0.826013
0.839897
0.852848
0.863546
0.873553
0.880894
0.887162
0.876154
0.892118
0.908271
0.924312
0.939467
0.951814
0.961126
0.966003
0.968638
0.967746
0.983705
1.00596
1.02364
1.03786
1.04701
1.05448
1.06027
1.0645
1.06543
1.06454
1.0739
1.09419
1.1118
1.12819
1.14261
1.15372
1.16177
1.16684
1.16979
1.17383
1.32081
1.33034
1.3229
1.31157
1.30434
1.3084
1.32528
1.3523
1.37969
1.40666
1.62043
1.4892
1.41477
1.37439
1.3588
1.36283
1.38775
1.44135
1.54171
1.76237
1.63721
1.64129
1.63849
1.62788
1.61487
1.60222
1.59104
1.58166
1.57435
1.56967
1.5687
1.57194
1.57819
1.5867
1.5971
1.60914
1.62221
1.6345
1.64211
1.63808
1.58604
1.58826
1.59031
1.58957
1.5864
1.58128
1.57499
1.56849
1.56274
1.55878
1.55795
1.56078
1.56597
1.57234
1.57894
1.58481
1.58907
1.5911
1.59045
1.58761
1.58275
1.58309
1.5833
1.5829
1.5822
1.5803
1.57733
1.57367
1.57001
1.56731
1.56678
1.56886
1.57237
1.57627
1.57975
1.58227
1.5836
1.5841
1.5842
1.58387
1.56674
1.56674
1.5666
1.56618
1.56542
1.56419
1.56243
1.56023
1.55793
1.55617
1.55588
1.55738
1.55976
1.56224
1.56437
1.56592
1.56693
1.56753
1.56779
1.56783
1.55398
1.554
1.55394
1.55374
1.55334
1.55266
1.55166
1.55037
1.54899
1.54793
1.54784
1.54892
1.55051
1.5521
1.55339
1.55432
1.5549
1.55522
1.55536
1.55539
1.54198
1.54198
1.54195
1.54183
1.54161
1.54123
1.54068
1.53996
1.53918
1.53862
1.5387
1.53951
1.54061
1.54164
1.54247
1.54304
1.54341
1.5436
1.54369
1.54371
1.5305
1.5305
1.53048
1.53042
1.5303
1.53011
1.52982
1.52945
1.52908
1.52887
1.52909
1.52977
1.53057
1.53129
1.53185
1.53223
1.53246
1.5326
1.53265
1.53267
1.51929
1.51929
1.51928
1.51925
1.51919
1.51911
1.519
1.51887
1.51877
1.51883
1.51919
1.51982
1.52047
1.52103
1.52143
1.52171
1.52188
1.52198
1.52202
1.52202
1.50818
1.50817
1.50817
1.50817
1.50816
1.50816
1.50817
1.5082
1.50832
1.50859
1.50911
1.50977
1.51038
1.51085
1.5112
1.51142
1.51156
1.51163
1.51167
1.51167
1.49708
1.49707
1.49708
1.49709
1.49712
1.49718
1.49728
1.49746
1.49775
1.49822
1.49892
1.49968
1.50031
1.50078
1.50111
1.50132
1.50145
1.50152
1.50154
1.50155
1.48591
1.4859
1.48591
1.48594
1.486
1.48611
1.4863
1.4866
1.48707
1.48776
1.48867
1.48959
1.4903
1.49082
1.49118
1.4914
1.49153
1.4916
1.49163
1.49164
1.47459
1.47458
1.4746
1.47464
1.47474
1.4749
1.47518
1.47562
1.47628
1.47721
1.4784
1.47953
1.4804
1.48101
1.48142
1.48168
1.48183
1.48191
1.48195
1.48195
1.46306
1.46305
1.46307
1.46313
1.46326
1.4635
1.46388
1.46447
1.46535
1.46658
1.46811
1.46955
1.47063
1.47138
1.47188
1.47219
1.47237
1.47247
1.47251
1.47251
1.45123
1.45122
1.45124
1.45133
1.4515
1.45181
1.45232
1.45311
1.45427
1.45588
1.45785
1.45968
1.46103
1.46197
1.46259
1.46298
1.46321
1.46333
1.46338
1.46339
1.439
1.43898
1.43902
1.43913
1.43936
1.43977
1.44044
1.44148
1.44299
1.44507
1.44761
1.44995
1.45167
1.45286
1.45364
1.45413
1.45441
1.45456
1.45462
1.45463
1.42624
1.42621
1.42626
1.42641
1.42672
1.42726
1.42814
1.42949
1.43146
1.43415
1.43741
1.4404
1.44259
1.4441
1.44509
1.44571
1.44607
1.44626
1.44634
1.44634
1.41277
1.41273
1.4128
1.413
1.41341
1.41412
1.41528
1.41705
1.41961
1.4231
1.42729
1.43111
1.43389
1.4358
1.43705
1.43784
1.43829
1.43853
1.43863
1.43864
1.39836
1.39832
1.39842
1.39868
1.39922
1.40017
1.4017
1.40402
1.40736
1.41188
1.41726
1.42213
1.42566
1.42808
1.42967
1.43066
1.43124
1.43154
1.43166
1.43167
1.3827
1.38265
1.38278
1.38315
1.38388
1.38514
1.38718
1.39025
1.39462
1.40047
1.40737
1.41356
1.41803
1.42109
1.4231
1.42435
1.42507
1.42545
1.42561
1.42562
1.36533
1.36527
1.36546
1.36597
1.36697
1.36869
1.37143
1.37551
1.38126
1.38885
1.39766
1.40549
1.41114
1.415
1.41753
1.41911
1.42003
1.42051
1.42071
1.42073
1.3456
1.34553
1.34581
1.34654
1.34794
1.35033
1.35407
1.35956
1.36716
1.37699
1.38821
1.39807
1.40515
1.41001
1.41321
1.4152
1.41638
1.41699
1.41725
1.41727
1.3225
1.32244
1.32288
1.32396
1.326
1.3294
1.33462
1.34212
1.35221
1.36492
1.37911
1.39142
1.40025
1.40634
1.41038
1.41293
1.41443
1.41523
1.41557
1.4156
1.29441
1.29438
1.29513
1.29684
1.29996
1.30502
1.31253
1.32291
1.33636
1.35272
1.37048
1.38568
1.39658
1.40418
1.40931
1.41262
1.4146
1.41568
1.41614
1.41619
1.25837
1.2585
1.25994
1.26296
1.26817
1.27612
1.28726
1.30182
1.31973
1.34058
1.36248
1.38095
1.39423
1.40366
1.41021
1.41459
1.41735
1.4189
1.41962
1.41975
1.2079
1.20896
1.21264
1.219
1.22861
1.24179
1.25866
1.27907
1.30266
1.32879
1.35527
1.37724
1.39312
1.40467
1.41302
1.41897
1.42303
1.42561
1.42704
1.42752
1.12968
1.13433
1.14667
1.16166
1.18013
1.20207
1.2272
1.25519
1.2855
1.31746
1.34868
1.37418
1.39271
1.40654
1.41701
1.42501
1.43112
1.43579
1.43947
1.44175
1.03247
1.04651
1.07216
1.0999
1.1298
1.16175
1.19569
1.23141
1.26847
1.30622
1.34224
1.37139
1.39282
1.40929
1.42236
1.43294
1.44164
1.44879
1.45485
1.45779
0.944652
0.969806
1.00577
1.04367
1.08318
1.12405
1.16615
1.20917
1.2526
1.2957
1.33583
1.36779
1.39122
1.40938
1.42402
1.43612
1.4462
1.45453
1.46139
1.46504
0.886854
0.913782
0.9536
0.996753
1.04254
1.09021
1.13913
1.18861
1.23777
1.28555
1.32887
1.36246
1.3866
1.40509
1.41989
1.432
1.442
1.4502
1.4569
1.46068
0.837368
0.866802
0.909997
0.9572
1.00773
1.06072
1.11527
1.17031
1.22451
1.27625
1.32182
1.35583
1.37949
1.39724
1.41129
1.42276
1.43223
1.44002
1.44642
1.45021
0.794846
0.826056
0.871982
0.92253
0.977015
1.03452
1.09396
1.15395
1.21264
1.2678
1.31481
1.34821
1.37033
1.38644
1.39907
1.40942
1.41806
1.42527
1.43124
1.43497
0.756045
0.789133
0.837575
0.891125
0.949117
1.01068
1.07457
1.13911
1.20199
1.26024
1.30815
1.34001
1.3596
1.37316
1.38365
1.39238
1.39986
1.40627
1.41172
1.41534
0.719712
0.754544
0.8054
0.861746
0.923036
0.988382
1.05647
1.12537
1.19235
1.25362
1.30212
1.33171
1.34772
1.35768
1.36519
1.37166
1.37755
1.38293
1.38773
1.39114
0.684782
0.721411
0.774525
0.83357
0.898018
0.967001
1.03912
1.11232
1.18346
1.24793
1.29707
1.32382
1.33513
1.34025
1.34362
1.34699
1.35072
1.35469
1.35863
1.36175
0.650829
0.689007
0.744337
0.805995
0.873503
0.945996
1.02212
1.09961
1.17506
1.24312
1.29328
1.31691
1.32242
1.3211
1.31882
1.31785
1.31857
1.32058
1.32334
1.32589
0.6168
0.656766
0.714412
0.778642
0.849115
0.925052
1.00506
1.08688
1.16688
1.23905
1.291
1.31165
1.31032
1.30065
1.29063
1.28354
1.27996
1.27922
1.28035
1.28214
0.583242
0.624689
0.684497
0.751216
0.824594
0.903882
0.987724
1.07385
1.15858
1.23551
1.29035
1.30877
1.29985
1.27965
1.25905
1.24325
1.2334
1.22865
1.22747
1.22817
0.549401
0.592451
0.654479
0.723652
0.799836
0.882346
0.969876
1.06028
1.1499
1.23215
1.2913
1.30897
1.29238
1.25935
1.22444
1.19611
1.17699
1.16621
1.16162
1.1608
0.51582
0.560187
0.62435
0.6959
0.774786
0.860395
0.951478
1.046
1.14053
1.22863
1.29357
1.31277
1.28955
1.24175
1.18785
1.14143
1.1083
1.0883
1.07849
1.07539
0.481826
0.527925
0.594203
0.668032
0.749522
0.83806
0.932459
1.03091
1.13026
1.22451
1.29668
1.32035
1.29306
1.22977
1.15155
1.0791
1.02447
0.98992
0.971945
0.965322
0.448109
0.495748
0.564096
0.640177
0.724107
0.815367
0.91293
1.01503
1.11892
1.21936
1.29992
1.33137
1.30439
1.22723
1.11959
1.01009
0.922092
0.86415
0.83311
0.821278
0.414466
0.463919
0.534253
0.612458
0.698702
0.792481
0.892892
0.998353
1.10647
1.21288
1.30246
1.34477
1.3241
1.2384
1.09838
0.937152
0.796738
0.699973
0.649507
0.631205
0.381843
0.432571
0.504811
0.585012
0.673455
0.769603
0.87255
0.981003
1.09292
1.20481
1.30341
1.35893
1.35127
1.26684
1.09681
0.864553
0.63596
0.476892
0.400352
0.375959
0.349725
0.40192
0.475932
0.558025
0.648489
0.746801
0.852067
0.963133
1.07833
1.19512
1.30208
1.37178
1.38295
1.31347
1.12589
0.799181
0.406436
0.124072
0.0294913
0.029872
0.31819
0.371915
0.447736
0.531678
0.624004
0.72422
0.831546
0.94492
1.06293
1.18372
1.29803
1.38125
1.41431
1.37356
1.1952
0.750862
-0.0452138
-0.687247
-0.64788
-0.390796
0.287713
0.342807
0.420451
0.506185
0.600207
0.70211
0.811222
0.926508
1.0468
1.17085
1.29099
1.38566
1.43965
1.43473
1.29905
0.765527
-0.9777
-2.89942
-1.81285
-0.723575
0.257756
0.314334
0.393953
0.481311
0.576862
0.680153
0.790735
0.907543
1.02957
1.15601
1.2804
1.38377
1.45476
1.48245
1.40451
0.965454
-0.56859
-2.25955
-2.10633
-1.12894
0.228449
0.286747
0.368534
0.457083
0.553771
0.658322
0.770207
0.887874
1.01097
1.13879
1.26574
1.37418
1.45472
1.50107
1.46887
1.20029
0.471205
-0.357248
-0.430082
-0.339871
0.199189
0.260997
0.3445
0.433841
0.531048
0.636504
0.749364
0.867797
0.991541
1.1199
1.24741
1.35639
1.43723
1.4835
1.45711
1.27662
0.887342
0.485729
0.287783
0.259579
0.163836
0.240507
0.321672
0.411538
0.509123
0.615297
0.728017
0.847234
0.971642
1.10023
1.22687
1.33245
1.40618
1.4412
1.4051
1.25199
0.978521
0.725597
0.531225
0.425392
0.212681
0.259347
0.342193
0.435454
0.538112
0.648421
0.766846
0.888548
1.01371
1.14221
1.25682
1.34028
1.38439
1.36827
1.27253
1.08307
0.872738
0.683415
0.538893
0.444427
0.191393
0.21478
0.288703
0.376299
0.474856
0.58212
0.696531
0.817609
0.942321
1.06931
1.19067
1.28632
1.3417
1.3445
1.27719
1.12955
0.918165
0.736365
0.57381
0.442993
0.157928
0.195361
0.271005
0.357072
0.456706
0.563642
0.67731
0.796129
0.917656
1.04052
1.15647
1.2452
1.28835
1.27598
1.19067
1.0354
0.81166
0.633716
0.469712
0.317233
0.123189
0.163536
0.241753
0.331578
0.431669
0.539514
0.654253
0.774435
0.897067
1.02002
1.13242
1.20857
1.23305
1.19485
1.08483
0.909637
0.673042
0.469116
0.297211
0.108867
0.084369
0.124948
0.209645
0.303907
0.40575
0.514646
0.630019
0.749456
0.870801
0.990916
1.09825
1.16618
1.17934
1.12912
1.00478
0.811193
0.538936
0.262549
0.0233658
-0.259788
0.0428598
0.0862894
0.176408
0.272851
0.376242
0.486907
0.603459
0.724061
0.845654
0.964433
1.06717
1.12693
1.12874
1.06588
0.929652
0.719183
0.415225
0.0361938
-0.345349
-0.990946
0.00683939
0.0509869
0.144121
0.243283
0.348995
0.460946
0.577999
0.698401
0.819204
0.93606
1.03461
1.08714
1.08096
1.01171
0.872908
0.652948
0.347204
-0.148682
-0.714131
-1.79874
-0.0257601
0.0166845
0.11007
0.210529
0.317728
0.43124
0.549418
0.67075
0.791852
0.907626
1.00296
1.05079
1.04075
0.971784
0.840126
0.635554
0.346771
-0.0958824
-0.669696
-0.937811
-0.0614015
-0.0192824
0.0743501
0.176167
0.285207
0.400426
0.520021
0.642078
0.763205
0.878021
0.970883
1.01602
1.00618
0.944791
0.833549
0.674275
0.460735
0.189031
-0.169633
-0.456516
-0.0993501
-0.0567335
0.0374756
0.140462
0.250975
0.367733
0.488638
0.611644
0.733099
0.847377
0.939015
0.984294
0.979308
0.932545
0.852825
0.752288
0.646037
0.544753
0.468993
0.461287
-0.139879
-0.0967584
-0.00158074
0.102767
0.214944
0.333305
0.455791
0.579887
0.701925
0.816392
0.908303
0.95651
0.960274
0.932525
0.886034
0.83485
0.792457
0.76998
0.773
0.798822
-0.183408
-0.139428
-0.0425335
0.0634459
0.177332
0.297408
0.421542
0.546986
0.670125
0.785555
0.87946
0.933039
0.948441
0.941021
0.923583
0.907719
0.901204
0.907205
0.924728
0.949973
-0.22954
-0.184244
-0.0854441
0.0225205
0.138345
0.26035
0.386285
0.513368
0.63803
0.755287
0.853048
0.913544
0.942764
0.954093
0.959785
0.967419
0.980512
0.999296
1.02205
1.04625
-0.277508
-0.230781
-0.129745
-0.0195836