/*--------------------------------*- C++ -*----------------------------------*\
  =========                 |
  \\      /  F ield         | OpenFOAM: The Open Source CFD Toolbox
   \\    /   O peration     | Website:  https://openfoam.org
    \\  /    A nd           | Version:  7
     \\/     M anipulation  |
\*---------------------------------------------------------------------------*/
FoamFile
{
    version     2.0;
    format      ascii;
    class       surfaceScalarField;
    location    "1";
    object      phi;
}
// * * * * * * * * * * * * * * * * * * * * * * * * * * * * * * * * * * * * * //

dimensions      [0 3 -1 0 0 0 0];

internalField   nonuniform List<scalar> 
17370
(
-0.0765169
0.0756321
0.289896
-0.0614768
0.0495917
0.358661
-0.0390505
0.0316072
0.423611
-0.0252116
0.0207081
0.503755
-0.0167669
0.0139326
0.602236
-0.0113632
0.00946272
0.720958
-0.00767237
0.00630053
0.864278
-0.00495479
0.00387491
1.03653
-0.00276433
0.00181384
1.24345
-0.000781833
-0.00018393
1.49216
0.00114459
-0.00216638
1.49221
0.00309371
-0.00417841
1.24378
0.00523064
-0.00654897
1.03696
0.00789617
-0.00966042
0.864671
0.0115359
-0.0140786
0.7216
0.01689
-0.0208119
0.603136
0.0252996
-0.0316798
0.50582
0.039111
-0.0496405
0.426698
0.0615154
-0.0756594
0.36092
0.076529
0.212482
-0.174845
0.158806
0.016039
-0.359908
0.358161
-0.0216837
0.0234312
-0.43038
0.430038
-0.0243186
0.024661
-0.510702
0.511424
-0.0245012
0.023779
-0.607526
0.609213
-0.0226055
0.0209186
-0.72509
0.727207
-0.019128
0.0170108
-0.867287
0.869464
-0.0150257
0.0128489
-1.03899
1.04106
-0.0109013
0.00882394
-1.2455
1.24745
-0.00698752
0.00503397
-1.49379
1.49578
-0.00325876
0.0012607
-1.49366
1.49554
0.000639736
-0.00252434
-1.24491
1.24664
0.00446897
-0.00619985
-1.03817
1.03992
0.00810143
-0.00985254
-0.866347
0.868224
0.0118496
-0.0137269
-0.723712
0.725621
0.0158266
-0.0177352
-0.605886
0.607595
0.0197651
-0.0214739
-0.508157
0.509244
0.0230686
-0.024156
-0.427869
0.427971
0.0248122
-0.0249136
-0.360819
0.359883
0.0245138
-0.0235784
-0.28027
0.274567
0.0217782
-0.0160753
-0.152555
0.152525
3.01131e-05
-0.00456809
0.00675772
-0.357451
0.355262
-0.00865157
0.00998185
-0.427095
0.425765
-0.0110274
0.0116042
-0.509652
0.509075
-0.0117992
0.0117347
-0.608827
0.608891
-0.0112914
0.0106187
-0.727344
0.728017
-0.00961374
0.00852554
-0.870132
0.87122
-0.00717397
0.00584851
-1.04186
1.04319
-0.00429793
0.00285397
-1.24849
1.24993
-0.00102106
-0.000756048
-1.49755
1.49933
0.0024931
-0.00423735
-1.49772
1.49946
0.00573572
-0.00731622
-1.24924
1.25082
0.00849362
-0.00973029
-1.0428
1.04404
0.0107065
-0.0115987
-0.871122
0.872015
0.0121817
-0.0125491
-0.72852
0.728887
0.0125655
-0.012232
-0.609858
0.609524
0.0115446
-0.0103956
-0.510939
0.50979
0.00898954
-0.00699788
-0.428033
0.426041
0.00471154
-0.00196936
-0.354482
0.35174
7.55938e-05
-0.152468
0.152392
-0.152415
0.15207
0.000344673
-0.00168478
0.00253549
-0.35379
0.352939
-0.00349758
0.00434115
-0.424425
0.423581
-0.0051881
0.00586454
-0.50826
0.507584
-0.00644802
0.00674073
-0.608706
0.608414
-0.00683592
0.00671284
-0.728406
0.728529
-0.00634958
0.00581603
-0.872062
0.872596
-0.00502671
0.0041341
-1.04434
1.04523
-0.00297905
0.00176801
-1.25132
1.25253
-0.000424834
-0.000917695
-1.50098
1.50232
0.00225742
-0.00356655
-1.50108
1.50239
0.00460428
-0.00561193
-1.25222
1.25323
0.00646951
-0.0071107
-1.04499
1.04563
0.00750763
-0.00772132
-0.872576
0.872789
0.00770483
-0.00745627
-0.728887
0.728639
0.00703761
-0.00639252
-0.608862
0.608217
0.00566785
-0.00477399
-0.508497
0.507603
0.00388978
-0.00288926
-0.424349
0.423348
0.00199631
-0.00108736
-0.350184
0.349275
0.00042444
-0.152256
0.151831
-0.1518
0.151583
0.000216755
-0.000981433
0.00135798
-0.352366
0.351989
-0.0017753
0.00215615
-0.423014
0.422633
-0.00256134
0.00290793
-0.507094
0.506748
-0.00323969
0.00346386
-0.608144
0.607919
-0.00361077
0.00363809
-0.728541
0.728514
-0.00352946
0.00329266
-0.872945
0.873182
-0.00287035
0.00233871
-1.04592
1.04645
-0.00160046
0.000796095
-1.25353
1.25433
0.000158012
-0.00111059
-1.50345
1.5044
0.00204281
-0.00292641
-1.50347
1.50435
0.00358453
-0.00410248
-1.25393
1.25445
0.00447635
-0.00475144
-1.04608
1.04635
0.00484679
-0.00479664
-0.872837
0.872787
0.00462447
-0.00432173
-0.728346
0.728043
0.00396074
-0.00350118
-0.607673
0.607214
0.0030445
-0.00252084
-0.506933
0.506409
0.00203522
-0.00150929
-0.42264
0.422114
0.00104731
-0.000580262
-0.348629
0.348162
0.000219147
-0.151519
0.1513
-0.15143
0.15133
9.90473e-05
-0.000444068
0.000621982
-0.351732
0.351554
-0.000823295
0.00101171
-0.422365
0.422176
-0.00121681
0.00139437
-0.506496
0.506319
-0.00156787
0.00169422
-0.607745
0.607618
-0.00178421
0.00180716
-0.72848
0.728457
-0.00175219
0.0016161
-0.873354
0.87349
-0.00136012
0.00102602
-1.04687
1.04721
-0.000545929
1.11247e-05
-1.25498
1.25552
0.000652237
-0.00131354
-1.5052
1.50586
0.00194227
-0.0025059
-1.50506
1.50563
0.00289653
-0.00317956
-1.25484
1.25512
0.00333316
-0.00339328
-1.0465
1.04656
0.00335086
-0.00321286
-0.87268
0.872542
0.00301994
-0.0027527
-0.727754
0.727487
0.00247388
-0.00214532
-0.606825
0.606497
0.00183612
-0.00149828
-0.505992
0.505654
0.00119781
-0.000883084
-0.421715
0.4214
0.000612698
-0.000341561
-0.347814
0.347543
0.000132868
-0.151133
0.151
-0.151269
0.151233
3.61321e-05
-0.00016398
0.000236185
-0.351435
0.351363
-0.000318047
0.000393003
-0.422051
0.421976
-0.000472676
0.000539542
-0.506202
0.506135
-0.000600936
0.000639413
-0.607538
0.607499
-0.000654
0.00063431
-0.728454
0.728474
-0.00056563
0.000450475
-0.873609
0.873724
-0.000258152
1.82085e-05
-1.04748
1.04772
0.00031705
-0.000688229
-1.25596
1.25633
0.00114782
-0.00159425
-1.5064
1.50685
0.002
-0.0023375
-1.50607
1.5064
0.00254531
-0.00266678
-1.25532
1.25544
0.00269527
-0.00264891
-1.04656
1.04651
0.00254518
-0.00238021
-0.872387
0.872222
0.00219384
-0.00196492
-0.727241
0.727012
0.00174208
-0.00149238
-0.606214
0.605964
0.00126604
-0.00102531
-0.505372
0.505132
0.000815984
-0.000599246
-0.421143
0.420926
0.000414978
-0.000231039
-0.347325
0.347141
8.94498e-05
-0.150891
0.150802
-0.151215
0.151213
2.09052e-06
-8.74225e-06
1.2045e-05
-0.351329
0.351325
-1.4137e-05
1.37025e-05
-0.421942
0.421942
-8.64584e-06
-2.25639e-06
-0.50611
0.506121
2.4005e-05
-5.59925e-05
-0.607498
0.60753
0.000109491
-0.000179574
-0.728519
0.728589
0.000285904
-0.000415449
-0.873842
0.873972
0.000597203
-0.000802121
-1.04794
1.04815
0.00106945
-0.00134688
-1.25665
1.25692
0.00167412
-0.00197326
-1.50721
1.50751
0.0022223
-0.0024012
-1.50666
1.50684
0.00248314
-0.00249315
-1.2555
1.25551
0.0024392
-0.00232588
-1.04643
1.04632
0.00218573
-0.00200217
-0.872048
0.871865
0.00181805
-0.0016056
-0.726794
0.726581
0.00140947
-0.00119746
-0.605738
0.605526
0.00101041
-0.000815026
-0.504919
0.504724
0.000646762
-0.000474754
-0.420737
0.420565
0.000329531
-0.000184396
-0.346981
0.346836
7.14226e-05
-0.150722
0.150651
-0.151224
0.151246
-2.21449e-05
0.000103342
-0.000148759
-0.351348
0.351394
0.000204003
-0.000260338
-0.421973
0.422029
0.000329468
-0.00040078
-0.506164
0.506235
0.000489706
-0.000582689
-0.607594
0.607687
0.000699493
-0.000822302
-0.728685
0.728808
0.000976923
-0.00113856
-0.874115
0.874277
0.0013392
-0.00154335
-1.04835
1.04855
0.00178628
-0.00201787
-1.25717
1.2574
0.00226819
-0.00247178
-1.50776
1.50796
0.00261347
-0.00267915
-1.50695
1.50702
0.00266649
-0.00259015
-1.25547
1.2554
0.00247294
-0.0023076
-1.04618
1.04601
0.00213234
-0.00192511
-0.871671
0.871464
0.00172882
-0.0015129
-0.726371
0.726155
0.00131918
-0.00111467
-0.605321
0.605116
0.000937111
-0.000753252
-0.504537
0.504353
0.000596226
-0.00043707
-0.420403
0.420244
0.000303638
-0.000170199
-0.346698
0.346565
6.5592e-05
-0.150584
0.150518
-0.151278
0.151322
-4.31824e-05
0.000199423
-0.000286503
-0.35146
0.351548
0.000390828
-0.000495436
-0.42211
0.422215
0.000621342
-0.000747128
-0.506334
0.50646
0.0008977
-0.00104797
-0.607808
0.607959
0.00122775
-0.00140601
-0.728958
0.729136
0.00161736
-0.0018241
-0.87446
0.874666
0.00206411
-0.00229129
-1.04876
1.04899
0.00254221
-0.00276184
-1.25763
1.25785
0.0029748
-0.00312063
-1.50813
1.50828
0.00318871
-0.00317049
-1.50704
1.50702
0.00308521
-0.00293291
-1.25528
1.25513
0.00275573
-0.00253331
-1.04582
1.0456
0.00231538
-0.00206936
-0.871239
0.870992
0.00184443
-0.00160345
-0.725928
0.725687
0.00139137
-0.00117088
-0.604906
0.604686
0.000981388
-0.000787575
-0.504167
0.503973
0.000623284
-0.000457235
-0.420084
0.419918
0.000317753
-0.0001781
-0.34643
0.34629
6.84974e-05
-0.150453
0.150384
-0.151374
0.151438
-6.31595e-05
0.000292753
-0.000421713
-0.351655
0.351784
0.000576093
-0.000729494
-0.422343
0.422497
0.000912162
-0.00109324
-0.506612
0.506793
0.00130832
-0.00152004
-0.608139
0.608351
0.00176848
-0.00201013
-0.729345
0.729587
0.00228932
-0.00255481
-0.874901
0.875166
0.00285194
-0.0031223
-1.04924
1.04951
0.00340588
-0.00363867
-1.25807
1.2583
0.00384273
-0.00395551
-1.50841
1.50852
0.00397007
-0.00388173
-1.50697
1.50688
0.00372803
-0.00350234
-1.25494
1.25471
0.00326083
-0.00297316
-1.04534
1.04506
0.00270067
-0.0024002
-0.870722
0.870421
0.00213104
-0.00184608
-0.725427
0.725142
0.00159834
-0.00134201
-0.60445
0.604193
0.00112296
-0.00089982
-0.503767
0.503544
0.000711676
-0.000521633
-0.419741
0.419551
0.000361987
-0.000202288
-0.346142
0.345982
7.71571e-05
-0.150313
0.150235
-0.151512
0.151599
-8.65285e-05
0.000399126
-0.000573873
-0.351935
0.35211
0.000782631
-0.000990336
-0.422676
0.422884
0.00123758
-0.00148167
-0.507005
0.507249
0.00176955
-0.00205151
-0.608596
0.608878
0.00238046
-0.00269734
-0.729864
0.730181
0.00305955
-0.00339898
-0.875466
0.875806
0.00377316
-0.00410568
-1.04981
1.05014
0.00444475
-0.00471145
-1.25855
1.25882
0.00492884
-0.00502621
-1.50862
1.50872
0.00499878
-0.00484493
-1.50676
1.5066
0.00462111
-0.00431318
-1.25445
1.25414
0.0039956
-0.00362642
-1.04473
1.04436
0.00328225
-0.00290837
-0.870087
0.869713
0.00257598
-0.00222725
-0.724828
0.724479
0.00192526
-0.00161486
-0.603912
0.603602
0.00135061
-0.00108216
-0.5033
0.503032
0.000855754
-0.000627301
-0.419343
0.419115
0.000435675
-0.000243782
-0.345808
0.345616
9.3e-05
-0.150151
0.150058
-0.151698
0.151811
-0.000113237
0.000523456
-0.00075366
-0.352311
0.352541
0.00102867
-0.0013015
-0.423123
0.423396
0.00162548
-0.00194504
-0.507529
0.507848
0.00232194
-0.00268985
-0.609201
0.609569
0.00311732
-0.00352751
-0.730542
0.730952
0.00399367
-0.0044278
-0.87619
0.876624
0.00490138
-0.00531796
-1.05051
1.05093
0.00573563
-0.00605621
-1.25911
1.25943
0.00630493
-0.00639837
-1.50881
1.50891
0.00633295
-0.00610948
-1.50642
1.50619
0.00580622
-0.00540095
-1.25379
1.25338
0.00499077
-0.00451887
-1.04394
1.04347
0.00408313
-0.00361198
-0.869293
0.868822
0.00319559
-0.00275985
-0.72409
0.723654
0.00238393
-0.00199819
-0.603256
0.602871
0.00167051
-0.00133762
-0.502733
0.5024
0.00105702
-0.000774409
-0.418862
0.418579
0.000537885
-0.000301245
-0.345404
0.345167
0.000114957
-0.149955
0.14984
-0.151941
0.152088
-0.000147495
0.000680003
-0.000978097
-0.352803
0.353101
0.00133418
-0.0016877
-0.423706
0.42406
0.00210756
-0.00252115
-0.508212
0.508626
0.00300795
-0.00348266
-0.609987
0.610461
0.00403342
-0.0045605
-0.731417
0.731944
0.00515792
-0.00571198
-0.877115
0.877669
0.00631386
-0.00683951
-1.0514
1.05192
0.00736192
-0.00775681
-1.25978
1.26018
0.00805393
-0.00815112
-1.509
1.5091
0.00804662
-0.00774269
-1.50593
1.50563
0.00734327
-0.00681774
-1.25292
1.25239
0.00629039
-0.00568809
-1.04294
1.04234
0.00513435
-0.00453817
-0.868292
0.867696
0.00401268
-0.00346387
-0.723165
0.722616
0.00299099
-0.00250618
-0.602439
0.601954
0.00209439
-0.00167646
-0.502028
0.50161
0.00132465
-0.00097041
-0.418263
0.417909
0.000673995
-0.000377304
-0.344902
0.344605
0.000143921
-0.149712
0.149568
-0.152256
0.152446
-0.000190489
0.000877384
-0.00126191
-0.35344
0.353825
0.00172086
-0.00217623
-0.424461
0.424917
0.0027168
-0.00324917
-0.509095
0.509628
0.00387547
-0.00448569
-0.611
0.61161
0.00519287
-0.00586885
-0.732541
0.733217
0.00663337
-0.00734077
-0.878295
0.879002
0.00810634
-0.0087721
-1.05251
1.05318
0.0094293
-0.00992128
-1.26062
1.26111
0.0102835
-0.0103898
-1.5092
1.50931
0.0102388
-0.0098362
-1.50528
1.50487
0.00931674
-0.00863977
-1.2518
1.25112
0.00796443
-0.00719567
-1.04166
1.04089
0.00649116
-0.0057339
-0.867025
0.866267
0.00506756
-0.00437285
-0.721999
0.721305
0.00377532
-0.00316308
-0.601409
0.600797
0.00264359
-0.00211677
-0.501141
0.500614
0.00167346
-0.00122673
-0.417511
0.417064
0.000851771
-0.000476338
-0.344272
0.343896
0.000181159
-0.149407
0.149226
-0.152662
0.152908
-0.000245685
0.00112974
-0.0016248
-0.354261
0.354756
0.00221572
-0.00280179
-0.425433
0.426019
0.00349687
-0.00418129
-0.510231
0.510916
0.00498598
-0.00576947
-0.612301
0.613085
0.00667639
-0.00754206
-0.733982
0.734848
0.00851969
-0.00942215
-0.879801
0.880703
0.0103964
-0.0112404
-1.05393
1.05477
0.0120691
-0.0126842
-1.26166
1.26228
0.013129
-0.0132462
-1.50942
1.50954
0.0130363
-0.0125077
-1.50441
1.50388
0.011836
-0.0109663
-1.25035
1.24948
0.0101022
-0.00912209
-1.04002
1.03904
0.00822518
-0.00726343
-0.865414
0.864452
0.00641748
-0.00553661
-0.720523
0.719642
0.00477855
-0.00400255
-0.600108
0.599332
0.0033439
-0.00267662
-0.500022
0.499354
0.0021152
-0.00154955
-0.416561
0.415996
0.00107548
-0.000601092
-0.343475
0.343
0.0002285
-0.149022
0.148793
-0.153187
0.153505
-0.000317317
0.00145624
-0.00209351
-0.355318
0.355955
0.00285415
-0.00360858
-0.426684
0.427438
0.00450349
-0.00538387
-0.511692
0.512572
0.00641817
-0.00742402
-0.613972
0.614978
0.00858705
-0.00969555
-0.735827
0.736936
0.0109451
-0.0120963
-0.881723
0.882874
0.0133355
-0.0144049
-1.05572
1.05679
0.0154491
-0.0162173
-1.26296
1.26373
0.0167623
-0.0168887
-1.50966
1.50978
0.0165997
-0.015908
-1.50328
1.50259
0.0150403
-0.0139241
-1.2485
1.24738
0.0128198
-0.0115695
-1.03793
1.03668
0.0104282
-0.0092051
-0.863367
0.862144
0.0081313
-0.00701328
-0.718649
0.717531
0.00605241
-0.00506915
-0.598459
0.597476
0.00423545
-0.00339018
-0.498603
0.497758
0.00267857
-0.001962
-0.41536
0.414643
0.00136196
-0.00076164
-0.342467
0.341867
0.000289688
-0.148535
0.148245
-0.153865
0.154276
-0.00041086
0.00188141
-0.00270386
-0.356679
0.357501
0.00368497
-0.00465739
-0.428295
0.429267
0.00581019
-0.00694376
-0.513571
0.514704
0.00827462
-0.00956778
-0.616119
0.617412
0.011061
-0.0124819
-0.738191
0.739612
0.0140799
-0.0155478
-0.884174
0.885642
0.0171218
-0.0184739
-1.05799
1.05935
0.0197855
-0.0207403
-1.26459
1.26554
0.0214018
-0.0215296
-1.50991
1.51004
0.0211309
-0.0202244
-1.5018
1.50089
0.0191032
-0.0176711
-1.24612
1.24469
0.0162598
-0.0146672
-1.03527
1.03368
0.0132157
-0.0116624
-0.860766
0.859213
0.0102997
-0.00888187
-0.716272
0.714854
0.00766389
-0.00641803
-0.596368
0.595123
0.00536195
-0.00429136
-0.496806
0.495736
0.0033906
-0.00248383
-0.413837
0.41293
0.00172466
-0.00096476
-0.341191
0.340431
0.000367278
-0.14792
0.147552
-0.154744
0.155279
-0.000534288
0.00243892
-0.00350341
-0.358436
0.359501
0.00477291
-0.00603091
-0.430373
0.431631
0.00752111
-0.00898501
-0.515992
0.517456
0.0107015
-0.0123666
-0.618879
0.620544
0.0142857
-0.0161074
-0.74122
0.743042
0.0181502
-0.0200197
-0.887299
0.889168
0.0220151
-0.0237185
-1.06087
1.06257
0.0253567
-0.026533
-1.2666
1.26778
0.027323
-0.027434
-1.51016
1.51027
0.0268805
-0.0256901
-1.49985
1.49866
0.0242414
-0.0224048
-1.24306
1.24123
0.0206033
-0.0185759
-1.03188
1.02985
0.0167317
-0.0147612
-0.857463
0.855493
0.0130336
-0.0112379
-0.713258
0.711463
0.00969565
-0.00811828
-0.593721
0.592143
0.00678116
-0.00542635
-0.494532
0.493177
0.00428688
-0.00313984
-0.41191
0.410763
0.0021791
-0.00121786
-0.339576
0.338615
0.000462867
-0.147141
0.146678
-0.15589
0.156589
-0.000699229
0.00317932
-0.0045638
-0.360714
0.362098
0.00621384
-0.00784765
-0.433063
0.434697
0.00978147
-0.0116787
-0.519122
0.521019
0.0138996
-0.0160498
-0.622435
0.624586
0.0185214
-0.0208597
-0.745106
0.747444
0.0234704
-0.0258472
-0.891277
0.893654
0.0283673
-0.0305007
-1.06448
1.06661
0.0325283
-0.0339578
-1.26908
1.27051
0.0348765
-0.0349352
-1.51037
1.51042
0.0341604
-0.0325924
-1.49729
1.49573
0.0307194
-0.0283671
-1.23915
1.2368
0.0260711
-0.0234954
-1.02757
1.02499
0.0211569
-0.0186607
-0.853274
0.850778
0.0164742
-0.0142027
-0.709442
0.707171
0.0122523
-0.0102587
-0.59037
0.588376
0.00856872
-0.00685686
-0.491654
0.489942
0.00541685
-0.00396695
-0.409473
0.408023
0.00275261
-0.00153782
-0.337534
0.336319
0.000584063
-0.146157
0.145573
-0.157391
0.158316
-0.000924187
0.00417759
-0.0059913
-0.363681
0.365495
0.00815116
-0.0102874
-0.436564
0.4387
0.0128119
-0.0152841
-0.523183
0.525655
0.0181708
-0.0209563
-0.627032
0.629817
0.0241451
-0.027147
-0.750093
0.753095
0.0304789
-0.0334896
-0.89633
0.899341
0.0366525
-0.0392984
-1.06899
1.07164
0.0417728
-0.0434721
-1.27207
1.27377
0.0444951
-0.0444372
-1.51044
1.51038
0.0433444
-0.0412742
-1.49392
1.49185
0.0388551
-0.0358477
-1.23413
1.23113
0.0329302
-0.0296676
-1.02209
1.01883
0.0267113
-0.0235591
-0.847972
0.84482
0.0207996
-0.0179322
-0.704618
0.70175
0.0154708
-0.0129535
-0.586135
0.583618
0.0108204
-0.00865868
-0.488018
0.485856
0.00684017
-0.00500915
-0.406394
0.404563
0.00347564
-0.00194144
-0.334955
0.33342
0.000737123
-0.144916
0.144179
-0.159383
0.160622
-0.00123907
0.00555651
-0.0079575
-0.367579
0.36998
0.0108125
-0.0136314
-0.44115
0.443969
0.0169548
-0.020199
-0.528484
0.531728
0.0239724
-0.0275958
-0.632992
0.636616
0.0317186
-0.0355709
-0.756496
0.760349
0.0398071
-0.0435937
-0.902721
0.906508
0.0475184
-0.050748
-1.07457
1.0778
0.053699
-0.0556503
-1.2756
1.27756
0.0567057
-0.0564202
-1.51022
1.50994
0.054869
-0.0521342
-1.48948
1.48674
0.0490175
-0.0451912
-1.22773
1.22391
0.0415024
-0.0373916
-1.01516
1.01105
0.0336721
-0.0297081
-0.841283
0.837318
0.0262367
-0.0226286
-0.698533
0.694925
0.0195285
-0.0163567
-0.580792
0.577621
0.013666
-0.0109377
-0.483427
0.480699
0.00864131
-0.00632851
-0.402506
0.400193
0.00439097
-0.00245237
-0.331696
0.329758
0.000930884
-0.143351
0.14242
-0.162068
0.163768
-0.00169949
0.00753001
-0.0107603
-0.372757
0.375988
0.0145914
-0.0183624
-0.447223
0.450994
0.0227903
-0.0270906
-0.535458
0.539758
0.0320592
-0.0367916
-0.640755
0.645487
0.0421233
-0.0470469
-0.764707
0.769631
0.0523875
-0.0570842
-0.910736
0.915432
0.0618585
-0.0656934
-1.08133
1.08517
0.0690811
-0.0711937
-1.2796
1.28172
0.0721288
-0.0714342
-1.50948
1.50878
0.0692274
-0.0656213
-1.4836
1.47999
0.0616288
-0.0567959
-1.2196
1.21477
0.0521704
-0.0470336
-1.00645
1.00131
0.0423901
-0.0374381
-0.832883
0.827931
0.0330953
-0.0285719
-0.690882
0.686359
0.0246779
-0.020685
-0.574061
0.570068
0.0172925
-0.0138475
-0.477634
0.474189
0.0109446
-0.00801822
-0.397593
0.394666
0.00556462
-0.00310847
-0.327577
0.325121
0.00118008
-0.141374
0.140194
-0.165786
0.168212
-0.0024263
0.0105439
-0.0150042
-0.379766
0.384226
0.0202665
-0.0254154
-0.455389
0.460537
0.031414
-0.0371836
-0.544734
0.550503
0.0437711
-0.0499572
-0.650901
0.657087
0.0568115
-0.0630236
-0.775176
0.781388
0.0696183
-0.075281
-0.920615
0.926277
0.0808764
-0.0852173
-1.08928
1.09362
0.0888608
-0.0909174
-1.28384
1.2859
0.0914498
-0.0900636
-1.50778
1.5064
0.0869308
-0.0821991
-1.47586
1.47113
0.0771307
-0.0710979
-1.20936
1.20333
0.0653743
-0.0590419
-0.995599
0.989266
0.0533199
-0.0472077
-0.822419
0.816307
0.0418286
-0.0362027
-0.681307
0.675681
0.0313358
-0.0263217
-0.565591
0.560577
0.0220416
-0.0176781
-0.470314
0.46595
0.0139888
-0.0102597
-0.391367
0.387638
0.00712681
-0.00398573
-0.322349
0.319208
0.00151535
-0.13886
0.137344
-0.171173
0.175002
-0.00382917
0.0159036
-0.0223286
-0.389548
0.395973
0.0297953
-0.0369927
-0.46664
0.473837
0.0452361
-0.0530105
-0.557228
0.565003
0.0616893
-0.0696408
-0.664137
0.672089
0.0782169
-0.0857701
-0.788287
0.79584
0.0935414
-0.0999929
-0.932379
0.938831
0.106114
-0.110623
-1.0981
1.10261
0.114097
-0.115683
-1.28778
1.28937
0.115351
-0.112864
-1.50452
1.50203
0.108451
-0.102297
-1.46572
1.45957
0.0959456
-0.0885372
-1.19663
1.18922
0.0815884
-0.0739426
-0.982287
0.974641
0.0670439
-0.0596594
-0.809564
0.80218
0.0531315
-0.0462567
-0.669439
0.662565
0.0402596
-0.0340217
-0.554967
0.548729
0.0286434
-0.0231045
-0.461026
0.455487
0.0183753
-0.0135509
-0.383404
0.37858
0.0094635
-0.00533143
-0.315637
0.311504
0.00203798
-0.135609
0.133571
-0.179712
0.187982
-0.00826985
0.029269
-0.0386869
-0.404049
0.413467
0.0492074
-0.0590309
-0.482654
0.492478
0.0699396
-0.0799181
-0.574078
0.584056
0.0906832
-0.100201
-0.680961
0.690479
0.110106
-0.118511
-0.803932
0.812338
0.126811
-0.133388
-0.94546
0.952037
0.139276
-0.143243
-1.10696
1.11093
0.145796
-0.146246
-1.29048
1.29093
0.144388
-0.140254
-1.4988
1.49466
0.134126
-0.126224
-1.45258
1.44468
0.118386
-0.109474
-1.18107
1.17216
0.101242
-0.0922719
-0.966326
0.957356
0.0842219
-0.0756243
-0.794161
0.785563
0.0680156
-0.0599682
-0.655051
0.647003
0.0528967
-0.0454751
-0.54181
0.534388
0.0389998
-0.0322198
-0.449203
0.442423
0.0263118
-0.0201245
-0.37298
0.366793
0.0146747
-0.00874944
-0.306701
0.300776
0.00333535
-0.131217
0.127882
-0.197782
0.200471
-0.00268902
0.0200884
-0.0291816
-0.426961
0.436055
0.0399003
-0.0503262
-0.504934
0.51536
0.0620664
-0.0734375
-0.595247
0.606619
0.0855672
-0.0963442
-0.700378
0.711155
0.108269
-0.118843
-0.820611
0.831184
0.129815
-0.139208
-0.958169
0.967563
0.148517
-0.155935
-1.1142
1.12162
0.162479
-0.166685
-1.29048
1.29468
0.168791
-0.167882
-1.48944
1.48853
0.16388
-0.157211
-1.43575
1.42908
0.149484
-0.139759
-1.16244
1.15272
0.130277
-0.118976
-0.947752
0.936451
0.108547
-0.0969897
-0.776416
0.764859
0.0865184
-0.075219
-0.63841
0.62711
0.0649281
-0.0542716
-0.52629
0.515633
0.0452771
-0.0357278
-0.434689
0.42514
0.0277186
-0.0196954
-0.359336
0.351313
0.0128749
-0.00610303
-0.293854
0.287082
0.00124413
-0.12376
0.122516
-0.212314
0.207518
0.00479617
0.00283755
-0.00981126
-0.449032
0.456005
0.019108
-0.0279881
-0.52712
0.536
0.0385783
-0.0482951
-0.617735
0.627451
0.0591526
-0.0690411
-0.722085
0.731974
0.0796371
-0.0892486
-0.841512
0.851123
0.0992779
-0.107636
-0.976948
0.985306
0.116177
-0.122697
-1.12919
1.13571
0.128454
-0.131909
-1.29896
1.30242
0.133105
-0.131558
-1.48722
1.48567
0.12706
-0.120099
-1.42199
1.41503
0.112129
-0.102438
-1.14285
1.13316
0.0932413
-0.0828839
-0.925308
0.91495
0.073336
-0.0628459
-0.753387
0.742897
0.0535476
-0.0439755
-0.615573
0.606001
0.035842
-0.0274872
-0.504438
0.496083
0.0205844
-0.0140256
-0.413849
0.40729
0.00909496
-0.00461882
-0.339908
0.335432
0.00146832
0.000962571
-0.276431
0.274
-0.00186987
-0.116006
0.117876
-0.217355
0.213397
0.00395895
0.000848449
-0.00592448
-0.46553
0.470606
0.0127585
-0.0198797
-0.54516
0.552281
0.0282605
-0.036312
-0.636851
0.644903
0.0454189
-0.0538824
-0.741411
0.749875
0.0632741
-0.0717338
-0.860229
0.868689
0.0804457
-0.0881192
-0.993711
1.00138
0.0958359
-0.101898
-1.14213
1.14819
0.10692
-0.109812
-1.3056
1.30849
0.110801
-0.109051
-1.48383
1.48208
0.104553
-0.0978271
-1.40786
1.40113
0.0903716
-0.0816359
-1.12377
1.11503
0.0731714
-0.0640047
-0.904785
0.895618
0.0557166
-0.0467927
-0.733268
0.724344
0.0392024
-0.031405
-0.596908
0.589111
0.024938
-0.0182394
-0.4876
0.480901
0.0129773
-0.00808964
-0.399286
0.394398
0.00450381
-0.00154172
-0.327482
0.32452
-0.000370891
0.00179005
-0.266234
0.264815
-0.00212107
-0.112288
0.11441
-0.221996
0.21825
0.00374546
-0.000101229
-0.00412766
-0.47831
0.482539
0.00976393
-0.015939
-0.559549
0.565724
0.0233269
-0.0302435
-0.652672
0.659588
0.038286
-0.0458134
-0.758241
0.765768
0.054165
-0.061756
-0.87691
0.884501
0.0700138
-0.076973
-1.00891
1.01586
0.0842305
-0.0895929
-1.15418
1.15954
0.0944173
-0.0972423
-1.31151
1.31433
0.0981465
-0.0962867
-1.48026
1.4784
0.0921761
-0.0860121
-1.3942
1.38804
0.0791528
-0.0708747
-1.10638
1.0981
0.0632172
-0.0550179
-0.88651
0.87831
0.0475523
-0.0398936
-0.71586
0.708201
0.0330761
-0.0262812
-0.581351
0.574557
0.0205929
-0.0149799
-0.474162
0.468549
0.0105424
-0.00629122
-0.387951
0.383699
0.00312734
-0.000800731
-0.318003
0.315677
-0.000950732
0.00204159
-0.258518
0.257427
-0.00200558
-0.109436
0.111442
-0.226527
0.223236
0.0032905
-0.000192117
-0.00357269
-0.489317
0.493082
0.0091333
-0.0146793
-0.572301
0.577847
0.0211863
-0.0277381
-0.666607
0.673159
0.0349501
-0.041986
-0.77313
0.780166
0.0497189
-0.056814
-0.891981
0.899076
0.0645096
-0.0712529
-1.02299
1.02973
0.0780863
-0.0835685
-1.16509
1.17057
0.0883647
-0.0912619
-1.31714
1.32004
0.0923488
-0.0907549
-1.47664
1.47505
0.0869771
-0.0810207
-1.38142
1.37546
0.0745486
-0.0668683
-1.0899
1.08222
0.0596703
-0.0518372
-0.869952
0.862119
0.0449103
-0.0376815
-0.700409
0.69318
0.0314514
-0.0251123
-0.567708
0.561368
0.0198686
-0.0146741
-0.462514
0.45732
0.0103733
-0.00633843
-0.378201
0.374166
0.00351477
-0.00104088
-0.310069
0.307595
-0.000774431
0.00168707
-0.251864
0.250951
-0.00185328
-0.106948
0.108801
-0.230841
0.227876
0.00296521
0.000138396
-0.00411793
-0.499258
0.503237
0.00905706
-0.014407
-0.58354
0.58889
0.0209274
-0.0270231
-0.679437
0.685533
0.0338575
-0.0405463
-0.786945
0.793634
0.0480239
-0.054945
-0.906167
0.913088
0.0626262
-0.0692066
-1.03652
1.0431
0.0760803
-0.0816823
-1.1761
1.18171
0.0866495
-0.0897804
-1.32299
1.32612
0.0911736
-0.090227
-1.47355
1.4726
0.0867116
-0.081146
-1.36914
1.36357
0.0748521
-0.0673213
-1.07428
1.06675
0.0604292
-0.0526006
-0.854054
0.846226
0.0457255
-0.0386813
-0.68574
0.678696
0.0325624
-0.0263273
-0.554941
0.548705
0.0211115
-0.0157944
-0.451673
0.446356
0.0116797
-0.0076324
-0.369073
0.365026
0.00445152
-0.00183131
-0.302431
0.29981
9.21074e-07
0.00125366
-0.245762
0.244508
-0.00157205
-0.104548
0.10612
-0.234954
0.232577
0.00237661
0.000956571
-0.00486352
-0.508763
0.51267
0.00997236
-0.0149609
-0.594595
0.599584
0.02136
-0.0273312
-0.691697
0.697669
0.0343084
-0.0407353
-0.800414
0.806841
0.0480595
-0.0548844
-0.920309
0.927134
0.0627718
-0.0694472
-1.05004
1.05672
0.0764056
-0.0823682
-1.18746
1.19342
0.0880763
-0.0916209
-1.32956
1.33311
0.0936276
-0.093059
-1.47145
1.47088
0.0901563
-0.0845876
-1.35772
1.35215
0.0784959
-0.0710621
-1.05883
1.0514
0.0639642
-0.0561614
-0.838133
0.83033
0.0490966
-0.0417045
-0.671129
0.663737
0.0356039
-0.0291042
-0.542102
0.535602
0.0236122
-0.0182349
-0.440663
0.435286
0.0137855
-0.00935481
-0.360077
0.355646
0.00600572
-0.00306985
-0.295002
0.292066
0.000994004
0.000613852
-0.239672
0.238065
-0.00131063
-0.102091
0.103402
-0.239224
0.237289
0.00193527
0.00178705
-0.00561888
-0.517914
0.521745
0.0109204
-0.0160216
-0.605364
0.610465
0.0223087
-0.0281751
-0.703777
0.709643
0.0348994
-0.0415622
-0.813624
0.820287
0.0489535
-0.0563128
-0.934103
0.941462
0.0640275
-0.0710192
-1.06381
1.0708
0.0786672
-0.0849663
-1.19961
1.20591
0.0908911
-0.0954185
-1.33687
1.3414
0.0982117
-0.0983564
-1.47049
1.47064
0.0958419
-0.0907571
-1.34658
1.34149
0.084693
-0.0770802
-1.04331
1.03569
0.0697687
-0.0615901
-0.821969
0.81379
0.054185
-0.0465134
-0.655942
0.64827
0.0397666
-0.032926
-0.528628
0.521787
0.027176
-0.0212818
-0.429365
0.423471
0.0164076
-0.0118154
-0.35045
0.345858
0.00806264
-0.00461416
-0.28717
0.283722
0.00211142
-0.000109327
-0.233351
0.231349
-0.00101432
-0.0996717
0.100686
-0.243795
0.242133
0.00166197
0.00280357
-0.00679532
-0.526988
0.530979
0.0119972
-0.0172019
-0.616114
0.621319
0.0233572
-0.0293842
-0.715924
0.721951
0.0362774
-0.0428789
-0.827104
0.833705
0.0507692
-0.0577845
-0.948611
0.955627
0.0659333
-0.073229
-1.07827
1.08556
0.08134
-0.088399
-1.21254
1.2196
0.0952753
-0.100274
-1.34605
1.35105
0.104115
-0.10519
-1.47089
1.47197
0.103559
-0.0987461
-1.33611
1.3313
0.0927831
-0.0849465
-1.0277
1.01986
0.0772948
-0.0685436
-0.804862
0.79611
0.0606928
-0.0522974
-0.639863
0.631468
0.0450203
-0.0375513
-0.514346
0.506877
0.0311948
-0.0249579
-0.417052
0.410815
0.0195842
-0.0144659
-0.340163
0.335044
0.010183
-0.0062861
-0.278679
0.274783
0.00339699
-0.000790854
-0.22644
0.223834
-0.000624051
-0.0970809
0.0977049
-0.248233
0.24701
0.00122328
0.00360697
-0.00797803
-0.536208
0.540579
0.0130041
-0.0183055
-0.626532
0.631834
0.024315
-0.0304252
-0.728104
0.734214
0.0374129
-0.0444214
-0.840517
0.847525
0.0520672
-0.0595639
-0.963129
0.970625
0.068105
-0.0756403
-1.09357
1.10111
0.0843834
-0.0919806
-1.22685
1.23445
0.0996617
-0.105887
-1.35681
1.36303
0.111011
-0.11308
-1.47336
1.47543
0.112203
-0.108158
-1.32649
1.32245
0.102462
-0.0943873
-1.01139
1.00332
0.0862298
-0.0769814
-0.786612
0.777364
0.0681389
-0.0591149
-0.62224
0.613216
0.0511252
-0.042851
-0.498873
0.490598
0.0359743
-0.0289894
-0.403659
0.396675
0.0231363
-0.0172901
-0.329083
0.323236
0.0126103
-0.00814288
-0.269444
0.264976
0.0046088
-0.00148312
-0.218913
0.215787
-0.000330658
-0.0941971
0.0945278
-0.252916
0.251959
0.000957428
0.0042663
-0.00842419
-0.545492
0.54965
0.0140043
-0.0190518
-0.637322
0.642369
0.0253035
-0.0314408
-0.740221
0.746358
0.0384987
-0.0453484
-0.854503
0.861353
0.0533797
-0.060866
-0.978405
0.985891
0.0697243
-0.0780556
-1.10939
1.11772
0.0869755
-0.0954499
-1.24245
1.25092
0.104246
-0.111363
-1.3696
1.37672
0.117851
-0.121589
-1.47805
1.48179
0.121855
-0.11885
-1.31828
1.31527
0.11326
-0.105136
-0.994741
0.986616
0.0965819
-0.0864533
-0.76701
0.756881
0.0768969
-0.0667971
-0.602997
0.592897
0.057923
-0.0486817
-0.481564
0.472322
0.0409488
-0.0332574
-0.388919
0.381228
0.0266599
-0.0202228
-0.316701
0.310263
0.0149545
-0.0098823
-0.259211
0.254139
0.00590618
-0.00226705
-0.210668
0.207029
4.02521e-05
-0.091252
0.0912117
-0.257705
0.256962
0.000742449
0.00502256
-0.00922104
-0.554733
0.558932
0.0145324
-0.0197782
-0.64785
0.653096
0.0260133
-0.0320989
-0.752393
0.758478
0.0393757
-0.046231
-0.868435
0.87529
0.0543269
-0.0621501
-0.994076
1.0019
0.0711795
-0.0798148
-1.1262
1.13484
0.0893984
-0.0984163
-1.25971
1.26873
0.10812
-0.116796
-1.38459
1.39327
0.124823
-0.129983
-1.48599
1.49115
0.131996
-0.130016
-1.31226
1.31028
0.125228
-0.117291
-0.977948
0.970011
0.108118
-0.0970596
-0.745668
0.73461
0.0864826
-0.0750047
-0.581594
0.570116
0.0650515
-0.0546163
-0.462378
0.451942
0.0459596
-0.0372559